<event>
12    1  0.8633375E-002  0.2051686E+03  0.7818608E-02  0.1145719E+00
         21   -1    0    0  503  502  0.00000000000E+00  0.00000000000E+00  0.64880285706E+02  0.64880285706E+02  0.00000000000E+00 0. -1.
         21   -1    0    0  501  503 -0.00000000000E+00 -0.00000000000E+00 -0.14413365084E+04  0.14413365084E+04  0.00000000000E+00 0. -1.
          6    2    1    2  501    0  0.49337603539E+02  0.98436389902E+02 -0.12491270396E+04  0.12658643345E+04  0.17311912190E+03 0.  0.
         24    2    3    3    0    0  0.29009128506E+01  0.58727336205E+01 -0.33189266436E+03  0.34279045566E+03  0.85496500172E+02 0.  0.
         -6    2    1    2    0  502 -0.49337603539E+02 -0.98436389902E+02 -0.12732918307E+03  0.24035245957E+03  0.17155949982E+03 0.  0.
        -24    2    5    5    0    0 -0.59970915185E+01  0.16889007015E+02 -0.53062376050E+02  0.96421935418E+02  0.78488025922E+02 0.  0.
          5    1    3    3  501    0  0.46436690688E+02  0.92563656281E+02 -0.91723437526E+03  0.92307387888E+03  0.47000000000E+01 0. -1.
        -13    1    4    4    0    0  0.25689081171E+02 -0.17061823904E+02 -0.47935654634E+02  0.56998786930E+02  0.00000000000E+00 0.  1.
         14    1    4    4    0    0 -0.22788168320E+02  0.22934557524E+02 -0.28395700972E+03  0.28579166873E+03  0.00000000000E+00 0. -1.
         -5    1    5    5    0  502 -0.43340512020E+02 -0.11532539692E+03 -0.74266807024E+02  0.14393052415E+03  0.47000000000E+01 0.  1.
         11    1    6    6    0    0  0.82617288793E+01 -0.30079126663E+02 -0.17099089801E+02  0.35572305196E+02  0.00000000000E+00 0. -1.
        -12    1    6    6    0    0 -0.14258820398E+02  0.46968133679E+02 -0.35963286249E+02  0.60849630223E+02  0.00000000000E+00 0.  1.
</event>
<event>
12    1  0.8633375E-002  0.2719904E+03  0.7818608E-02  0.1100723E+00
         21   -1    0    0  503  502  0.00000000000E+00  0.00000000000E+00  0.13804651926E+03  0.13804651926E+03  0.00000000000E+00 0. -1.
         21   -1    0    0  501  503 -0.00000000000E+00 -0.00000000000E+00 -0.55930336740E+03  0.55930336740E+03  0.00000000000E+00 0.  1.
          6    2    1    2  501    0 -0.15827059707E+03  0.13231874321E+03 -0.29465303692E+03  0.40099775843E+03  0.17725957916E+03 0.  0.
         24    2    3    3    0    0 -0.17219668196E+03  0.15606569595E+03 -0.26542238595E+03  0.36057035979E+03  0.74523437015E+02 0.  0.
         -6    2    1    2    0  502  0.15827059707E+03 -0.13231874321E+03 -0.12660381122E+03  0.29635212822E+03  0.17099189217E+03 0.  0.
        -24    2    5    5    0    0  0.74860711583E+02 -0.30585265936E+02  0.79135387468E+00  0.11316226092E+03  0.79154825657E+02 0.  0.
          5    1    3    3  501    0  0.13926084899E+02 -0.23746952740E+02 -0.29230650973E+02  0.40427398647E+02  0.47000000000E+01 0. -1.
        -13    1    4    4    0    0 -0.11929276087E+03  0.11218071275E+03 -0.23244028388E+03  0.28433037242E+03  0.00000000000E+00 0.  1.
         14    1    4    4    0    0 -0.52903921091E+02  0.43884983201E+02 -0.32982102066E+02  0.76239987369E+02  0.00000000000E+00 0. -1.
         -5    1    5    5    0  502  0.83409885482E+02 -0.10173347727E+03 -0.12739516509E+03  0.18318986730E+03  0.47000000000E+01 0.  1.
         13    1    6    6    0    0 -0.96118435509E+01  0.97302093155E+01  0.12877177273E+02  0.18785265617E+02  0.00000000000E+00 0. -1.
        -14    1    6    6    0    0  0.84472555134E+02 -0.40315475251E+02 -0.12085823398E+02  0.94376995305E+02  0.00000000000E+00 0.  1.
</event>
<event>
12    1  0.8633375E-002  0.1739189E+03  0.7818608E-02  0.1174082E+00
         21   -1    0    0  501  502  0.00000000000E+00  0.00000000000E+00  0.59752500142E+03  0.59752500142E+03  0.00000000000E+00 0. -1.
         21   -1    0    0  502  503 -0.00000000000E+00 -0.00000000000E+00 -0.58522151755E+02  0.58522151755E+02  0.00000000000E+00 0. -1.
         -6    2    1    2    0  503 -0.18274486865E+02 -0.14675160017E+02  0.14740896298E+03  0.22798502369E+03  0.17233238659E+03 0.  0.
        -24    2    3    3    0    0 -0.14808123482E+02 -0.29064599291E+02  0.11387433851E+02  0.91079881260E+02  0.84272413444E+02 0.  0.
          6    2    1    2  501    0  0.18274486865E+02  0.14675160017E+02  0.39159388669E+03  0.42806212949E+03  0.17129535142E+03 0.  0.
         24    2    5    5    0    0 -0.33586231071E+02  0.12996425950E+02  0.35341230520E+03  0.36346897677E+03  0.76892766909E+02 0.  0.
          5    1    5    5  501    0  0.51860717936E+02  0.16787340675E+01  0.38181581488E+02  0.64593152716E+02  0.47000000000E+01 0. -1.
        -11    1    6    6    0    0  0.14669786899E+02  0.53881330790E+01  0.15386217378E+02  0.21931035337E+02  0.00000000000E+00 0.  1.
         12    1    6    6    0    0 -0.48256017970E+02  0.76082928708E+01  0.33802608782E+03  0.34153794143E+03  0.00000000000E+00 0. -1.
         -5    1    3    3    0  503 -0.34663633823E+01  0.14389439274E+02  0.13602152913E+03  0.13690514243E+03  0.47000000000E+01 0.  1.
         13    1    4    4    0    0  0.27589827435E+02  0.34783035996E+01  0.23348451771E+02  0.36310430649E+02  0.00000000000E+00 0. -1.
        -14    1    4    4    0    0 -0.42397950917E+02 -0.32542902890E+02 -0.11961017920E+02  0.54769450611E+02  0.00000000000E+00 0.  1.
</event>
<event>
12    1  0.8633375E-002  0.2290567E+03  0.7818608E-02  0.1127740E+00
         21   -1    0    0  503  502  0.00000000000E+00  0.00000000000E+00  0.60144135946E+03  0.60144135946E+03  0.00000000000E+00 0. -1.
         21   -1    0    0  501  503 -0.00000000000E+00 -0.00000000000E+00 -0.22044026488E+03  0.22044026488E+03  0.00000000000E+00 0. -1.
          6    2    1    2  501    0  0.11234926766E+03 -0.95872245135E+02 -0.13045217636E+03  0.26147870287E+03  0.17187058040E+03 0.  0.
         24    2    3    3    0    0  0.23391802225E+01 -0.55577044792E+02 -0.17943293568E+02  0.98978668360E+02  0.79878253201E+02 0.  0.
         -6    2    1    2    0  502 -0.11234926766E+03  0.95872245135E+02  0.51145327094E+03  0.56040292147E+03  0.17508038353E+03 0.  0.
        -24    2    5    5    0    0 -0.33902857669E+01  0.37071736476E+02  0.32448377043E+03  0.33610569974E+03  0.79319079918E+02 0.  0.
          5    1    3    3  501    0  0.11001008743E+03 -0.40295200343E+02 -0.11250888279E+03  0.16250003451E+03  0.47000000000E+01 0. -1.
        -11    1    4    4    0    0 -0.29700077201E+02  0.18586470585E+01 -0.14546988837E+02  0.33123466589E+02  0.00000000000E+00 0.  1.
         12    1    4    4    0    0  0.32039257423E+02 -0.57435691850E+02 -0.33963047312E+01  0.65855201772E+02  0.00000000000E+00 0. -1.
         -5    1    5    5    0  502 -0.10895898189E+03  0.58800508659E+02  0.18696950051E+03  0.22429722173E+03  0.47000000000E+01 0.  1.
         11    1    6    6    0    0 -0.17435114210E+02 -0.20029162232E+02  0.13935432751E+03  0.14186183117E+03  0.00000000000E+00 0. -1.
        -12    1    6    6    0    0  0.14044828443E+02  0.57100898707E+02  0.18512944293E+03  0.19424386857E+03  0.00000000000E+00 0.  1.
</event>
<event>
12    1  0.8633375E-002  0.2654317E+03  0.7818608E-02  0.1105318E+00
         21   -1    0    0  503  502  0.00000000000E+00  0.00000000000E+00  0.49058765761E+02  0.49058765761E+02  0.00000000000E+00 0. -1.
         21   -1    0    0  501  503 -0.00000000000E+00 -0.00000000000E+00 -0.14902236209E+04  0.14902236209E+04  0.00000000000E+00 0.  1.
          6    2    1    2  501    0  0.18258604722E+03 -0.51787161568E+02 -0.93616294952E+03  0.97306476803E+03  0.18556508291E+03 0.  0.
         24    2    3    3    0    0  0.13984235777E+03 -0.20154561491E+02 -0.88271768603E+03  0.89752583393E+03  0.80000112346E+02 0.  0.
         -6    2    1    2    0  502 -0.18258604722E+03  0.51787161568E+02 -0.50500190565E+03  0.56621761866E+03  0.17191827193E+03 0.  0.
        -24    2    5    5    0    0 -0.75881428633E+02  0.44556489113E+02 -0.12615430176E+03  0.17253531625E+03  0.78168123738E+02 0.  0.
          5    1    3    3  501    0  0.42743689453E+02 -0.31632600077E+02 -0.53445263492E+02  0.75538934103E+02  0.47000000000E+01 0. -1.
        -11    1    4    4    0    0  0.23586052273E+02 -0.25948031288E+02 -0.37499909695E+03  0.37663500223E+03  0.00000000000E+00 0.  1.
         12    1    4    4    0    0  0.11625630549E+03  0.57934697970E+01 -0.50771858908E+03  0.52089083170E+03  0.00000000000E+00 0. -1.
         -5    1    5    5    0  502 -0.10670461859E+03  0.72306724548E+01 -0.37884760389E+03  0.39368230241E+03  0.47000000000E+01 0.  1.
         13    1    6    6    0    0 -0.51416533634E+02 -0.12907210739E+02 -0.41437384616E+02  0.67285309420E+02  0.00000000000E+00 0. -1.
        -14    1    6    6    0    0 -0.24464894999E+02  0.57463699852E+02 -0.84716917144E+02  0.10525000683E+03  0.00000000000E+00 0.  1.
</event>
<event>
12    1  0.8633375E-002  0.2145061E+03  0.7818608E-02  0.1138145E+00
         21   -1    0    0  501  502  0.00000000000E+00  0.00000000000E+00  0.22555961093E+03  0.22555961093E+03  0.00000000000E+00 0. -1.
         21   -1    0    0  502  503 -0.00000000000E+00 -0.00000000000E+00 -0.46737814793E+03  0.46737814793E+03  0.00000000000E+00 0.  1.
         -6    2    1    2    0  503  0.12809155806E+03 -0.11566512120E+02 -0.38117740923E+03  0.43713754646E+03  0.17103153442E+03 0.  0.
        -24    2    3    3    0    0  0.23462707372E+01  0.17649037784E+02 -0.11320805350E+03  0.13965630125E+03  0.79817451605E+02 0.  0.
          6    2    1    2  501    0 -0.12809155806E+03  0.11566512120E+02  0.13935887224E+03  0.25580021240E+03  0.17167300879E+03 0.  0.
         24    2    5    5    0    0 -0.12467788001E+03  0.49584683039E+02  0.65211673850E+02  0.17227218390E+03  0.86150614522E+02 0.  0.
          5    1    5    5  501    0 -0.34136780490E+01 -0.38018170920E+02  0.74147198387E+02  0.83528028509E+02  0.47000000000E+01 0. -1.
        -11    1    6    6    0    0 -0.55611119543E+02  0.67508511682E+02  0.43519832078E+02  0.97693252328E+02  0.00000000000E+00 0.  1.
         12    1    6    6    0    0 -0.69066760465E+02 -0.17923828642E+02  0.21691841771E+02  0.74578931567E+02  0.00000000000E+00 0. -1.
         -5    1    3    3    0  503  0.12574528732E+03 -0.29215549904E+02 -0.26796935574E+03  0.29748124521E+03  0.47000000000E+01 0.  1.
         11    1    4    4    0    0  0.55123602879E+01 -0.20584420912E+02 -0.12937829760E+01  0.21348966593E+02  0.00000000000E+00 0. -1.
        -12    1    4    4    0    0 -0.31660895507E+01  0.38233458696E+02 -0.11191427052E+03  0.11830733465E+03  0.00000000000E+00 0.  1.
</event>
<event>
12    1  0.8633375E-002  0.2479097E+03  0.7818608E-02  0.1114633E+00
         21   -1    0    0  503  502  0.00000000000E+00  0.00000000000E+00  0.61780320458E+03  0.61780320458E+03  0.00000000000E+00 0. -1.
         21   -1    0    0  501  503 -0.00000000000E+00 -0.00000000000E+00 -0.99493746672E+02  0.99493746672E+02  0.00000000000E+00 0. -1.
          6    2    1    2  501    0  0.16540733907E+03  0.61354916094E+02  0.26335577996E+03  0.36168396670E+03  0.17416949040E+03 0.  0.
         24    2    3    3    0    0  0.13365347564E+03  0.67681270882E+02  0.10864031156E+03  0.20354701097E+03  0.84762387874E+02 0.  0.
         -6    2    1    2    0  502 -0.16540733907E+03 -0.61354916094E+02  0.25495367795E+03  0.35561298455E+03  0.17417004144E+03 0.  0.
        -24    2    5    5    0    0 -0.86166072138E+02  0.37200267525E+02  0.11666478561E+03  0.16816109646E+03  0.76544302666E+02 0.  0.
          5    1    3    3  501    0  0.31753863424E+02 -0.63263547886E+01  0.15471546840E+03  0.15813695573E+03  0.47000000000E+01 0. -1.
        -13    1    4    4    0    0  0.23565232474E+02  0.55693976502E+02  0.48573824238E+02  0.77566459254E+02  0.00000000000E+00 0.  1.
         14    1    4    4    0    0  0.11008824317E+03  0.11987294380E+02  0.60066487325E+02  0.12598055172E+03  0.00000000000E+00 0. -1.
         -5    1    5    5    0  502 -0.79241266930E+02 -0.98555183619E+02  0.13828889235E+03  0.18745188809E+03  0.47000000000E+01 0.  1.
         11    1    6    6    0    0 -0.90231517495E+02  0.11673536897E+02  0.10726920817E+03  0.14065802940E+03  0.00000000000E+00 0. -1.
        -12    1    6    6    0    0  0.40654453564E+01  0.25526730628E+02  0.93955774393E+01  0.27503067064E+02  0.00000000000E+00 0.  1.
</event>
<event>
12    1  0.8633375E-002  0.2535247E+03  0.7818608E-02  0.1111402E+00
         21   -1    0    0  501  502  0.00000000000E+00  0.00000000000E+00  0.78857586717E+02  0.78857586717E+02  0.00000000000E+00 0.  1.
         21   -1    0    0  502  503 -0.00000000000E+00 -0.00000000000E+00 -0.94127747006E+03  0.94127747006E+03  0.00000000000E+00 0.  1.
         -6    2    1    2    0  503 -0.12239925204E+03 -0.13515648848E+03 -0.62113330319E+03  0.67014361803E+03  0.17331195911E+03 0.  0.
        -24    2    3    3    0    0 -0.14831942177E+03 -0.14581787717E+03 -0.54847469551E+03  0.59212513510E+03  0.80784774716E+02 0.  0.
          6    2    1    2  501    0  0.12239925204E+03  0.13515648848E+03 -0.24128658015E+03  0.34999143874E+03  0.17614181831E+03 0.  0.
         24    2    5    5    0    0  0.15308173303E+03  0.95071474910E+02 -0.15838196599E+03  0.25281382815E+03  0.79733194005E+02 0.  0.
          5    1    5    5  501    0 -0.30682480987E+02  0.40085013567E+02 -0.82904614155E+02  0.97177610592E+02  0.47000000000E+01 0. -1.
        -11    1    6    6    0    0  0.15455535067E+03  0.86333644297E+02 -0.16480394125E+03  0.24187019992E+03  0.00000000000E+00 0.  1.
         12    1    6    6    0    0 -0.14736176405E+01  0.87378306125E+01  0.64219752564E+01  0.10943628235E+02  0.00000000000E+00 0. -1.
         -5    1    3    3    0  503  0.25920169735E+02  0.10661388689E+02 -0.72658607688E+02  0.78018482932E+02  0.47000000000E+01 0.  1.
         11    1    4    4    0    0 -0.88404488130E+02 -0.33688604852E+02 -0.20183524485E+03  0.22290747337E+03  0.00000000000E+00 0. -1.
        -12    1    4    4    0    0 -0.59914933644E+02 -0.11212927231E+03 -0.34663945065E+03  0.36921766173E+03  0.00000000000E+00 0.  1.
</event>
<event>
12    1  0.8633375E-002  0.2447642E+03  0.7818608E-02  0.1116926E+00
         21   -1    0    0  503  502  0.00000000000E+00  0.00000000000E+00  0.47331666912E+03  0.47331666912E+03  0.00000000000E+00 0.  1.
         21   -1    0    0  501  503 -0.00000000000E+00 -0.00000000000E+00 -0.15787567406E+03  0.15787567406E+03  0.00000000000E+00 0.  1.
          6    2    1    2  501    0  0.16965186165E+03 -0.34710704488E+02  0.15730066693E+02  0.24526910567E+03  0.17298240383E+03 0.  0.
         24    2    3    3    0    0  0.13561337853E+03  0.24858976740E+02  0.54399412388E+02  0.16637313904E+03  0.75576240742E+02 0.  0.
         -6    2    1    2    0  502 -0.16965186165E+03  0.34710704488E+02  0.29971092837E+03  0.38592323751E+03  0.17065613818E+03 0.  0.
        -24    2    5    5    0    0 -0.98479479177E+02 -0.20021720888E+02  0.88260347165E+02  0.15615251547E+03  0.80589342225E+02 0.  0.
          5    1    3    3  501    0  0.34038483115E+02 -0.59569681228E+02 -0.38669345695E+02  0.78895966633E+02  0.47000000000E+01 0. -1.
        -13    1    4    4    0    0  0.13508900286E+03  0.97225271842E+01  0.31722977795E+02  0.13910396669E+03  0.00000000000E+00 0.  1.
         14    1    4    4    0    0  0.52437567506E+00  0.15136449556E+02  0.22676434593E+02  0.27269172354E+02  0.00000000000E+00 0. -1.
         -5    1    5    5    0  502 -0.71172382472E+02  0.54732425376E+02  0.21145058120E+03  0.22977072204E+03  0.47000000000E+01 0.  1.
         13    1    6    6    0    0 -0.57095875524E+02  0.28797841504E+02  0.35055052765E+02  0.72925382423E+02  0.00000000000E+00 0. -1.
        -14    1    6    6    0    0 -0.41383603653E+02 -0.48819562392E+02  0.53205294400E+02  0.83227133050E+02  0.00000000000E+00 0.  1.
</event>
<event>
12    1  0.8633375E-002  0.1921499E+03  0.7818608E-02  0.1156745E+00
         21   -1    0    0  503  502  0.00000000000E+00  0.00000000000E+00  0.60689997706E+02  0.60689997706E+02  0.00000000000E+00 0.  1.
         21   -1    0    0  501  503 -0.00000000000E+00 -0.00000000000E+00 -0.73081372033E+03  0.73081372033E+03  0.00000000000E+00 0.  1.
          6    2    1    2  501    0 -0.83347906343E+02  0.69262454282E+00 -0.49967478809E+03  0.53534705099E+03  0.17313063833E+03 0.  0.
         24    2    3    3    0    0 -0.85709406021E+02 -0.21568824222E+02 -0.49853826544E+03  0.51244442089E+03  0.79041545613E+02 0.  0.
         -6    2    1    2    0  502  0.83347906343E+02 -0.69262454282E+00 -0.17044893453E+03  0.25615666705E+03  0.17209313051E+03 0.  0.
        -24    2    5    5    0    0  0.76991214039E+01 -0.45937586842E+02 -0.12926444666E+03  0.15874980221E+03  0.79515182045E+02 0.  0.
          5    1    3    3  501    0  0.23614996783E+01  0.22261448764E+02 -0.11365226531E+01  0.22902630102E+02  0.47000000000E+01 0. -1.
        -13    1    4    4    0    0 -0.72735608169E+02  0.78279545278E+01 -0.43640559786E+03  0.44249473603E+03  0.00000000000E+00 0.  1.
         14    1    4    4    0    0 -0.12973797852E+02 -0.29396778750E+02 -0.62132667573E+02  0.69949684855E+02  0.00000000000E+00 0. -1.
         -5    1    5    5    0  502  0.75648784939E+02  0.45244962300E+02 -0.41184487871E+02  0.97406864837E+02  0.47000000000E+01 0.  1.
         11    1    6    6    0    0  0.14710677046E+02 -0.12921747057E+02  0.50817246003E+01  0.20228679915E+02  0.00000000000E+00 0. -1.
        -12    1    6    6    0    0 -0.70115556425E+01 -0.33015839785E+02 -0.13434617126E+03  0.13852112229E+03  0.00000000000E+00 0.  1.
</event>
<event>
12    1  0.8633375E-002  0.1885549E+03  0.7818608E-02  0.1159782E+00
         21   -1    0    0  501  502  0.00000000000E+00  0.00000000000E+00  0.40792555300E+02  0.40792555300E+02  0.00000000000E+00 0. -1.
         21   -1    0    0  502  503 -0.00000000000E+00 -0.00000000000E+00 -0.89947197542E+03  0.89947197542E+03  0.00000000000E+00 0. -1.
         -6    2    1    2    0  503 -0.34186373039E+02 -0.70218486384E+02 -0.51253832046E+03  0.54612129526E+03  0.17162049779E+03 0.  0.
        -24    2    3    3    0    0  0.36576250632E+02 -0.77395283328E+02 -0.30041715989E+03  0.32234387887E+03  0.79544039984E+02 0.  0.
          6    2    1    2  501    0  0.34186373039E+02  0.70218486384E+02 -0.34614109966E+03  0.39414323546E+03  0.17156889361E+03 0.  0.
         24    2    5    5    0    0  0.67001686614E+02 -0.71493036658E+01 -0.18070203049E+03  0.20852320596E+03  0.79299212176E+02 0.  0.
          5    1    5    5  501    0 -0.32815313575E+02  0.77367790050E+02 -0.16543906917E+03  0.18562002950E+03  0.47000000000E+01 0. -1.
        -11    1    6    6    0    0  0.19185301253E+02  0.17217669349E+01 -0.14951362570E+03  0.15074934340E+03  0.00000000000E+00 0.  1.
         12    1    6    6    0    0  0.47816385361E+02 -0.88710706007E+01 -0.31188404788E+02  0.57773862566E+02  0.00000000000E+00 0. -1.
         -5    1    3    3    0  503 -0.70762623671E+02  0.71767969441E+01 -0.21212116058E+03  0.22377741639E+03  0.47000000000E+01 0.  1.
         13    1    4    4    0    0  0.31934814597E+02 -0.15213110856E+02 -0.20717520744E+03  0.21017335156E+03  0.00000000000E+00 0. -1.
        -14    1    4    4    0    0  0.46414360343E+01 -0.62182172472E+02 -0.93241952445E+02  0.11217052731E+03  0.00000000000E+00 0.  1.
</event>
<event>
12    1  0.8633375E-002  0.2309615E+03  0.7818608E-02  0.1126255E+00
         21   -1    0    0  501  502  0.00000000000E+00  0.00000000000E+00  0.11238275653E+03  0.11238275653E+03  0.00000000000E+00 0.  1.
         21   -1    0    0  502  503 -0.00000000000E+00 -0.00000000000E+00 -0.89188275639E+03  0.89188275639E+03  0.00000000000E+00 0.  1.
         -6    2    1    2    0  503 -0.84682742176E+02  0.12743329076E+03 -0.73384136808E+03  0.76883411111E+03  0.17079908222E+03 0.  0.
        -24    2    3    3    0    0 -0.34724254116E+02  0.13132134446E+03 -0.38905546896E+03  0.42039419703E+03  0.83162814017E+02 0.  0.
          6    2    1    2  501    0  0.84682742176E+02 -0.12743329076E+03 -0.45658631780E+02  0.23543140181E+03  0.17301105135E+03 0.  0.
         24    2    5    5    0    0  0.48050778294E+02 -0.14707826121E+03 -0.31832770043E+02  0.19137382477E+03  0.10802649372E+03 0.  0.
          5    1    5    5  501    0  0.36631963882E+02  0.19644970451E+02 -0.13825861737E+02  0.44057577040E+02  0.47000000000E+01 0. -1.
        -13    1    6    6    0    0 -0.45652524741E+01 -0.92310952511E+02  0.25889253415E+02  0.95981284249E+02  0.00000000000E+00 0.  1.
         14    1    6    6    0    0  0.52616030768E+02 -0.54767308695E+02 -0.57722023458E+02  0.95392540524E+02  0.00000000000E+00 0. -1.
         -5    1    3    3    0  503 -0.49958488060E+02 -0.38880537088E+01 -0.34478589912E+03  0.34843991408E+03  0.47000000000E+01 0.  1.
         13    1    4    4    0    0 -0.25845634158E+02  0.23814308462E+01 -0.10753754371E+03  0.11062545514E+03  0.00000000000E+00 0. -1.
        -14    1    4    4    0    0 -0.88786199573E+01  0.12893991362E+03 -0.28151792525E+03  0.30976874189E+03  0.00000000000E+00 0.  1.
</event>
<event>
12    1  0.8633375E-002  0.1927534E+03  0.7818608E-02  0.1156141E+00
         21   -1    0    0  501  502  0.00000000000E+00  0.00000000000E+00  0.17421370115E+03  0.17421370115E+03  0.00000000000E+00 0.  1.
         21   -1    0    0  502  503 -0.00000000000E+00 -0.00000000000E+00 -0.21685299898E+03  0.21685299898E+03  0.00000000000E+00 0.  1.
         -6    2    1    2    0  503 -0.21358085564E+02 -0.82383902804E+02 -0.48771946087E+02  0.19821581099E+03  0.17224264786E+03 0.  0.
        -24    2    3    3    0    0 -0.36306247154E+02 -0.41650360422E+02  0.33906362529E+02  0.10472537445E+03  0.82248808669E+02 0.  0.
          6    2    1    2  501    0  0.21358085564E+02  0.82383902804E+02  0.61326482590E+01  0.19285088914E+03  0.17294675715E+03 0.  0.
         24    2    5    5    0    0  0.45690332618E+02  0.81559596757E+02 -0.48494871278E+02  0.13285927625E+03  0.80995434603E+02 0.  0.
          5    1    5    5  501    0 -0.24332247054E+02  0.82430604710E+00  0.54627519537E+02  0.59991612896E+02  0.47000000000E+01 0. -1.
        -13    1    6    6    0    0 -0.22026141117E+02  0.83981357043E+01 -0.50180851652E+01  0.24101052975E+02  0.00000000000E+00 0.  1.
         14    1    6    6    0    0  0.67716473735E+02  0.73161461052E+02 -0.43476786113E+02  0.10875822327E+03  0.00000000000E+00 0. -1.
         -5    1    3    3    0  503  0.14948161589E+02 -0.40733542381E+02 -0.82678308616E+02  0.93490436546E+02  0.47000000000E+01 0.  1.
         11    1    4    4    0    0 -0.13477043035E+02  0.12060817447E+02 -0.18799829711E+02  0.26086923997E+02  0.00000000000E+00 0. -1.
        -12    1    4    4    0    0 -0.22829204118E+02 -0.53711177870E+02  0.52706192240E+02  0.78638450450E+02  0.00000000000E+00 0.  1.
</event>
<event>
12    1  0.8633375E-002  0.1789746E+03  0.7818608E-02  0.1168993E+00
         21   -1    0    0  501  502  0.00000000000E+00  0.00000000000E+00  0.61813169603E+03  0.61813169603E+03  0.00000000000E+00 0.  1.
         21   -1    0    0  502  503 -0.00000000000E+00 -0.00000000000E+00 -0.51604465664E+02  0.51604465664E+02  0.00000000000E+00 0.  1.
         -6    2    1    2    0  503 -0.21230874076E+02 -0.44201678193E+02  0.27716307664E+03  0.32949575349E+03  0.17129956844E+03 0.  0.
        -24    2    3    3    0    0 -0.10537514240E+02 -0.69972522221E+02  0.28063258505E+03  0.30098940621E+03  0.82660642296E+02 0.  0.
          6    2    1    2  501    0  0.21230874076E+02  0.44201678193E+02  0.28936415373E+03  0.34024040821E+03  0.17212606876E+03 0.  0.
         24    2    5    5    0    0  0.26802510453E+01 -0.37446984777E+02  0.19335561048E+03  0.21276350773E+03  0.80451586071E+02 0.  0.
          5    1    5    5  501    0  0.18550623030E+02  0.81648662971E+02  0.96008543250E+02  0.12747690048E+03  0.47000000000E+01 0. -1.
        -11    1    6    6    0    0 -0.34541377223E+02 -0.36031207657E+01  0.11052104444E+03  0.11584899863E+03  0.00000000000E+00 0.  1.
         12    1    6    6    0    0  0.37221628269E+02 -0.33843864012E+02  0.82834566045E+02  0.96914509100E+02  0.00000000000E+00 0. -1.
         -5    1    3    3    0  503 -0.10693359835E+02  0.25770844028E+02 -0.34695084157E+01  0.28506347277E+02  0.47000000000E+01 0.  1.
         13    1    4    4    0    0 -0.44505787813E+02 -0.45081322015E+02  0.13051197898E+03  0.14507400663E+03  0.00000000000E+00 0. -1.
        -14    1    4    4    0    0  0.33968273573E+02 -0.24891200206E+02  0.15012060608E+03  0.15591539958E+03  0.00000000000E+00 0.  1.
</event>
<event>
12    1  0.8633375E-002  0.2325296E+03  0.7818608E-02  0.1124934E+00
         21   -1    0    0  501  502  0.00000000000E+00  0.00000000000E+00  0.83733694607E+02  0.83733694607E+02  0.00000000000E+00 0.  1.
         21   -1    0    0  502  503 -0.00000000000E+00 -0.00000000000E+00 -0.68903044170E+03  0.68903044170E+03  0.00000000000E+00 0.  1.
         -6    2    1    2    0  503 -0.81474036219E+02 -0.13372903882E+03 -0.40038852242E+03  0.46283287719E+03  0.17141128588E+03 0.  0.
        -24    2    3    3    0    0 -0.46746408721E+01 -0.14223298551E+02 -0.80074037307E+02  0.11239996142E+03  0.77445112103E+02 0.  0.
          6    2    1    2  501    0  0.81474036219E+02  0.13372903882E+03 -0.20490822468E+03  0.30993125911E+03  0.17189685987E+03 0.  0.
         24    2    5    5    0    0  0.11210965059E+03  0.86886026536E+02 -0.16143955601E+03  0.23890715178E+03  0.10438458489E+03 0.  0.
          5    1    5    5  501    0 -0.30635614368E+02  0.46843012284E+02 -0.43468668662E+02  0.71024107335E+02  0.47000000000E+01 0. -1.
        -11    1    6    6    0    0  0.64485848184E+02  0.97848716915E+02 -0.14690980002E+03  0.18792361576E+03  0.00000000000E+00 0.  1.
         12    1    6    6    0    0  0.47623802403E+02 -0.10962690378E+02 -0.14529755990E+02  0.50983536017E+02  0.00000000000E+00 0. -1.
         -5    1    3    3    0  503 -0.76799395347E+02 -0.11950574027E+03 -0.32031448511E+03  0.35043291577E+03  0.47000000000E+01 0.  1.
         11    1    4    4    0    0 -0.27681868902E+02  0.27810994612E+01 -0.48531223397E+00  0.27825454319E+02  0.00000000000E+00 0. -1.
        -12    1    4    4    0    0  0.23007228030E+02 -0.17004398012E+02 -0.79588725073E+02  0.84574507105E+02  0.00000000000E+00 0.  1.
</event>
<event>
12    1  0.8633375E-002  0.2163978E+03  0.7818608E-02  0.1137371E+00
         21   -1    0    0  503  502  0.00000000000E+00  0.00000000000E+00  0.32082037466E+03  0.32082037466E+03  0.00000000000E+00 0.  1.
         21   -1    0    0  501  503 -0.00000000000E+00 -0.00000000000E+00 -0.14658265363E+03  0.14658265363E+03  0.00000000000E+00 0.  1.
          6    2    1    2  501    0  0.16278580273E+02  0.12500575405E+03  0.52753789260E+02  0.22273524019E+03  0.17588801613E+03 0.  0.
         24    2    3    3    0    0  0.48882800814E+02  0.13553319033E+03  0.73879075103E+02  0.18221080542E+03  0.83569647464E+02 0.  0.
         -6    2    1    2    0  502 -0.16278580273E+02 -0.12500575405E+03  0.12148393176E+03  0.24466778810E+03  0.17091679302E+03 0.  0.
        -24    2    5    5    0    0 -0.23656043678E+02 -0.43905975313E+02  0.13220355805E+03  0.16239627745E+03  0.80046405903E+02 0.  0.
          5    1    3    3  501    0 -0.32604220542E+02 -0.10527436276E+02 -0.21125285842E+02  0.40524434772E+02  0.47000000000E+01 0. -1.
        -13    1    4    4    0    0  0.32804134587E+02  0.52725791542E+02 -0.10407691313E+02  0.62963802126E+02  0.00000000000E+00 0.  1.
         14    1    4    4    0    0  0.16078666227E+02  0.82807398785E+02  0.84286766415E+02  0.11924700329E+03  0.00000000000E+00 0. -1.
         -5    1    5    5    0  502  0.73774634054E+01 -0.81099778737E+02 -0.10719626287E+02  0.82271510654E+02  0.47000000000E+01 0.  1.
         13    1    6    6    0    0  0.20457628235E+02  0.10145393861E+02  0.20456363499E+02  0.30657892576E+02  0.00000000000E+00 0. -1.
        -14    1    6    6    0    0 -0.44113671913E+02 -0.54051369174E+02  0.11174719455E+03  0.13173838487E+03  0.00000000000E+00 0.  1.
</event>
<event>
12    1  0.8633375E-002  0.1809037E+03  0.7818608E-02  0.1167209E+00
         21   -1    0    0  503  502  0.00000000000E+00  0.00000000000E+00  0.28200078910E+03  0.28200078910E+03  0.00000000000E+00 0. -1.
         21   -1    0    0  501  503 -0.00000000000E+00 -0.00000000000E+00 -0.18720422687E+03  0.18720422687E+03  0.00000000000E+00 0. -1.
          6    2    1    2  501    0 -0.50494031302E+01  0.52613604122E+02 -0.98078194886E+02  0.20476824487E+03  0.17180516285E+03 0.  0.
         24    2    3    3    0    0  0.59922328820E+02  0.17659874801E+02 -0.36543900358E+02  0.10858275454E+03  0.80945668577E+02 0.  0.
         -6    2    1    2    0  502  0.50494031302E+01 -0.52613604122E+02  0.19287475712E+03  0.26443677110E+03  0.17300995974E+03 0.  0.
        -24    2    5    5    0    0  0.88078707106E+01 -0.24662419320E+02  0.21336250267E+03  0.22926245479E+03  0.79698821316E+02 0.  0.
          5    1    3    3  501    0 -0.64971731950E+02  0.34953729321E+02 -0.61534294528E+02  0.96185490325E+02  0.47000000000E+01 0. -1.
        -11    1    4    4    0    0  0.30688436985E+02 -0.31901842881E+02 -0.10915460138E+02  0.45592269233E+02  0.00000000000E+00 0.  1.
         12    1    4    4    0    0  0.29233891835E+02  0.49561717682E+02 -0.25628440220E+02  0.62990485309E+02  0.00000000000E+00 0. -1.
         -5    1    5    5    0  502 -0.37584675805E+01 -0.27951184802E+02 -0.20487745550E+02  0.35174316314E+02  0.47000000000E+01 0.  1.
         11    1    6    6    0    0 -0.29414587921E+02 -0.12723001317E+02  0.15629721987E+03  0.15954909491E+03  0.00000000000E+00 0. -1.
        -12    1    6    6    0    0  0.38222458632E+02 -0.11939418003E+02  0.57065282792E+02  0.69713359883E+02  0.00000000000E+00 0.  1.
</event>
<event>
12    1  0.8633375E-002  0.2713556E+03  0.7818608E-02  0.1100568E+00
         21   -1    0    0  503  502  0.00000000000E+00  0.00000000000E+00  0.23075617538E+03  0.23075617538E+03  0.00000000000E+00 0.  1.
         21   -1    0    0  501  503 -0.00000000000E+00 -0.00000000000E+00 -0.36462827119E+03  0.36462827119E+03  0.00000000000E+00 0.  1.
          6    2    1    2  501    0  0.19939184569E+03 -0.62982603894E+02 -0.17276632913E+03  0.32168631038E+03  0.17294496605E+03 0.  0.
         24    2    3    3    0    0  0.13465734879E+03 -0.48149768960E+02 -0.19233899781E+03  0.25229072377E+03  0.78773836964E+02 0.  0.
         -6    2    1    2    0  502 -0.19939184569E+03  0.62982603894E+02  0.38894233325E+02  0.27369813619E+03  0.17226140558E+03 0.  0.
        -24    2    5    5    0    0 -0.98193523794E+02 -0.20821373205E+02  0.58597057846E+02  0.14075266532E+03  0.79386396252E+02 0.  0.
          5    1    3    3  501    0  0.64734496898E+02 -0.14832834935E+02  0.19572668679E+02  0.69395586603E+02  0.47000000000E+01 0. -1.
        -13    1    4    4    0    0  0.43871734140E+01 -0.29718478577E+02 -0.51024228089E+02  0.59210700989E+02  0.00000000000E+00 0.  1.
         14    1    4    4    0    0  0.13027017537E+03 -0.18431290383E+02 -0.14131476972E+03  0.19308002279E+03  0.00000000000E+00 0. -1.
         -5    1    5    5    0  502 -0.10119832189E+03  0.83803977099E+02 -0.19702824521E+02  0.13294547087E+03  0.47000000000E+01 0.  1.
         13    1    6    6    0    0 -0.34991214942E+02  0.12908545992E+02 -0.12972945200E+02  0.39488137331E+02  0.00000000000E+00 0. -1.
        -14    1    6    6    0    0 -0.63202308852E+02 -0.33729919196E+02  0.71570003046E+02  0.10126452799E+03  0.00000000000E+00 0.  1.
</event>
<event>
12    1  0.8633375E-002  0.1812854E+03  0.7818608E-02  0.1167094E+00
         21   -1    0    0  501  502  0.00000000000E+00  0.00000000000E+00  0.17043678578E+03  0.17043678578E+03  0.00000000000E+00 0. -1.
         21   -1    0    0  502  503 -0.00000000000E+00 -0.00000000000E+00 -0.55197224757E+03  0.55197224757E+03  0.00000000000E+00 0. -1.
         -6    2    1    2    0  503  0.49234828785E+02 -0.78868383451E+00 -0.48346822514E+03  0.51633896175E+03  0.17446979197E+03 0.  0.
        -24    2    3    3    0    0  0.10113094501E+03  0.76571797568E+00 -0.33913332317E+03  0.36287796679E+03  0.80255551453E+02 0.  0.
          6    2    1    2  501    0 -0.49234828785E+02  0.78868383451E+00  0.10193276335E+03  0.20607007160E+03  0.17219145094E+03 0.  0.
         24    2    5    5    0    0 -0.77203941883E+02 -0.37938804812E+02  0.32159073973E+02  0.12137917838E+03  0.79365593000E+02 0.  0.
          5    1    5    5  501    0  0.27969113098E+02  0.38727488647E+02  0.69773689381E+02  0.84690893219E+02  0.47000000000E+01 0. -1.
        -13    1    6    6    0    0 -0.22072476247E+02  0.25012563057E+02  0.88168416441E+01  0.34504481085E+02  0.00000000000E+00 0.  1.
         14    1    6    6    0    0 -0.55131465635E+02 -0.62951367870E+02  0.23342232329E+02  0.86874697294E+02  0.00000000000E+00 0. -1.
         -5    1    3    3    0  503 -0.51896116227E+02 -0.15544018102E+01 -0.14433490197E+03  0.15346099495E+03  0.47000000000E+01 0.  1.
         13    1    4    4    0    0 -0.84128677938E+00  0.59189380647E+01 -0.13013986727E+03  0.13027711481E+03  0.00000000000E+00 0. -1.
        -14    1    4    4    0    0  0.10197223179E+03 -0.51532200891E+01 -0.20899345590E+03  0.23260085198E+03  0.00000000000E+00 0.  1.
</event>
<event>
12    1  0.8633375E-002  0.1846478E+03  0.7818608E-02  0.1164079E+00
         21   -1    0    0  503  502  0.00000000000E+00  0.00000000000E+00  0.72882537292E+03  0.72882537292E+03  0.00000000000E+00 0.  1.
         21   -1    0    0  501  503 -0.00000000000E+00 -0.00000000000E+00 -0.51530142949E+02  0.51530142949E+02  0.00000000000E+00 0. -1.
          6    2    1    2  501    0  0.25425022722E+02  0.54755953936E+02  0.20876197153E+03  0.27675027224E+03  0.17136074859E+03 0.  0.
         24    2    3    3    0    0  0.37170550270E+02 -0.29625279533E+02  0.13132688063E+03  0.16152686628E+03  0.81147223979E+02 0.  0.
         -6    2    1    2    0  502 -0.25425022722E+02 -0.54755953936E+02  0.46853325844E+03  0.50360524362E+03  0.17449980192E+03 0.  0.
        -24    2    5    5    0    0  0.31820143392E+02 -0.39670501020E+00  0.35643596750E+03  0.36641985948E+03  0.78766970185E+02 0.  0.
          5    1    3    3  501    0 -0.11745527549E+02  0.84381233469E+02  0.77435090899E+02  0.11522340596E+03  0.47000000000E+01 0. -1.
        -13    1    4    4    0    0 -0.12177285614E+02 -0.29518586172E+02  0.95075993506E+02  0.10029495379E+03  0.00000000000E+00 0.  1.
         14    1    4    4    0    0  0.49347835884E+02 -0.10669336121E+00  0.36250887123E+02  0.61231912489E+02  0.00000000000E+00 0. -1.
         -5    1    5    5    0  502 -0.57245166113E+02 -0.54359248926E+02  0.11209729094E+03  0.13718538414E+03  0.47000000000E+01 0.  1.
         11    1    6    6    0    0  0.17936766388E+02  0.30823514485E+01  0.12254342184E+02  0.21940769843E+02  0.00000000000E+00 0. -1.
        -12    1    6    6    0    0  0.13883377003E+02 -0.34790564587E+01  0.34418162532E+03  0.34447908964E+03  0.00000000000E+00 0.  1.
</event>
<event>
12    1  0.8633375E-002  0.1921770E+03  0.7818608E-02  0.1156719E+00
         21   -1    0    0  501  502  0.00000000000E+00  0.00000000000E+00  0.44261390631E+03  0.44261390631E+03  0.00000000000E+00 0. -1.
         21   -1    0    0  502  503 -0.00000000000E+00 -0.00000000000E+00 -0.15170302808E+03  0.15170302808E+03  0.00000000000E+00 0. -1.
         -6    2    1    2    0  503  0.81501797466E+02 -0.24415686451E+02 -0.54271978651E+02  0.19969338266E+03  0.17231752864E+03 0.  0.
        -24    2    3    3    0    0 -0.22713377775E+02 -0.99305782428E+00 -0.42137191721E+01  0.81636863886E+02  0.78293923277E+02 0.  0.
          6    2    1    2  501    0 -0.81501797466E+02  0.24415686451E+02  0.34518285688E+03  0.39462355174E+03  0.17128302359E+03 0.  0.
         24    2    5    5    0    0 -0.79173194685E+02  0.56511814105E+02  0.14439535893E+03  0.19121929138E+03  0.79074760982E+02 0.  0.
          5    1    5    5  501    0 -0.23286027810E+01 -0.32096127654E+02  0.20078749795E+03  0.20340426036E+03  0.47000000000E+01 0. -1.
        -11    1    6    6    0    0 -0.36414117583E+02 -0.16069269562E+02  0.59797008987E+02  0.71832385923E+02  0.00000000000E+00 0.  1.
         12    1    6    6    0    0 -0.42759077102E+02  0.72581083667E+02  0.84598349946E+02  0.11938690546E+03  0.00000000000E+00 0. -1.
         -5    1    3    3    0  503  0.10421517524E+03 -0.23422628627E+02 -0.50058259479E+02  0.11805651877E+03  0.47000000000E+01 0.  1.
         13    1    4    4    0    0  0.19288504093E+02 -0.20129840271E+02  0.14980189293E+02  0.31649058923E+02  0.00000000000E+00 0. -1.
        -14    1    4    4    0    0 -0.42001881868E+02  0.19136782447E+02 -0.19193908465E+02  0.49987804963E+02  0.00000000000E+00 0.  1.
</event>
<event>
12    1  0.8633375E-002  0.2436996E+03  0.7818608E-02  0.1117766E+00
         21   -1    0    0  503  502  0.00000000000E+00  0.00000000000E+00  0.37274911614E+03  0.37274911614E+03  0.00000000000E+00 0.  1.
         21   -1    0    0  501  503 -0.00000000000E+00 -0.00000000000E+00 -0.23934550549E+03  0.23934550549E+03  0.00000000000E+00 0. -1.
          6    2    1    2  501    0  0.10675452238E+03  0.12717304860E+03 -0.11228648416E+03  0.26604100630E+03  0.17492870024E+03 0.  0.
         24    2    3    3    0    0  0.20309364992E+02  0.90419641670E+02  0.21502825500E+01  0.11791456797E+03  0.72876880543E+02 0.  0.
         -6    2    1    2    0  502 -0.10675452238E+03 -0.12717304860E+03  0.24569009481E+03  0.34605361533E+03  0.17838152834E+03 0.  0.
        -24    2    5    5    0    0 -0.70678606889E+02 -0.33777571522E+02  0.21484102866E+03  0.24118254353E+03  0.76654823064E+02 0.  0.
          5    1    3    3  501    0  0.86445157388E+02  0.36753406933E+02 -0.11443676671E+03  0.14812643833E+03  0.47000000000E+01 0. -1.
        -13    1    4    4    0    0 -0.20276148746E+02  0.42244370693E+01  0.85960456922E+01  0.22424541870E+02  0.00000000000E+00 0.  1.
         14    1    4    4    0    0  0.40585513738E+02  0.86195204601E+02 -0.64457631423E+01  0.95490026097E+02  0.00000000000E+00 0. -1.
         -5    1    5    5    0  502 -0.36075915491E+02 -0.93395477080E+02  0.30849066152E+02  0.10487107180E+03  0.47000000000E+01 0.  1.
         11    1    6    6    0    0  0.10799369119E+02  0.29413380324E+01  0.35077976413E+01  0.11729556133E+02  0.00000000000E+00 0. -1.
        -12    1    6    6    0    0 -0.81477976008E+02 -0.36718909555E+02  0.21133323102E+03  0.22945298740E+03  0.00000000000E+00 0.  1.
</event>
<event>
12    1  0.8633375E-002  0.2401689E+03  0.7818608E-02  0.1119733E+00
         21   -1    0    0  501  502  0.00000000000E+00  0.00000000000E+00  0.61318214407E+02  0.61318214407E+02  0.00000000000E+00 0. -1.
         21   -1    0    0  502  503 -0.00000000000E+00 -0.00000000000E+00 -0.10591997373E+04  0.10591997373E+04  0.00000000000E+00 0.  1.
         -6    2    1    2    0  503 -0.81926323548E+02 -0.14605694761E+03 -0.68703352982E+03  0.72769790105E+03  0.17171083151E+03 0.  0.
        -24    2    3    3    0    0  0.89840602947E+01 -0.12244380645E+03 -0.40710981287E+03  0.43239863651E+03  0.78466438961E+02 0.  0.
          6    2    1    2  501    0  0.81926323548E+02  0.14605694761E+03 -0.31084799302E+03  0.39282005061E+03  0.17215273149E+03 0.  0.
         24    2    5    5    0    0  0.11162520694E+03  0.11727269637E+03 -0.17727957253E+03  0.25291590575E+03  0.79531983562E+02 0.  0.
          5    1    5    5  501    0 -0.29698883390E+02  0.28784251235E+02 -0.13356842050E+03  0.13990414485E+03  0.47000000000E+01 0. -1.
        -13    1    6    6    0    0  0.10731742134E+03  0.61234472328E+02 -0.11188936363E+03  0.16669108919E+03  0.00000000000E+00 0.  1.
         14    1    6    6    0    0  0.43077856025E+01  0.56038224047E+02 -0.65390208901E+02  0.86224816563E+02  0.00000000000E+00 0. -1.
         -5    1    3    3    0  503 -0.90910383843E+02 -0.23613141160E+02 -0.27992371695E+03  0.29529926454E+03  0.47000000000E+01 0.  1.
         13    1    4    4    0    0 -0.29385782627E+02 -0.76959624330E+02 -0.18609921868E+03  0.20351714225E+03  0.00000000000E+00 0. -1.
        -14    1    4    4    0    0  0.38369842922E+02 -0.45484182119E+02 -0.22101059419E+03  0.22888149426E+03  0.00000000000E+00 0.  1.
</event>
<event>
12    1  0.8633375E-002  0.1906268E+03  0.7818608E-02  0.1161325E+00
         21   -1    0    0  503  502  0.00000000000E+00  0.00000000000E+00  0.93052898960E+02  0.93052898960E+02  0.00000000000E+00 0.  1.
         21   -1    0    0  501  503 -0.00000000000E+00 -0.00000000000E+00 -0.66735226050E+03  0.66735226050E+03  0.00000000000E+00 0.  1.
          6    2    1    2  501    0 -0.37867745189E+02 -0.31228331713E+02 -0.55079114069E+03  0.58284600879E+03  0.18419938783E+03 0.  0.
         24    2    3    3    0    0  0.46079621363E+01 -0.75351240351E+02 -0.46156877760E+03  0.47452363412E+03  0.80174186289E+02 0.  0.
         -6    2    1    2    0  502  0.37867745189E+02  0.31228331713E+02 -0.23508220852E+02  0.17755915067E+03  0.16901313768E+03 0.  0.
        -24    2    5    5    0    0 -0.25728132667E+02  0.12201218296E+02 -0.58581493690E+02  0.10233487803E+03  0.78929267835E+02 0.  0.
          5    1    3    3  501    0 -0.42475707326E+02  0.44122908637E+02 -0.89222363083E+02  0.10832237467E+03  0.47000000000E+01 0. -1.
        -11    1    4    4    0    0 -0.19000333684E+02 -0.22671221588E+02 -0.44221810333E+02  0.53203058912E+02  0.00000000000E+00 0.  1.
         12    1    4    4    0    0  0.23608295820E+02 -0.52680018763E+02 -0.41734696727E+03  0.42132057521E+03  0.00000000000E+00 0. -1.
         -5    1    5    5    0  502  0.63595877856E+02  0.19027113417E+02  0.35073272838E+02  0.75224272631E+02  0.47000000000E+01 0.  1.
         13    1    6    6    0    0  0.11449774558E+02 -0.20991508879E+02 -0.44544751740E+02  0.50556658217E+02  0.00000000000E+00 0. -1.
        -14    1    6    6    0    0 -0.37177907224E+02  0.33192727175E+02 -0.14036741950E+02  0.51778219818E+02  0.00000000000E+00 0.  1.
</event>
<event>
12    1  0.8633375E-002  0.2038479E+03  0.7818608E-02  0.1146928E+00
         21   -1    0    0  501  502  0.00000000000E+00  0.00000000000E+00  0.10566078642E+03  0.10566078642E+03  0.00000000000E+00 0.  1.
         21   -1    0    0  502  503 -0.00000000000E+00 -0.00000000000E+00 -0.40841605572E+03  0.40841605572E+03  0.00000000000E+00 0.  1.
         -6    2    1    2    0  503  0.85940957527E+02  0.61485499833E+02 -0.20722661059E+03  0.29068341492E+03  0.17432058026E+03 0.  0.
        -24    2    3    3    0    0  0.12787912956E+02  0.68256812684E+02 -0.18667410306E+03  0.21425230755E+03  0.78957630047E+02 0.  0.
          6    2    1    2  501    0 -0.85940957527E+02 -0.61485499833E+02 -0.95528658709E+02  0.22339342722E+03  0.17208307243E+03 0.  0.
         24    2    5    5    0    0 -0.20492071353E+02  0.27891983386E+02 -0.52960286605E+02  0.10462454446E+03  0.83328360238E+02 0.  0.
          5    1    5    5  501    0 -0.65448886174E+02 -0.89377483220E+02 -0.42568372104E+02  0.11876888276E+03  0.47000000000E+01 0. -1.
        -13    1    6    6    0    0 -0.40606519026E+02  0.29840534336E+02 -0.27120681104E+01  0.50464860946E+02  0.00000000000E+00 0.  1.
         14    1    6    6    0    0  0.20114447674E+02 -0.19485509502E+01 -0.50248218495E+02  0.54159683510E+02  0.00000000000E+00 0. -1.
         -5    1    3    3    0  503  0.73153044571E+02 -0.67713128502E+01 -0.20552507530E+02  0.76431107368E+02  0.47000000000E+01 0.  1.
         11    1    4    4    0    0 -0.10286685007E+00 -0.12909791191E+02 -0.33321811443E+01  0.13333293717E+02  0.00000000000E+00 0. -1.
        -12    1    4    4    0    0  0.12890779806E+02  0.81166603874E+02 -0.18334192192E+03  0.20091901384E+03  0.00000000000E+00 0.  1.
</event>
<event>
12    1  0.8633375E-002  0.1874133E+03  0.7818608E-02  0.1161714E+00
         21   -1    0    0  501  502  0.00000000000E+00  0.00000000000E+00  0.11036021776E+03  0.11036021776E+03  0.00000000000E+00 0.  1.
         21   -1    0    0  502  503 -0.00000000000E+00 -0.00000000000E+00 -0.32008594691E+03  0.32008594691E+03  0.00000000000E+00 0.  1.
         -6    2    1    2    0  503 -0.62662466660E+02 -0.23491777177E+01 -0.13857702036E+03  0.22998200884E+03  0.17249936363E+03 0.  0.
        -24    2    3    3    0    0  0.32709435207E+02 -0.56541817918E+01 -0.72823552196E+02  0.11399782330E+03  0.81181014037E+02 0.  0.
          6    2    1    2  501    0  0.62662466660E+02  0.23491777177E+01 -0.71148708783E+02  0.20046415583E+03  0.17661153883E+03 0.  0.
         24    2    5    5    0    0  0.29959169978E+02  0.67870507468E+02 -0.65079954450E+02  0.12683352331E+03  0.79670474548E+02 0.  0.
          5    1    5    5  501    0  0.32703296683E+02 -0.65521329750E+02 -0.60687543338E+01  0.73630632520E+02  0.47000000000E+01 0. -1.
        -13    1    6    6    0    0 -0.75433805792E+01  0.57448186187E+02 -0.66095282135E+02  0.87896433416E+02  0.00000000000E+00 0.  1.
         14    1    6    6    0    0  0.37502550557E+02  0.10422321280E+02  0.10153276857E+01  0.38937089895E+02  0.00000000000E+00 0. -1.
         -5    1    3    3    0  503 -0.95371901868E+02  0.33050040741E+01 -0.65753468167E+02  0.11598418553E+03  0.47000000000E+01 0.  1.
         13    1    4    4    0    0  0.42458154949E+02 -0.34805279594E+02 -0.58031214658E+02  0.79885695115E+02  0.00000000000E+00 0. -1.
        -14    1    4    4    0    0 -0.97487197419E+01  0.29151097802E+02 -0.14792337538E+02  0.34112128188E+02  0.00000000000E+00 0.  1.
</event>
<event>
12    1  0.8633375E-002  0.1950093E+03  0.7818608E-02  0.1154075E+00
         21   -1    0    0  503  502  0.00000000000E+00  0.00000000000E+00  0.41285297864E+02  0.41285297864E+02  0.00000000000E+00 0. -1.
         21   -1    0    0  501  503 -0.00000000000E+00 -0.00000000000E+00 -0.16463979672E+04  0.16463979672E+04  0.00000000000E+00 0. -1.
          6    2    1    2  501    0  0.55479080397E+02  0.70500129693E+02 -0.13628042319E+04  0.13766495244E+04  0.17285931262E+03 0.  0.
         24    2    3    3    0    0  0.44900921515E+02  0.10552477424E+03 -0.77842812588E+03  0.79111033149E+03  0.82180525069E+02 0.  0.
         -6    2    1    2    0  502 -0.55479080397E+02 -0.70500129693E+02 -0.24230843741E+03  0.31103374062E+03  0.17314852674E+03 0.  0.
        -24    2    5    5    0    0 -0.71892657511E+02 -0.77829865510E+02 -0.25578652895E+03  0.28807988490E+03  0.79606717815E+02 0.  0.
          5    1    3    3  501    0  0.10578158882E+02 -0.35024644550E+02 -0.58437610599E+03  0.58553919290E+03  0.47000000000E+01 0. -1.
        -11    1    4    4    0    0 -0.24038616382E+02  0.28394692724E+02 -0.17968053303E+03  0.18349170990E+03  0.00000000000E+00 0.  1.
         12    1    4    4    0    0  0.68939537897E+02  0.77130081519E+02 -0.59874759285E+03  0.60761862159E+03  0.00000000000E+00 0. -1.
         -5    1    5    5    0  502  0.16413577114E+02  0.73297358171E+01  0.13478091538E+02  0.22953855718E+02  0.47000000000E+01 0.  1.
         13    1    6    6    0    0 -0.48317302630E+02 -0.33359116161E+02 -0.21623909169E+03  0.22406859918E+03  0.00000000000E+00 0. -1.
        -14    1    6    6    0    0 -0.23575354881E+02 -0.44470749349E+02 -0.39547437265E+02  0.64011285721E+02  0.00000000000E+00 0.  1.
</event>
<event>
12    1  0.8633375E-002  0.2203490E+03  0.7818608E-02  0.1133749E+00
         21   -1    0    0  503  502  0.00000000000E+00  0.00000000000E+00  0.20178597654E+03  0.20178597654E+03  0.00000000000E+00 0.  1.
         21   -1    0    0  501  503 -0.00000000000E+00 -0.00000000000E+00 -0.48184025216E+03  0.48184025216E+03  0.00000000000E+00 0. -1.
          6    2    1    2  501    0 -0.73185180976E+02  0.11760853019E+03 -0.38213762326E+03  0.44077920090E+03  0.17049722505E+03 0.  0.
         24    2    3    3    0    0  0.17775106916E+02  0.88658621630E+02 -0.23563049649E+03  0.26585550504E+03  0.83553055422E+02 0.  0.
         -6    2    1    2    0  502  0.73185180976E+02 -0.11760853019E+03  0.10208334764E+03  0.24284702779E+03  0.17136461698E+03 0.  0.
        -24    2    5    5    0    0 -0.64578396481E+01 -0.11494379035E+03  0.70863750592E+02  0.15713317353E+03  0.80096095049E+02 0.  0.
          5    1    3    3  501    0 -0.90960287892E+02  0.28949908564E+02 -0.14650712677E+03  0.17492369586E+03  0.47000000000E+01 0. -1.
        -13    1    4    4    0    0  0.90551822790E+01 -0.86054378750E+01 -0.20182603248E+01  0.12653982056E+02  0.00000000000E+00 0.  1.
         14    1    4    4    0    0  0.87199246372E+01  0.97264059505E+02 -0.23361223616E+03  0.25320152299E+03  0.00000000000E+00 0. -1.
         -5    1    5    5    0  502  0.79643020624E+02 -0.26647398406E+01  0.31219597043E+02  0.85713854260E+02  0.47000000000E+01 0.  1.
         11    1    6    6    0    0 -0.37004011185E+02 -0.48118814218E+02  0.95765847852E+01  0.61452649265E+02  0.00000000000E+00 0. -1.
        -12    1    6    6    0    0  0.30546171537E+02 -0.66824976136E+02  0.61287165807E+02  0.95680524266E+02  0.00000000000E+00 0.  1.
</event>
<event>
12    1  0.8633375E-002  0.5352502E+03  0.7818608E-02  0.1004992E+00
         21   -1    0    0  503  502  0.00000000000E+00  0.00000000000E+00  0.12394637146E+03  0.12394637146E+03  0.00000000000E+00 0.  1.
         21   -1    0    0  501  503 -0.00000000000E+00 -0.00000000000E+00 -0.31062881128E+04  0.31062881128E+04  0.00000000000E+00 0. -1.
          6    2    1    2  501    0 -0.50469509085E+03 -0.48900291060E+02 -0.23095685607E+04  0.23707804012E+04  0.17141878800E+03 0.  0.
         24    2    3    3    0    0 -0.25903499312E+03  0.17737936434E+02 -0.97248721821E+03  0.10096785889E+04  0.79408445681E+02 0.  0.
         -6    2    1    2    0  502  0.50469509085E+03  0.48900291060E+02 -0.67277318064E+03  0.85945408307E+03  0.17008584632E+03 0.  0.
        -24    2    5    5    0    0  0.35722100717E+03  0.88692924639E+01 -0.37296864544E+03  0.52291889096E+03  0.81566192265E+02 0.  0.
          5    1    3    3  501    0 -0.24566009773E+03 -0.66638227493E+02 -0.13370813425E+04  0.13611018123E+04  0.47000000000E+01 0. -1.
        -13    1    4    4    0    0 -0.14035367104E+03 -0.21656630010E+02 -0.60697632701E+03  0.62336861018E+03  0.00000000000E+00 0.  1.
         14    1    4    4    0    0 -0.11868132208E+03  0.39394566444E+02 -0.36551089120E+03  0.38630997872E+03  0.00000000000E+00 0. -1.
         -5    1    5    5    0  502  0.14747408368E+03  0.40030998596E+02 -0.29980453519E+03  0.33653519211E+03  0.47000000000E+01 0.  1.
         13    1    6    6    0    0  0.33996684095E+03  0.11563994829E+02 -0.37383479167E+03  0.50543410093E+03  0.00000000000E+00 0. -1.
        -14    1    6    6    0    0  0.17254166224E+02 -0.26947023646E+01  0.86614622728E+00  0.17484790024E+02  0.00000000000E+00 0.  1.
</event>
<event>
12    1  0.8633375E-002  0.2525284E+03  0.7818608E-02  0.1111996E+00
         21   -1    0    0  501  502  0.00000000000E+00  0.00000000000E+00  0.95730903095E+03  0.95730903095E+03  0.00000000000E+00 0. -1.
         21   -1    0    0  502  503 -0.00000000000E+00 -0.00000000000E+00 -0.68641309579E+02  0.68641309579E+02  0.00000000000E+00 0. -1.
         -6    2    1    2    0  503 -0.15135077826E+03 -0.10607025254E+03  0.34502357333E+03  0.42651763254E+03  0.16946406156E+03 0.  0.
        -24    2    3    3    0    0 -0.85347200410E+02  0.77967055233E+01  0.19891667473E+03  0.22981615251E+03  0.76828947892E+02 0.  0.
          6    2    1    2  501    0  0.15135077826E+03  0.10607025254E+03  0.54364414803E+03  0.59943270798E+03  0.17208327971E+03 0.  0.
         24    2    5    5    0    0  0.51560864968E+02 -0.67625714046E+01  0.14402452358E+03  0.17234114028E+03  0.79083184515E+02 0.  0.
          5    1    5    5  501    0  0.99789913290E+02  0.11283282394E+03  0.39961962445E+03  0.42709156770E+03  0.47000000000E+01 0. -1.
        -11    1    6    6    0    0  0.16539282913E+02  0.18831306898E+02  0.35395520869E+01  0.25311942394E+02  0.00000000000E+00 0.  1.
         12    1    6    6    0    0  0.35021582055E+02 -0.25593878303E+02  0.14048497149E+03  0.14702919789E+03  0.00000000000E+00 0. -1.
         -5    1    3    3    0  503 -0.66003577848E+02 -0.11386695806E+03  0.14610689860E+03  0.19670148003E+03  0.47000000000E+01 0.  1.
         11    1    4    4    0    0 -0.52263434258E+02 -0.32944503113E+02  0.93657187899E+02  0.11219837651E+03  0.00000000000E+00 0. -1.
        -12    1    4    4    0    0 -0.33083766152E+02  0.40741208636E+02  0.10525948684E+03  0.11761777601E+03  0.00000000000E+00 0.  1.
</event>
<event>
12    1  0.8633375E-002  0.1999801E+03  0.7818608E-02  0.1150128E+00
         21   -1    0    0  501  502  0.00000000000E+00  0.00000000000E+00  0.52203091661E+02  0.52203091661E+02  0.00000000000E+00 0. -1.
         21   -1    0    0  502  503 -0.00000000000E+00 -0.00000000000E+00 -0.75939418395E+03  0.75939418395E+03  0.00000000000E+00 0.  1.
         -6    2    1    2    0  503 -0.98378805304E+02  0.13227112459E+02 -0.35288322670E+03  0.40560894085E+03  0.17360499813E+03 0.  0.
        -24    2    3    3    0    0 -0.69679202210E+02  0.75646597099E+02 -0.25087815654E+03  0.28253585842E+03  0.79429610299E+02 0.  0.
          6    2    1    2  501    0  0.98378805304E+02 -0.13227112459E+02 -0.35430786558E+03  0.40598833475E+03  0.17157831595E+03 0.  0.
         24    2    5    5    0    0 -0.69129055282E+01  0.21607173385E+02 -0.11372264266E+03  0.14102963735E+03  0.80261204531E+02 0.  0.
          5    1    5    5  501    0  0.10529171083E+03 -0.34834285844E+02 -0.24058522293E+03  0.26495869741E+03  0.47000000000E+01 0. -1.
        -13    1    6    6    0    0 -0.32475497069E+02 -0.16134068103E+01 -0.97681812747E+02  0.10295143288E+03  0.00000000000E+00 0.  1.
         14    1    6    6    0    0  0.25562591541E+02  0.23220580195E+02 -0.16040829911E+02  0.38078204463E+02  0.00000000000E+00 0. -1.
         -5    1    3    3    0  503 -0.28699603094E+02 -0.62419484641E+02 -0.10200507016E+03  0.12307308243E+03  0.47000000000E+01 0.  1.
         11    1    4    4    0    0  0.71684563821E+00  0.22857170477E+02 -0.80280634617E+01  0.24236623379E+02  0.00000000000E+00 0. -1.
        -12    1    4    4    0    0 -0.70396047848E+02  0.52789426622E+02 -0.24285009308E+03  0.25829923504E+03  0.00000000000E+00 0.  1.
</event>
<event>
12    1  0.8633375E-002  0.2393697E+03  0.7818608E-02  0.1120224E+00
         21   -1    0    0  501  502  0.00000000000E+00  0.00000000000E+00  0.13261517280E+04  0.13261517280E+04  0.00000000000E+00 0.  1.
         21   -1    0    0  502  503 -0.00000000000E+00 -0.00000000000E+00 -0.59353206013E+02  0.59353206013E+02  0.00000000000E+00 0. -1.
         -6    2    1    2    0  503 -0.10093547081E+03 -0.13178286086E+03  0.27187446545E+03  0.36219083380E+03  0.17237106324E+03 0.  0.
        -24    2    3    3    0    0 -0.10406431028E+03 -0.11707925918E+03  0.12830589354E+03  0.21776088407E+03  0.80127814836E+02 0.  0.
          6    2    1    2  501    0  0.10093547081E+03  0.13178286086E+03  0.99492405650E+03  0.10233141002E+04  0.17246210520E+03 0.  0.
         24    2    5    5    0    0  0.13476702665E+03  0.85280087119E+02  0.81327667078E+03  0.83272305927E+03  0.81079624227E+02 0.  0.
          5    1    5    5  501    0 -0.33831555844E+02  0.46502773739E+02  0.18164738571E+03  0.19059104090E+03  0.47000000000E+01 0. -1.
        -13    1    6    6    0    0  0.26356827278E+02  0.38144821879E+02  0.10688175154E+03  0.11650501531E+03  0.00000000000E+00 0.  1.
         14    1    6    6    0    0  0.10841019938E+03  0.47135265240E+02  0.70639491924E+03  0.71621804395E+03  0.00000000000E+00 0. -1.
         -5    1    3    3    0  503  0.31288394700E+01 -0.14703601682E+02  0.14356857191E+03  0.14442994973E+03  0.47000000000E+01 0.  1.
         13    1    4    4    0    0 -0.87251852648E+02 -0.44253476046E+02  0.51376911841E+02  0.11050268324E+03  0.00000000000E+00 0. -1.
        -14    1    4    4    0    0 -0.16812457631E+02 -0.72825783130E+02  0.76928981699E+02  0.10725820083E+03  0.00000000000E+00 0.  1.
</event>
<event>
12    1  0.8633375E-002  0.1825304E+03  0.7818608E-02  0.1165578E+00
         21   -1    0    0  503  502  0.00000000000E+00  0.00000000000E+00  0.25331975706E+02  0.25331975706E+02  0.00000000000E+00 0.  1.
         21   -1    0    0  501  503 -0.00000000000E+00 -0.00000000000E+00 -0.17593653651E+04  0.17593653651E+04  0.00000000000E+00 0.  1.
          6    2    1    2  501    0 -0.59321808246E+02 -0.71683832190E+01 -0.13169313679E+04  0.13294046560E+04  0.17157519940E+03 0.  0.
         24    2    3    3    0    0 -0.44001920392E+02 -0.46324966244E+02 -0.12115946317E+04  0.12158887763E+04  0.79635376902E+02 0.  0.
         -6    2    1    2    0  502  0.59321808246E+02  0.71683832190E+01 -0.41710202148E+03  0.45529268477E+03  0.17247280896E+03 0.  0.
        -24    2    5    5    0    0 -0.84618263941E+01  0.54971939823E+02 -0.20575097831E+03  0.22819985221E+03  0.81536438483E+02 0.  0.
          5    1    3    3  501    0 -0.15319887854E+02  0.39156583025E+02 -0.10533673620E+03  0.11351587973E+03  0.47000000000E+01 0. -1.
        -11    1    4    4    0    0 -0.24840017664E+02 -0.51884672676E+02 -0.40681835332E+03  0.41086520701E+03  0.00000000000E+00 0.  1.
         12    1    4    4    0    0 -0.19161902728E+02  0.55597064325E+01 -0.80477627835E+03  0.80502356925E+03  0.00000000000E+00 0. -1.
         -5    1    5    5    0  502  0.67783634640E+02 -0.47803556604E+02 -0.21135104318E+03  0.22709283256E+03  0.47000000000E+01 0.  1.
         13    1    6    6    0    0 -0.12631332610E+02 -0.10591094890E+02 -0.11494645163E+03  0.11612238629E+03  0.00000000000E+00 0. -1.
        -14    1    6    6    0    0  0.41695062163E+01  0.65563034713E+02 -0.90804526676E+02  0.11207746592E+03  0.00000000000E+00 0.  1.
</event>
<event>
12    1  0.8633375E-002  0.1982970E+03  0.7818608E-02  0.1151462E+00
         21   -1    0    0  503  502  0.00000000000E+00  0.00000000000E+00  0.11406745477E+03  0.11406745477E+03  0.00000000000E+00 0. -1.
         21   -1    0    0  501  503 -0.00000000000E+00 -0.00000000000E+00 -0.97970364318E+03  0.97970364318E+03  0.00000000000E+00 0. -1.
          6    2    1    2  501    0  0.94852562155E+02 -0.66491362231E+01 -0.87437450579E+03  0.89657820104E+03  0.17401285767E+03 0.  0.
         24    2    3    3    0    0 -0.17804082234E+02  0.17740314076E+02 -0.36793009896E+03  0.37716084282E+03  0.79031889412E+02 0.  0.
         -6    2    1    2    0  502 -0.94852562155E+02  0.66491362231E+01  0.87383173805E+01  0.19719289691E+03  0.17253249213E+03 0.  0.
        -24    2    5    5    0    0  0.12030812940E+01 -0.37372055027E+02 -0.14400113925E+02  0.88924577809E+02  0.79385762930E+02 0.  0.
          5    1    3    3  501    0  0.11265664439E+03 -0.24389450299E+02 -0.50644440683E+03  0.51941735822E+03  0.47000000000E+01 0. -1.
        -13    1    4    4    0    0  0.62544530100E+01  0.37413143028E+02 -0.92391806366E+02  0.99875459134E+02  0.00000000000E+00 0.  1.
         14    1    4    4    0    0 -0.24058535244E+02 -0.19672828952E+02 -0.27553829260E+03  0.27728538369E+03  0.00000000000E+00 0. -1.
         -5    1    5    5    0  502 -0.96055643449E+02  0.44021191250E+02  0.23138431306E+02  0.10826831910E+03  0.47000000000E+01 0.  1.
         11    1    6    6    0    0 -0.15820179759E+02 -0.39641274521E+02  0.22481645183E+02  0.48240367986E+02  0.00000000000E+00 0. -1.
        -12    1    6    6    0    0  0.17023261053E+02  0.22692194945E+01 -0.36881759108E+02  0.40684209823E+02  0.00000000000E+00 0.  1.
</event>
<event>
12    1  0.8633375E-002  0.1851014E+03  0.7818608E-02  0.1163379E+00
         21   -1    0    0  501  502  0.00000000000E+00  0.00000000000E+00  0.62170730405E+03  0.62170730405E+03  0.00000000000E+00 0. -1.
         21   -1    0    0  502  503 -0.00000000000E+00 -0.00000000000E+00 -0.10488113880E+03  0.10488113880E+03  0.00000000000E+00 0. -1.
         -6    2    1    2    0  503 -0.61898419466E+02 -0.32956004706E+02  0.61460849093E+01  0.18339723673E+03  0.16934951875E+03 0.  0.
        -24    2    3    3    0    0 -0.39645222514E+02  0.17076307521E+01 -0.58982306243E+02  0.10619251063E+03  0.78887750595E+02 0.  0.
          6    2    1    2  501    0  0.61898419466E+02  0.32956004706E+02  0.51068008033E+03  0.54319120612E+03  0.17130390941E+03 0.  0.
         24    2    5    5    0    0  0.60642923950E+02  0.81770264248E+02  0.30264610238E+03  0.32945156500E+03  0.81115535223E+02 0.  0.
          5    1    5    5  501    0  0.12554955158E+01 -0.48814259541E+02  0.20803397795E+03  0.21373964111E+03  0.47000000000E+01 0. -1.
        -11    1    6    6    0    0  0.66129840738E+02  0.32097850848E+02  0.22852920109E+03  0.24006045826E+03  0.00000000000E+00 0.  1.
         12    1    6    6    0    0 -0.54869167880E+01  0.49672413400E+02  0.74116901290E+02  0.89391106748E+02  0.00000000000E+00 0. -1.
         -5    1    3    3    0  503 -0.22253196952E+02 -0.34663635458E+02  0.65128391153E+02  0.77204726098E+02  0.47000000000E+01 0.  1.
         11    1    4    4    0    0  0.22887160330E+02 -0.94682770114E+01 -0.15689758894E+02  0.29319599446E+02  0.00000000000E+00 0. -1.
        -12    1    4    4    0    0 -0.62532382844E+02  0.11175907764E+02 -0.43292547349E+02  0.76872911188E+02  0.00000000000E+00 0.  1.
</event>
<event>
12    1  0.8633375E-002  0.2434283E+03  0.7818608E-02  0.1117537E+00
         21   -1    0    0  503  502  0.00000000000E+00  0.00000000000E+00  0.23916006894E+03  0.23916006894E+03  0.00000000000E+00 0. -1.
         21   -1    0    0  501  503 -0.00000000000E+00 -0.00000000000E+00 -0.24803088177E+03  0.24803088177E+03  0.00000000000E+00 0. -1.
          6    2    1    2  501    0 -0.16953887143E+03 -0.32455195653E+02  0.40857447086E+01  0.24341813515E+03  0.17157775660E+03 0.  0.
         24    2    3    3    0    0 -0.44262714085E+02 -0.44373118800E+02 -0.40719445364E+02  0.10975532226E+03  0.80374100330E+02 0.  0.
         -6    2    1    2    0  502  0.16953887143E+03  0.32455195653E+02 -0.12956557532E+02  0.24377281556E+03  0.17164074275E+03 0.  0.
        -24    2    5    5    0    0  0.11932199538E+03  0.68738105717E+02 -0.55455508552E+02  0.16849708879E+03  0.79707526263E+02 0.  0.
          5    1    3    3  501    0 -0.12527615735E+03  0.11917923147E+02  0.44805190072E+02  0.13366281289E+03  0.47000000000E+01 0. -1.
        -13    1    4    4    0    0  0.24155544152E+01 -0.47112604046E+02 -0.41734498165E+02  0.62985718225E+02  0.00000000000E+00 0.  1.
         14    1    4    4    0    0 -0.46678268500E+02  0.27394852464E+01  0.10150528015E+01  0.46769604037E+02  0.00000000000E+00 0. -1.
         -5    1    5    5    0  502  0.50216876049E+02 -0.36282910064E+02  0.42498951020E+02  0.75275726769E+02  0.47000000000E+01 0.  1.
         13    1    6    6    0    0  0.41095987099E+02 -0.12408548953E+02 -0.31555700791E+02  0.53278649525E+02  0.00000000000E+00 0. -1.
        -14    1    6    6    0    0  0.78226008283E+02  0.81146654670E+02 -0.23899807761E+02  0.11521843927E+03  0.00000000000E+00 0.  1.
</event>
<event>
12    1  0.8633375E-002  0.2893889E+03  0.7818608E-02  0.1091122E+00
         21   -1    0    0  501  502  0.00000000000E+00  0.00000000000E+00  0.20905037264E+03  0.20905037264E+03  0.00000000000E+00 0.  1.
         21   -1    0    0  502  503 -0.00000000000E+00 -0.00000000000E+00 -0.55452565697E+03  0.55452565697E+03  0.00000000000E+00 0. -1.
         -6    2    1    2    0  503 -0.22151160994E+03  0.51802038269E+02 -0.37769721261E+03  0.47581628336E+03  0.17887176018E+03 0.  0.
        -24    2    3    3    0    0 -0.18305060049E+03  0.97010968383E+02 -0.24577061968E+03  0.33107578270E+03  0.79305271350E+02 0.  0.
          6    2    1    2  501    0  0.22151160994E+03 -0.51802038269E+02  0.32221928281E+02  0.28775974625E+03  0.17325292031E+03 0.  0.
         24    2    5    5    0    0  0.24371411500E+03 -0.56377936434E+02  0.28030722010E+02  0.26423218188E+03  0.80360954455E+02 0.  0.
          5    1    5    5  501    0 -0.22202505062E+02  0.45758981653E+01  0.41912062710E+01  0.23527564367E+02  0.47000000000E+01 0. -1.
        -11    1    6    6    0    0  0.18977894803E+03 -0.74608234935E+01  0.20672025279E+02  0.19104723403E+03  0.00000000000E+00 0.  1.
         12    1    6    6    0    0  0.53935166967E+02 -0.48917112940E+02  0.73586967310E+01  0.73184947850E+02  0.00000000000E+00 0. -1.
         -5    1    3    3    0  503 -0.38461009450E+02 -0.45208930114E+02 -0.13192659293E+03  0.14474050066E+03  0.47000000000E+01 0.  1.
         11    1    4    4    0    0 -0.15388219846E+03  0.56652119340E+02 -0.14594788524E+03  0.21952216023E+03  0.00000000000E+00 0. -1.
        -12    1    4    4    0    0 -0.29168402031E+02  0.40358849043E+02 -0.99822734444E+02  0.11155362246E+03  0.00000000000E+00 0.  1.
</event>
<event>
12    1  0.8633375E-002  0.1785785E+03  0.7818608E-02  0.1169243E+00
         21   -1    0    0  501  502  0.00000000000E+00  0.00000000000E+00  0.59057386012E+03  0.59057386012E+03  0.00000000000E+00 0. -1.
         21   -1    0    0  502  503 -0.00000000000E+00 -0.00000000000E+00 -0.10018176154E+04  0.10018176154E+04  0.00000000000E+00 0. -1.
         -6    2    1    2    0  503 -0.43101731241E+02  0.20029954103E+02 -0.98009866555E+03  0.99623475420E+03  0.17213754084E+03 0.  0.
        -24    2    3    3    0    0 -0.64342082858E+02 -0.20833581872E+02 -0.87759505365E+03  0.88376226173E+03  0.79301420632E+02 0.  0.
          6    2    1    2  501    0  0.43101731241E+02 -0.20029954103E+02  0.56885491023E+03  0.59615672137E+03  0.17189522749E+03 0.  0.
         24    2    5    5    0    0  0.68855923995E+02  0.41344983607E+02  0.34509305630E+03  0.36265807320E+03  0.77337666151E+02 0.  0.
          5    1    5    5  501    0 -0.25754192754E+02 -0.61374937711E+02  0.22376185393E+03  0.23349864817E+03  0.47000000000E+01 0. -1.
        -11    1    6    6    0    0  0.33864978853E+02 -0.19867376913E+02  0.94423421027E+02  0.10226109669E+03  0.00000000000E+00 0.  1.
         12    1    6    6    0    0  0.34990945142E+02  0.61212360520E+02  0.25066963528E+03  0.26039697650E+03  0.00000000000E+00 0. -1.
         -5    1    3    3    0  503  0.21240351617E+02  0.40863535976E+02 -0.10250361191E+03  0.11247249247E+03  0.47000000000E+01 0.  1.
         13    1    4    4    0    0 -0.11315497151E+02  0.28916471505E+02 -0.30225661403E+03  0.30384743462E+03  0.00000000000E+00 0. -1.
        -14    1    4    4    0    0 -0.53026585707E+02 -0.49750053377E+02 -0.57533843961E+03  0.57991482711E+03  0.00000000000E+00 0.  1.
</event>
<event>
12    1  0.8633375E-002  0.2127463E+03  0.7818608E-02  0.1140300E+00
         21   -1    0    0  501  502  0.00000000000E+00  0.00000000000E+00  0.43754799309E+03  0.43754799309E+03  0.00000000000E+00 0. -1.
         21   -1    0    0  502  503 -0.00000000000E+00 -0.00000000000E+00 -0.11017531909E+03  0.11017531909E+03  0.00000000000E+00 0.  1.
         -6    2    1    2    0  503 -0.77239365117E+02 -0.90836915220E+02  0.84151112453E+02  0.22458598271E+03  0.17070497711E+03 0.  0.
        -24    2    3    3    0    0 -0.12082255206E+02 -0.98725742853E+02  0.12554091436E+02  0.12734449983E+03  0.78525557829E+02 0.  0.
          6    2    1    2  501    0  0.77239365117E+02  0.90836915220E+02  0.24322156154E+03  0.32313732948E+03  0.17619234096E+03 0.  0.
         24    2    5    5    0    0  0.10031879651E+03  0.12087507067E+03  0.20571035859E+03  0.26961975028E+03  0.75520953831E+02 0.  0.
          5    1    5    5  501    0 -0.23079431393E+02 -0.30038155448E+02  0.37511202957E+02  0.53517579200E+02  0.47000000000E+01 0. -1.
        -13    1    6    6    0    0  0.64443336503E+02  0.60622459459E+02  0.57117013606E+02  0.10531087054E+03  0.00000000000E+00 0.  1.
         14    1    6    6    0    0  0.35875460007E+02  0.60252611208E+02  0.14859334498E+03  0.16430887974E+03  0.00000000000E+00 0. -1.
         -5    1    3    3    0  503 -0.65157109912E+02  0.78888276338E+01  0.71597021017E+02  0.97241482876E+02  0.47000000000E+01 0.  1.
         13    1    4    4    0    0  0.17952034957E+02 -0.91689033363E+02 -0.15099013141E+01  0.93442143598E+02  0.00000000000E+00 0. -1.
        -14    1    4    4    0    0 -0.30034290163E+02 -0.70367094903E+01  0.14063992751E+02  0.33902356233E+02  0.00000000000E+00 0.  1.
</event>
<event>
12    1  0.8633375E-002  0.2153549E+03  0.7818608E-02  0.1139071E+00
         21   -1    0    0  501  502  0.00000000000E+00  0.00000000000E+00  0.18465567873E+03  0.18465567873E+03  0.00000000000E+00 0. -1.
         21   -1    0    0  502  503 -0.00000000000E+00 -0.00000000000E+00 -0.24312013439E+03  0.24312013439E+03  0.00000000000E+00 0.  1.
         -6    2    1    2    0  503  0.10492713772E+03 -0.45761751974E+02 -0.47291435434E+02  0.21213122775E+03  0.17221886002E+03 0.  0.
        -24    2    3    3    0    0  0.68767922800E+02  0.37853076358E+02 -0.45261188944E+02  0.12088902128E+03  0.80023106944E+02 0.  0.
          6    2    1    2  501    0 -0.10492713772E+03  0.45761751974E+02 -0.11173020234E+02  0.21564458537E+03  0.18241137203E+03 0.  0.
         24    2    5    5    0    0 -0.10345869938E+03 -0.32050248229E+02  0.20168392959E+02  0.13161341338E+03  0.72002816725E+02 0.  0.
          5    1    5    5  501    0 -0.14684383353E+01  0.77812000202E+02 -0.31341413193E+02  0.84031171999E+02  0.47000000000E+01 0. -1.
        -13    1    6    6    0    0 -0.46079071239E+02  0.20298424524E+02 -0.33404031870E+01  0.50462512203E+02  0.00000000000E+00 0.  1.
         14    1    6    6    0    0 -0.57379628143E+02 -0.52348672752E+02  0.23508796146E+02  0.81150901172E+02  0.00000000000E+00 0. -1.
         -5    1    3    3    0  503  0.36159214918E+02 -0.83614828332E+02 -0.20302464899E+01  0.91242206468E+02  0.47000000000E+01 0.  1.
         13    1    4    4    0    0  0.43872620436E+02  0.72571679814E+01  0.16646973044E+02  0.47482575989E+02  0.00000000000E+00 0. -1.
        -14    1    4    4    0    0  0.24895302365E+02  0.30595908377E+02 -0.61908161989E+02  0.73406445289E+02  0.00000000000E+00 0.  1.
</event>
<event>
12    1  0.8633375E-002  0.1925313E+03  0.7818608E-02  0.1156387E+00
         21   -1    0    0  503  502  0.00000000000E+00  0.00000000000E+00  0.33032052408E+02  0.33032052408E+02  0.00000000000E+00 0.  1.
         21   -1    0    0  501  503 -0.00000000000E+00 -0.00000000000E+00 -0.11714432665E+04  0.11714432665E+04  0.00000000000E+00 0. -1.
          6    2    1    2  501    0 -0.71203542075E+02 -0.46876388496E+02 -0.43843599257E+03  0.47850450347E+03  0.17167731376E+03 0.  0.
         24    2    3    3    0    0 -0.82145650972E+02 -0.44283501533E+02 -0.16933435001E+03  0.20912700471E+03  0.79693447185E+02 0.  0.
         -6    2    1    2    0  502  0.71203542075E+02  0.46876388496E+02 -0.69997522149E+03  0.72597081540E+03  0.17262958587E+03 0.  0.
        -24    2    5    5    0    0  0.46726853556E+02 -0.40627077788E+02 -0.35828915851E+03  0.37237864846E+03  0.80378967571E+02 0.  0.
          5    1    3    3  501    0  0.10942108897E+02 -0.25928869625E+01 -0.26910164256E+03  0.26937749876E+03  0.47000000000E+01 0. -1.
        -13    1    4    4    0    0 -0.97145516642E+02 -0.43989967240E+02 -0.15652276121E+03  0.18939837222E+03  0.00000000000E+00 0.  1.
         14    1    4    4    0    0  0.14999865670E+02 -0.29353429359E+00 -0.12811588797E+02  0.19728632492E+02  0.00000000000E+00 0. -1.
         -5    1    5    5    0  502  0.24476688519E+02  0.87503466284E+02 -0.34168606297E+03  0.35359216694E+03  0.47000000000E+01 0.  1.
         13    1    6    6    0    0  0.11606066408E+02 -0.49743155659E+02 -0.29530822501E+03  0.29969322660E+03  0.00000000000E+00 0. -1.
        -14    1    6    6    0    0  0.35120787148E+02  0.91160778715E+01 -0.62980933498E+02  0.72685421853E+02  0.00000000000E+00 0.  1.
</event>
<event>
12    1  0.8633375E-002  0.2196935E+03  0.7818608E-02  0.1134573E+00
         21   -1    0    0  501  502  0.00000000000E+00  0.00000000000E+00  0.66647147236E+02  0.66647147236E+02  0.00000000000E+00 0. -1.
         21   -1    0    0  502  503 -0.00000000000E+00 -0.00000000000E+00 -0.81643968012E+03  0.81643968012E+03  0.00000000000E+00 0. -1.
         -6    2    1    2    0  503  0.74235656957E+02 -0.10997895041E+03 -0.53152382308E+03  0.57513722508E+03  0.17509697565E+03 0.  0.
        -24    2    3    3    0    0  0.69012569463E+01 -0.17681273307E+02 -0.10609409121E+03  0.13460875905E+03  0.80643084339E+02 0.  0.
          6    2    1    2  501    0 -0.74235656957E+02  0.10997895041E+03 -0.21826870981E+03  0.30794960227E+03  0.17200414402E+03 0.  0.
         24    2    5    5    0    0 -0.89381799128E+02  0.54119858068E+02 -0.21233101260E+03  0.24958017476E+03  0.79295268898E+02 0.  0.
          5    1    5    5  501    0  0.15146142171E+02  0.55859092345E+02 -0.59376972127E+01  0.58369427516E+02  0.47000000000E+01 0. -1.
        -13    1    6    6    0    0 -0.51857340358E+02  0.14683406736E+02 -0.35443976508E+02  0.64506291578E+02  0.00000000000E+00 0.  1.
         14    1    6    6    0    0 -0.37524458770E+02  0.39436451332E+02 -0.17688703609E+03  0.18507388318E+03  0.00000000000E+00 0. -1.
         -5    1    3    3    0  503  0.67334400010E+02 -0.92297677107E+02 -0.42542973187E+03  0.44052846603E+03  0.47000000000E+01 0.  1.
         13    1    4    4    0    0 -0.55651637740E+01 -0.48506357628E+02 -0.53925708852E+02  0.72744895720E+02  0.00000000000E+00 0. -1.
        -14    1    4    4    0    0  0.12466420720E+02  0.30825084321E+02 -0.52168382356E+02  0.61863863334E+02  0.00000000000E+00 0.  1.
</event>
<event>
12    1  0.8633375E-002  0.2128626E+03  0.7818608E-02  0.1139573E+00
         21   -1    0    0  503  502  0.00000000000E+00  0.00000000000E+00  0.24015831275E+03  0.24015831275E+03  0.00000000000E+00 0.  1.
         21   -1    0    0  501  503 -0.00000000000E+00 -0.00000000000E+00 -0.36266381876E+03  0.36266381876E+03  0.00000000000E+00 0.  1.
          6    2    1    2  501    0  0.12282934210E+03  0.27350929609E+02 -0.27061809837E+03  0.34350031021E+03  0.17006818433E+03 0.  0.
         24    2    3    3    0    0  0.25451663665E+02  0.50183058486E+02 -0.19792877028E+03  0.21976855688E+03  0.77177029900E+02 0.  0.
         -6    2    1    2    0  502 -0.12282934210E+03 -0.27350929609E+02  0.14811259236E+03  0.25932182130E+03  0.17168385585E+03 0.  0.
        -24    2    5    5    0    0 -0.67867660558E+02  0.51612309834E+02  0.86666271420E+02  0.14506894398E+03  0.79146105578E+02 0.  0.
          5    1    3    3  501    0  0.97377678431E+02 -0.22832128877E+02 -0.72689328081E+02  0.12373175333E+03  0.47000000000E+01 0. -1.
        -11    1    4    4    0    0  0.51034533547E+02  0.34278077855E+02 -0.15951489498E+03  0.17095178255E+03  0.00000000000E+00 0.  1.
         12    1    4    4    0    0 -0.25582869881E+02  0.15904980631E+02 -0.38413875306E+02  0.48816774333E+02  0.00000000000E+00 0. -1.
         -5    1    5    5    0  502 -0.54961681538E+02 -0.78963239443E+02  0.61446320937E+02  0.11425287733E+03  0.47000000000E+01 0.  1.
         11    1    6    6    0    0 -0.22307247515E+01  0.48966524351E+02  0.25242324049E+02  0.55135030274E+02  0.00000000000E+00 0. -1.
        -12    1    6    6    0    0 -0.65636935807E+02  0.26457854827E+01  0.61423947371E+02  0.89933913701E+02  0.00000000000E+00 0.  1.
</event>
<event>
12    1  0.8633375E-002  0.1871362E+03  0.7818608E-02  0.1163084E+00
         21   -1    0    0  503  502  0.00000000000E+00  0.00000000000E+00  0.19166892668E+03  0.19166892668E+03  0.00000000000E+00 0. -1.
         21   -1    0    0  501  503 -0.00000000000E+00 -0.00000000000E+00 -0.44428581586E+03  0.44428581586E+03  0.00000000000E+00 0. -1.
          6    2    1    2  501    0  0.14970534099E+02  0.72713130787E+02 -0.37292387096E+03  0.41348287989E+03  0.16243325446E+03 0.  0.
         24    2    3    3    0    0  0.52741906280E+02  0.77658699140E+01 -0.27117268277E+03  0.28691188183E+03  0.77082985443E+02 0.  0.
         -6    2    1    2    0  502 -0.14970534099E+02 -0.72713130787E+02  0.12030698178E+03  0.22247186265E+03  0.17178080081E+03 0.  0.
        -24    2    5    5    0    0 -0.63270405099E+02 -0.89462788514E+02  0.91048860220E+02  0.16338247063E+03  0.79982511032E+02 0.  0.
          5    1    3    3  501    0 -0.37771372181E+02  0.64947260873E+02 -0.10175118819E+03  0.12657099806E+03  0.47000000000E+01 0. -1.
        -13    1    4    4    0    0  0.54602668942E+02 -0.25464572843E+02 -0.16575540388E+03  0.17636538731E+03  0.00000000000E+00 0.  1.
         14    1    4    4    0    0 -0.18607626616E+01  0.33230442757E+02 -0.10541727889E+03  0.11054649453E+03  0.00000000000E+00 0. -1.
         -5    1    5    5    0  502  0.48299871001E+02  0.16749657727E+02  0.29258121555E+02  0.59089392023E+02  0.47000000000E+01 0.  1.
         11    1    6    6    0    0 -0.38475419588E+02 -0.25841215684E+02 -0.38091686804E+01  0.46504151498E+02  0.00000000000E+00 0. -1.
        -12    1    6    6    0    0 -0.24794985512E+02 -0.63621572830E+02  0.94858028901E+02  0.11687831913E+03  0.00000000000E+00 0.  1.
</event>
<event>
12    1  0.8633375E-002  0.3023772E+03  0.7818608E-02  0.1084176E+00
         21   -1    0    0  503  502  0.00000000000E+00  0.00000000000E+00  0.15462725770E+04  0.15462725770E+04  0.00000000000E+00 0. -1.
         21   -1    0    0  501  503 -0.00000000000E+00 -0.00000000000E+00 -0.18020228760E+03  0.18020228760E+03  0.00000000000E+00 0.  1.
          6    2    1    2  501    0  0.90525361469E+02  0.23126435521E+03 -0.25435039943E+02  0.30249485018E+03  0.17081612941E+03 0.  0.
         24    2    3    3    0    0  0.36911737225E+02  0.67146298552E+02 -0.59557416520E+02  0.12643922314E+03  0.81047452349E+02 0.  0.
         -6    2    1    2    0  502 -0.90525361469E+02 -0.23126435521E+03  0.13915053293E+04  0.14239800144E+04  0.17249335294E+03 0.  0.
        -24    2    5    5    0    0 -0.34329222617E+02 -0.19920331044E+03  0.80162010559E+03  0.83053870829E+03  0.79619707795E+02 0.  0.
          5    1    3    3  501    0  0.53613624244E+02  0.16411805666E+03  0.34122376577E+02  0.17605562703E+03  0.47000000000E+01 0. -1.
        -13    1    4    4    0    0  0.49470841774E+02  0.74228259458E+02 -0.30978377412E+02  0.94429119212E+02  0.00000000000E+00 0.  1.
         14    1    4    4    0    0 -0.12559104549E+02 -0.70819609063E+01 -0.28579039108E+02  0.32010103931E+02  0.00000000000E+00 0. -1.
         -5    1    5    5    0  502 -0.56196138851E+02 -0.32061044774E+02  0.58988522375E+03  0.59344130612E+03  0.47000000000E+01 0.  1.
         11    1    6    6    0    0 -0.14157475250E+02 -0.17979730558E+03  0.75428239305E+03  0.77554460456E+03  0.00000000000E+00 0. -1.
        -12    1    6    6    0    0 -0.20171747367E+02 -0.19406004864E+02  0.47337712535E+02  0.54994103726E+02  0.00000000000E+00 0.  1.
</event>
<event>
12    1  0.8633375E-002  0.1822276E+03  0.7818608E-02  0.1165700E+00
         21   -1    0    0  503  502  0.00000000000E+00  0.00000000000E+00  0.28794053265E+02  0.28794053265E+02  0.00000000000E+00 0.  1.
         21   -1    0    0  501  503 -0.00000000000E+00 -0.00000000000E+00 -0.11544579761E+04  0.11544579761E+04  0.00000000000E+00 0.  1.
          6    2    1    2  501    0 -0.17806959615E+02 -0.53047875747E+02 -0.58806214928E+03  0.61560552967E+03  0.17326832318E+03 0.  0.
         24    2    3    3    0    0  0.41841235251E+02 -0.31013329871E+02 -0.19070065215E+03  0.21316090272E+03  0.79739050166E+02 0.  0.
         -6    2    1    2    0  502  0.17806959615E+02  0.53047875747E+02 -0.53760177361E+03  0.56764649974E+03  0.17342351845E+03 0.  0.
        -24    2    5    5    0    0  0.11614198777E+02 -0.38772436285E+02 -0.29343185686E+03  0.30666688707E+03  0.79398574129E+02 0.  0.
          5    1    3    3  501    0 -0.59648194866E+02 -0.22034545876E+02 -0.39736149713E+03  0.40244462695E+03  0.47000000000E+01 0. -1.
        -11    1    4    4    0    0  0.39333023246E+02  0.79340408907E+01 -0.15553352334E+03  0.16062600227E+03  0.00000000000E+00 0.  1.
         12    1    4    4    0    0  0.25082120048E+01 -0.38947370762E+02 -0.35167128811E+02  0.52534900453E+02  0.00000000000E+00 0. -1.
         -5    1    5    5    0  502  0.61927608373E+01  0.91820312032E+02 -0.24416991674E+03  0.26097961267E+03  0.47000000000E+01 0.  1.
         13    1    6    6    0    0  0.18011594312E+02  0.10621920704E+02 -0.19723837204E+03  0.19834368690E+03  0.00000000000E+00 0. -1.
        -14    1    6    6    0    0 -0.63973955341E+01 -0.49394356989E+02 -0.96193484825E+02  0.10832320017E+03  0.00000000000E+00 0.  1.
</event>
<event>
12    1  0.8633375E-002  0.2401257E+03  0.7818608E-02  0.1119877E+00
         21   -1    0    0  501  502  0.00000000000E+00  0.00000000000E+00  0.84282225630E+02  0.84282225630E+02  0.00000000000E+00 0. -1.
         21   -1    0    0  502  503 -0.00000000000E+00 -0.00000000000E+00 -0.13058148292E+04  0.13058148292E+04  0.00000000000E+00 0. -1.
         -6    2    1    2    0  503 -0.16491734826E+03  0.70497854755E+00 -0.13075468543E+03  0.27341752085E+03  0.17453402016E+03 0.  0.
        -24    2    3    3    0    0 -0.12356721092E+03  0.38549883307E+02 -0.15048382086E+03  0.21380712361E+03  0.79455375193E+02 0.  0.
          6    2    1    2  501    0  0.16491734826E+03 -0.70497854755E+00 -0.10907779181E+04  0.11166795339E+04  0.17314296448E+03 0.  0.
         24    2    5    5    0    0  0.69503551235E+01 -0.10799003935E+02 -0.40293499156E+03  0.41084283762E+03  0.79185250408E+02 0.  0.
          5    1    5    5  501    0  0.15796699314E+03  0.10094025388E+02 -0.68784292654E+03  0.70583669631E+03  0.47000000000E+01 0.  1.
        -13    1    6    6    0    0 -0.35722942592E+02 -0.69085658316E+00 -0.15553940976E+03  0.15959045679E+03  0.00000000000E+00 0.  1.
         14    1    6    6    0    0  0.42673297715E+02 -0.10108147352E+02 -0.24739558180E+03  0.25125238083E+03  0.00000000000E+00 0. -1.
         -5    1    3    3    0  503 -0.41350137348E+02 -0.37844904759E+02  0.19729135431E+02  0.59610397246E+02  0.47000000000E+01 0.  1.
         13    1    4    4    0    0 -0.62300545151E+02  0.52863595948E+02 -0.11650907631E+03  0.14230348754E+03  0.00000000000E+00 0. -1.
        -14    1    4    4    0    0 -0.61266665765E+02 -0.14313712641E+02 -0.33974744548E+02  0.71503636066E+02  0.00000000000E+00 0.  1.
</event>
<event>
12    1  0.8633375E-002  0.1795622E+03  0.7818608E-02  0.1168368E+00
         21   -1    0    0  501  502  0.00000000000E+00  0.00000000000E+00  0.96188372476E+02  0.96188372476E+02  0.00000000000E+00 0. -1.
         21   -1    0    0  502  503 -0.00000000000E+00 -0.00000000000E+00 -0.44041226033E+03  0.44041226033E+03  0.00000000000E+00 0.  1.
         -6    2    1    2    0  503 -0.47960250206E+01 -0.49122674581E+02 -0.30370683978E+03  0.35252395012E+03  0.17204433110E+03 0.  0.
        -24    2    3    3    0    0 -0.31871714510E+02  0.12118749034E+02 -0.25957958681E+03  0.27219394711E+03  0.74466856347E+02 0.  0.
          6    2    1    2  501    0  0.47960250206E+01  0.49122674581E+02 -0.40517048075E+02  0.18407668269E+03  0.17264574976E+03 0.  0.
         24    2    5    5    0    0 -0.36946054452E+02  0.30787684685E+02  0.41127259643E+02  0.90447328128E+02  0.64624880750E+02 0.  0.
          5    1    5    5  501    0  0.41742079472E+02  0.18334989896E+02 -0.81644307718E+02  0.93629354563E+02  0.47000000000E+01 0. -1.
        -13    1    6    6    0    0 -0.40546744568E+02  0.34396604878E+02  0.43833650285E+01  0.53351464940E+02  0.00000000000E+00 0.  1.
         14    1    6    6    0    0  0.36006901167E+01 -0.36089201935E+01  0.36743894614E+02  0.37095863188E+02  0.00000000000E+00 0. -1.
         -5    1    3    3    0  503  0.27075689489E+02 -0.61241423615E+02 -0.44127252977E+02  0.80330003006E+02  0.47000000000E+01 0.  1.
         11    1    4    4    0    0 -0.34192759367E+02 -0.26168718492E+02 -0.15198881119E+03  0.15797007738E+03  0.00000000000E+00 0. -1.
        -12    1    4    4    0    0  0.23210448571E+01  0.38287467527E+02 -0.10759077562E+03  0.11422386973E+03  0.00000000000E+00 0.  1.
</event>
<event>
12    1  0.8633375E-002  0.1802825E+03  0.7818608E-02  0.1167588E+00
         21   -1    0    0  503  502  0.00000000000E+00  0.00000000000E+00  0.41151590343E+03  0.41151590343E+03  0.00000000000E+00 0. -1.
         21   -1    0    0  501  503 -0.00000000000E+00 -0.00000000000E+00 -0.81429887352E+02  0.81429887352E+02  0.00000000000E+00 0. -1.
          6    2    1    2  501    0 -0.44249594881E+02  0.31384424712E+02  0.12149074860E+03  0.21739776577E+03  0.17192666404E+03 0.  0.
         24    2    3    3    0    0  0.19174805528E+02  0.43380190573E+02  0.15531226004E+02  0.93236324925E+02  0.78754550365E+02 0.  0.
         -6    2    1    2    0  502  0.44249594881E+02 -0.31384424712E+02  0.20859526748E+03  0.27554802501E+03  0.17167329352E+03 0.  0.
        -24    2    5    5    0    0  0.25393515848E+02  0.21082354726E+02  0.20128519727E+03  0.21912248303E+03  0.80060199866E+02 0.  0.
          5    1    3    3  501    0 -0.63424400408E+02 -0.11995765861E+02  0.10595952259E+03  0.12416144085E+03  0.47000000000E+01 0. -1.
        -11    1    4    4    0    0  0.16034074383E+02  0.15300086245E+02  0.46380053576E+02  0.51403244549E+02  0.00000000000E+00 0.  1.
         12    1    4    4    0    0  0.31407311449E+01  0.28080104328E+02 -0.30848827572E+02  0.41833080376E+02  0.00000000000E+00 0. -1.
         -5    1    5    5    0  502  0.18856079032E+02 -0.52466779438E+02  0.73100702157E+01  0.56425541979E+02  0.47000000000E+01 0.  1.
         11    1    6    6    0    0  0.42701650542E+02 -0.65268740117E+01  0.16405046376E+03  0.16964252327E+03  0.00000000000E+00 0. -1.
        -12    1    6    6    0    0 -0.17308134693E+02  0.27609228738E+02  0.37234733508E+02  0.49479959756E+02  0.00000000000E+00 0.  1.
</event>
<event>
12    1  0.8633375E-002  0.2515681E+03  0.7818608E-02  0.1113063E+00
         21   -1    0    0  501  502  0.00000000000E+00  0.00000000000E+00  0.87930026755E+03  0.87930026755E+03  0.00000000000E+00 0. -1.
         21   -1    0    0  502  503 -0.00000000000E+00 -0.00000000000E+00 -0.79695101366E+02  0.79695101366E+02  0.00000000000E+00 0. -1.
         -6    2    1    2    0  503 -0.17388689564E+03 -0.35133980110E+02  0.24146264373E+03  0.34869859167E+03  0.17836886074E+03 0.  0.
        -24    2    3    3    0    0 -0.54805337010E+02  0.22053435936E+02  0.19300586750E+03  0.20791163445E+03  0.49859842051E+02 0.  0.
          6    2    1    2  501    0  0.17388689564E+03  0.35133980110E+02  0.55814252245E+03  0.61029677724E+03  0.17166255244E+03 0.  0.
         24    2    5    5    0    0  0.45920941101E+02  0.40031881004E+02  0.13676264959E+03  0.16986248906E+03  0.80236890132E+02 0.  0.
          5    1    5    5  501    0  0.12796595454E+03 -0.48979008948E+01  0.42137987286E+03  0.44043428818E+03  0.47000000000E+01 0. -1.
        -13    1    6    6    0    0  0.67401111810E+02  0.20109300878E+02  0.84451028075E+02  0.10990573233E+03  0.00000000000E+00 0.  1.
         14    1    6    6    0    0 -0.21480170708E+02  0.19922580127E+02  0.52311621515E+02  0.59956756735E+02  0.00000000000E+00 0. -1.
         -5    1    3    3    0  503 -0.11908155863E+03 -0.57187416046E+02  0.48456776232E+02  0.14078695722E+03  0.47000000000E+01 0.  1.
         13    1    4    4    0    0 -0.25496213599E+02 -0.14885382974E+02  0.87538053817E+02  0.92382587105E+02  0.00000000000E+00 0. -1.
        -14    1    4    4    0    0 -0.29309123411E+02  0.36938818910E+02  0.10546781368E+03  0.11552904735E+03  0.00000000000E+00 0.  1.
</event>
<event>
12    1  0.8633375E-002  0.1817505E+03  0.7818608E-02  0.1166427E+00
         21   -1    0    0  501  502  0.00000000000E+00  0.00000000000E+00  0.28382911927E+03  0.28382911927E+03  0.00000000000E+00 0. -1.
         21   -1    0    0  502  503 -0.00000000000E+00 -0.00000000000E+00 -0.12640813227E+03  0.12640813227E+03  0.00000000000E+00 0. -1.
         -6    2    1    2    0  503 -0.45198268967E+02 -0.31175884736E+02  0.18888843952E+02  0.18272936703E+03  0.17325822879E+03 0.  0.
        -24    2    3    3    0    0 -0.13917262588E+02  0.48496806211E+02  0.40764743223E+02  0.94259688544E+02  0.68392208502E+02 0.  0.
          6    2    1    2  501    0  0.45198268967E+02  0.31175884736E+02  0.13853214305E+03  0.22750788451E+03  0.17191237172E+03 0.  0.
         24    2    5    5    0    0  0.11145219824E+02 -0.45482807703E+02  0.96950975186E+02  0.13376755806E+03  0.79381145611E+02 0.  0.
          5    1    5    5  501    0  0.34053049143E+02  0.76658692439E+02  0.41581167863E+02  0.93740326452E+02  0.47000000000E+01 0. -1.
        -13    1    6    6    0    0  0.43461288622E+02 -0.39346239403E+02  0.54331640336E+02  0.79930828255E+02  0.00000000000E+00 0.  1.
         14    1    6    6    0    0 -0.32316068799E+02 -0.61365682993E+01  0.42619334850E+02  0.53836729805E+02  0.00000000000E+00 0. -1.
         -5    1    3    3    0  503 -0.31281006379E+02 -0.79672690947E+02 -0.21875899270E+02  0.88469678488E+02  0.47000000000E+01 0.  1.
         11    1    4    4    0    0 -0.34612284779E+02  0.31620945456E+01  0.21264440158E+02  0.40745374152E+02  0.00000000000E+00 0. -1.
        -12    1    4    4    0    0  0.20695022191E+02  0.45334711665E+02  0.19500303064E+02  0.53514314392E+02  0.00000000000E+00 0.  1.
</event>
<event>
12    1  0.8633375E-002  0.2272446E+03  0.7818608E-02  0.1130267E+00
         21   -1    0    0  503  502  0.00000000000E+00  0.00000000000E+00  0.10063223658E+04  0.10063223658E+04  0.00000000000E+00 0.  1.
         21   -1    0    0  501  503 -0.00000000000E+00 -0.00000000000E+00 -0.79033253038E+02  0.79033253038E+02  0.00000000000E+00 0.  1.
          6    2    1    2  501    0  0.12059250152E+03 -0.55067102691E+02  0.13659926704E+03  0.26514051028E+03  0.18456758441E+03 0.  0.
         24    2    3    3    0    0  0.67500069447E+02 -0.19232297144E+02  0.18943493471E+02  0.13109607479E+03  0.10909254902E+03 0.  0.
         -6    2    1    2    0  502 -0.12059250152E+03  0.55067102691E+02  0.79068984573E+03  0.82021510857E+03  0.17316886255E+03 0.  0.
        -24    2    5    5    0    0 -0.83099700729E+02  0.10496308041E+03  0.60983806959E+03  0.62883910788E+03  0.74922252866E+02 0.  0.
          5    1    3    3  501    0  0.53092432070E+02 -0.35834805547E+02  0.11765577357E+03  0.13404443549E+03  0.47000000000E+01 0. -1.
        -11    1    4    4    0    0  0.44779336844E+02 -0.49484110296E+01  0.64229809342E+02  0.78454726996E+02  0.00000000000E+00 0.  1.
         12    1    4    4    0    0  0.22720732603E+02 -0.14283886115E+02 -0.45286315871E+02  0.52641347795E+02  0.00000000000E+00 0. -1.
         -5    1    5    5    0  502 -0.37492800788E+02 -0.49895977717E+02  0.18085177614E+03  0.19137600068E+03  0.47000000000E+01 0.  1.
         13    1    6    6    0    0 -0.29270278423E+02  0.90867459495E+02  0.33043593864E+03  0.34394992941E+03  0.00000000000E+00 0. -1.
        -14    1    6    6    0    0 -0.53829422306E+02  0.14095620913E+02  0.27940213095E+03  0.28488917848E+03  0.00000000000E+00 0.  1.
</event>
<event>
12    1  0.8633375E-002  0.1937443E+03  0.7818608E-02  0.1156207E+00
         21   -1    0    0  503  502  0.00000000000E+00  0.00000000000E+00  0.26595729517E+03  0.26595729517E+03  0.00000000000E+00 0.  1.
         21   -1    0    0  501  503 -0.00000000000E+00 -0.00000000000E+00 -0.22804411858E+03  0.22804411858E+03  0.00000000000E+00 0. -1.
          6    2    1    2  501    0  0.54786668258E+02  0.73025249568E+02 -0.13641863122E+03  0.23695337295E+03  0.17088765876E+03 0.  0.
         24    2    3    3    0    0  0.84146311834E+01  0.74489706779E+02 -0.18815951070E+02  0.11044254008E+03  0.78892282320E+02 0.  0.
         -6    2    1    2    0  502 -0.54786668258E+02 -0.73025249568E+02  0.17433180781E+03  0.25704804080E+03  0.16537185361E+03 0.  0.
        -24    2    5    5    0    0 -0.50159760325E+02  0.15214775248E+02  0.64803485000E+02  0.11624231025E+03  0.81026490002E+02 0.  0.
          5    1    3    3  501    0  0.46372037075E+02 -0.14644572102E+01 -0.11760268015E+03  0.12651083288E+03  0.47000000000E+01 0. -1.
        -11    1    4    4    0    0 -0.24816076543E+02  0.14243122941E+01  0.75128573414E+01  0.25967467068E+02  0.00000000000E+00 0.  1.
         12    1    4    4    0    0  0.33230707726E+02  0.73065394484E+02 -0.26328808411E+02  0.84475073007E+02  0.00000000000E+00 0. -1.
         -5    1    5    5    0  502 -0.46269079330E+01 -0.88240024816E+02  0.10952832281E+03  0.14080573055E+03  0.47000000000E+01 0.  1.
         13    1    6    6    0    0 -0.60842663329E+02  0.29604020293E+02  0.70225759669E+02  0.97518639344E+02  0.00000000000E+00 0. -1.
        -14    1    6    6    0    0  0.10682903004E+02 -0.14389245045E+02 -0.54222746685E+01  0.18723670905E+02  0.00000000000E+00 0.  1.
</event>
<event>
12    1  0.8633375E-002  0.2138977E+03  0.7818608E-02  0.1138718E+00
         21   -1    0    0  503  502  0.00000000000E+00  0.00000000000E+00  0.17971746986E+03  0.17971746986E+03  0.00000000000E+00 0.  1.
         21   -1    0    0  501  503 -0.00000000000E+00 -0.00000000000E+00 -0.41803416831E+03  0.41803416831E+03  0.00000000000E+00 0.  1.
          6    2    1    2  501    0 -0.76261715494E+02 -0.99807252156E+02 -0.30657782774E+03  0.37322585134E+03  0.17184363478E+03 0.  0.
         24    2    3    3    0    0 -0.46193418722E+02 -0.71536349238E+02 -0.72026153618E+02  0.13502441504E+03  0.76108768591E+02 0.  0.
         -6    2    1    2    0  502  0.76261715494E+02  0.99807252156E+02  0.68261129300E+02  0.22452578683E+03  0.17313263801E+03 0.  0.
        -24    2    5    5    0    0  0.57255271491E+02  0.93276400966E+02 -0.17462528474E+02  0.13635247775E+03  0.79425469454E+02 0.  0.
          5    1    3    3  501    0 -0.30068296771E+02 -0.28270902918E+02 -0.23455167412E+03  0.23820143630E+03  0.47000000000E+01 0. -1.
        -13    1    4    4    0    0 -0.15622644256E+02 -0.74404618467E+02 -0.71422552281E+02  0.10431344706E+03  0.00000000000E+00 0.  1.
         14    1    4    4    0    0 -0.30570774466E+02  0.28682692294E+01 -0.60360133694E+00  0.30710967982E+02  0.00000000000E+00 0. -1.
         -5    1    5    5    0  502  0.19006444003E+02  0.65308511900E+01  0.85723657775E+02  0.88173309075E+02  0.47000000000E+01 0.  1.
         11    1    6    6    0    0 -0.13453493692E+02  0.21789677118E+02  0.16218825592E+02  0.30312321340E+02  0.00000000000E+00 0. -1.
        -12    1    6    6    0    0  0.70708765183E+02  0.71486723848E+02 -0.33681354066E+02  0.10604015641E+03  0.00000000000E+00 0.  1.
</event>
<event>
12    1  0.8633375E-002  0.1802008E+03  0.7818608E-02  0.1167974E+00
         21   -1    0    0  503  502  0.00000000000E+00  0.00000000000E+00  0.16623695434E+03  0.16623695434E+03  0.00000000000E+00 0. -1.
         21   -1    0    0  501  503 -0.00000000000E+00 -0.00000000000E+00 -0.28026350516E+03  0.28026350516E+03  0.00000000000E+00 0.  1.
          6    2    1    2  501    0  0.43893276864E+02 -0.24315278067E+02 -0.18124200132E+03  0.25557972553E+03  0.17307362756E+03 0.  0.
         24    2    3    3    0    0  0.18673071717E+02  0.13963968365E+02 -0.19221899864E+03  0.20820944027E+03  0.76546401351E+02 0.  0.
         -6    2    1    2    0  502 -0.43893276864E+02  0.24315278067E+02  0.67215450494E+02  0.19092073397E+03  0.17150789303E+03 0.  0.
        -24    2    5    5    0    0 -0.17596590491E+02  0.41732474280E+02  0.10731965149E+03  0.13968294152E+03  0.77088112886E+02 0.  0.
          5    1    3    3  501    0  0.25220205146E+02 -0.38279246431E+02  0.10976997324E+02  0.47370285256E+02  0.47000000000E+01 0. -1.
        -13    1    4    4    0    0  0.19946412253E+02  0.29437640939E+02 -0.33893076234E+02  0.49124074367E+02  0.00000000000E+00 0.  1.
         14    1    4    4    0    0 -0.12733405356E+01 -0.15473672574E+02 -0.15832592241E+03  0.15908536590E+03  0.00000000000E+00 0. -1.
         -5    1    5    5    0  502 -0.26296686373E+02 -0.17417196213E+02 -0.40104200994E+02  0.51237792453E+02  0.47000000000E+01 0.  1.
         13    1    6    6    0    0  0.27778272584E+02  0.25506245303E+02  0.28382620869E+02  0.47199302374E+02  0.00000000000E+00 0. -1.
        -14    1    6    6    0    0 -0.45374863074E+02  0.16226228977E+02  0.78937030619E+02  0.92483639141E+02  0.00000000000E+00 0.  1.
</event>
<event>
12    1  0.8633375E-002  0.2096206E+03  0.7818608E-02  0.1142461E+00
         21   -1    0    0  503  502  0.00000000000E+00  0.00000000000E+00  0.16832445967E+03  0.16832445967E+03  0.00000000000E+00 0. -1.
         21   -1    0    0  501  503 -0.00000000000E+00 -0.00000000000E+00 -0.26479843444E+03  0.26479843444E+03  0.00000000000E+00 0.  1.
          6    2    1    2  501    0  0.52585626096E+02 -0.10642469177E+03 -0.84859538211E+02  0.22614580499E+03  0.17276955982E+03 0.  0.
         24    2    3    3    0    0 -0.35759424485E+00  0.37431625482E+01 -0.62799031495E+02  0.10185301895E+03  0.80101060995E+02 0.  0.
         -6    2    1    2    0  502 -0.52585626096E+02  0.10642469177E+03 -0.11614436561E+02  0.20697708912E+03  0.16915424084E+03 0.  0.
        -24    2    5    5    0    0 -0.16204293108E+02  0.28987494107E+01  0.33684935823E+02  0.88169070579E+02  0.79800552894E+02 0.  0.
          5    1    3    3  501    0  0.52943220341E+02 -0.11016785432E+03 -0.22060506715E+02  0.12429278604E+03  0.47000000000E+01 0. -1.
        -11    1    4    4    0    0 -0.16114119335E+02 -0.18383441535E+02 -0.69669636975E+02  0.73834098361E+02  0.00000000000E+00 0.  1.
         12    1    4    4    0    0  0.15756525090E+02  0.22126604083E+02  0.68706054794E+01  0.28018920586E+02  0.00000000000E+00 0. -1.
         -5    1    5    5    0  502 -0.36381332987E+02  0.10352594236E+03 -0.45299372383E+02  0.11880801855E+03  0.47000000000E+01 0.  1.
         11    1    6    6    0    0 -0.10836016192E+02  0.37315091287E+02  0.36384392559E+02  0.53232126639E+02  0.00000000000E+00 0. -1.
        -12    1    6    6    0    0 -0.53682769166E+01 -0.34416341877E+02 -0.26994567358E+01  0.34936943940E+02  0.00000000000E+00 0.  1.
</event>
<event>
12    1  0.8633375E-002  0.1809887E+03  0.7818608E-02  0.1167033E+00
         21   -1    0    0  501  502  0.00000000000E+00  0.00000000000E+00  0.40320340048E+02  0.40320340048E+02  0.00000000000E+00 0.  1.
         21   -1    0    0  502  503 -0.00000000000E+00 -0.00000000000E+00 -0.98467801330E+03  0.98467801330E+03  0.00000000000E+00 0.  1.
         -6    2    1    2    0  503  0.27754479920E+02 -0.49165805851E+02 -0.25652616898E+03  0.31394677296E+03  0.17195730068E+03 0.  0.
        -24    2    3    3    0    0  0.35784865808E+02  0.11818960936E+02 -0.64105174153E+02  0.11187857128E+03  0.83588856316E+02 0.  0.
          6    2    1    2  501    0 -0.27754479920E+02  0.49165805851E+02 -0.68783150427E+03  0.71105158039E+03  0.17115660692E+03 0.  0.
         24    2    5    5    0    0 -0.57068425463E+02  0.88466320260E+02 -0.57414563927E+03  0.58715483412E+03  0.63438861367E+02 0.  0.
          5    1    5    5  501    0  0.29313945543E+02 -0.39300514410E+02 -0.11368586500E+03  0.12389674627E+03  0.47000000000E+01 0. -1.
        -11    1    6    6    0    0 -0.16247688967E+02  0.65287858763E+02 -0.43815296242E+03  0.44328829262E+03  0.00000000000E+00 0.  1.
         12    1    6    6    0    0 -0.40820736496E+02  0.23178461497E+02 -0.13599267685E+03  0.14386654150E+03  0.00000000000E+00 0. -1.
         -5    1    3    3    0  503 -0.80303858884E+01 -0.60984766787E+02 -0.19242099483E+03  0.20206820168E+03  0.47000000000E+01 0.  1.
         11    1    4    4    0    0 -0.16936400779E+02  0.79931626122E+00 -0.54617467946E+02  0.57188708524E+02  0.00000000000E+00 0. -1.
        -12    1    4    4    0    0  0.52721266587E+02  0.11019644675E+02 -0.94877062071E+01  0.54689862757E+02  0.00000000000E+00 0.  1.
</event>
<event>
12    1  0.8633375E-002  0.2445863E+03  0.7818608E-02  0.1117108E+00
         21   -1    0    0  503  502  0.00000000000E+00  0.00000000000E+00  0.15581219089E+03  0.15581219089E+03  0.00000000000E+00 0.  1.
         21   -1    0    0  501  503 -0.00000000000E+00 -0.00000000000E+00 -0.38430180246E+03  0.38430180246E+03  0.00000000000E+00 0. -1.
          6    2    1    2  501    0  0.13050844737E+03  0.11040538100E+03 -0.14070725863E+03  0.28217192505E+03  0.17493044236E+03 0.  0.
         24    2    3    3    0    0  0.56058855180E+02  0.68990992328E+00 -0.60274573113E+01  0.93119114289E+02  0.74106463851E+02 0.  0.
         -6    2    1    2    0  502 -0.13050844737E+03 -0.11040538100E+03 -0.87782352935E+02  0.25794206831E+03  0.17206558670E+03 0.  0.
        -24    2    5    5    0    0 -0.56145894271E+02 -0.12462834631E+03 -0.52949127865E+02  0.17447036284E+03  0.94613483283E+02 0.  0.
          5    1    3    3  501    0  0.74449592192E+02  0.10971547108E+03 -0.13467980132E+03  0.18905281076E+03  0.47000000000E+01 0. -1.
        -11    1    4    4    0    0 -0.13766519341E+01 -0.20505362058E+02  0.18030926358E+02  0.27340068563E+02  0.00000000000E+00 0.  1.
         12    1    4    4    0    0  0.57435507114E+02  0.21195271981E+02 -0.24058383670E+02  0.65779045726E+02  0.00000000000E+00 0. -1.
         -5    1    5    5    0  502 -0.74362553101E+02  0.14222965305E+02 -0.34833225070E+02  0.83471705473E+02  0.47000000000E+01 0.  1.
         13    1    6    6    0    0  0.71021653409E+01 -0.35390496454E+02 -0.54158287422E+02  0.65084929809E+02  0.00000000000E+00 0. -1.
        -14    1    6    6    0    0 -0.63248059612E+02 -0.89237849856E+02  0.12091595568E+01  0.10938543303E+03  0.00000000000E+00 0.  1.
</event>
<event>
12    1  0.8633375E-002  0.2492804E+03  0.7818608E-02  0.1114102E+00
         21   -1    0    0  503  502  0.00000000000E+00  0.00000000000E+00  0.13363937463E+04  0.13363937463E+04  0.00000000000E+00 0.  1.
         21   -1    0    0  501  503 -0.00000000000E+00 -0.00000000000E+00 -0.67086731700E+02  0.67086731700E+02  0.00000000000E+00 0.  1.
          6    2    1    2  501    0 -0.18170764542E+03  0.24018135223E+02  0.24028173520E+03  0.34469167716E+03  0.16577846909E+03 0.  0.
         24    2    3    3    0    0 -0.14714757688E+03 -0.35869655294E+02  0.13005433217E+03  0.21448754448E+03  0.78433002412E+02 0.  0.
         -6    2    1    2    0  502  0.18170764542E+03 -0.24018135223E+02  0.10290252794E+04  0.10587888008E+04  0.16895608868E+03 0.  0.
        -24    2    5    5    0    0  0.66388168848E+02 -0.47754921745E+01  0.23781105949E+03  0.25896951326E+03  0.77980218605E+02 0.  0.
          5    1    3    3  501    0 -0.34560068541E+02  0.59887790517E+02  0.11022740303E+03  0.13020413269E+03  0.47000000000E+01 0. -1.
        -11    1    4    4    0    0 -0.86332199700E+02 -0.19214427958E+02  0.24909888034E+02  0.91885501950E+02  0.00000000000E+00 0.  1.
         12    1    4    4    0    0 -0.60815377178E+02 -0.16655227336E+02  0.10514444414E+03  0.12260204253E+03  0.00000000000E+00 0. -1.
         -5    1    5    5    0  502  0.11531947657E+03 -0.19242643049E+02  0.79121421988E+03  0.79981928754E+03  0.47000000000E+01 0.  1.
         11    1    6    6    0    0  0.45083168769E+02 -0.40162839082E+02  0.15709285818E+03  0.16829649979E+03  0.00000000000E+00 0. -1.
        -12    1    6    6    0    0  0.21305000079E+02  0.35387346907E+02  0.80718201306E+02  0.90673013469E+02  0.00000000000E+00 0.  1.
</event>
<event>
12    1  0.8633375E-002  0.1777254E+03  0.7818608E-02  0.1173211E+00
         21   -1    0    0  501  502  0.00000000000E+00  0.00000000000E+00  0.16089338121E+03  0.16089338121E+03  0.00000000000E+00 0.  1.
         21   -1    0    0  502  503 -0.00000000000E+00 -0.00000000000E+00 -0.54136574502E+03  0.54136574502E+03  0.00000000000E+00 0.  1.
         -6    2    1    2    0  503  0.48736209808E+01  0.51340343401E+02 -0.47827502231E+03  0.51022869824E+03  0.17007864211E+03 0.  0.
        -24    2    3    3    0    0 -0.54092424842E+02 -0.30548058476E+01 -0.26749877427E+03  0.28465267212E+03  0.80846937155E+02 0.  0.
          6    2    1    2  501    0 -0.48736209808E+01 -0.51340343401E+02  0.97802658499E+02  0.19203042798E+03  0.15700554838E+03 0.  0.
         24    2    5    5    0    0  0.32658694467E+02  0.12586440421E+01  0.26697795511E+02  0.95836250805E+02  0.86044408151E+02 0.  0.
          5    1    5    5  501    0 -0.37532315448E+02 -0.52598987443E+02  0.71104862987E+02  0.96194177180E+02  0.47000000000E+01 0. -1.
        -13    1    6    6    0    0  0.24122861814E+02  0.38977945246E+02  0.33228557790E+02  0.56615631503E+02  0.00000000000E+00 0.  1.
         14    1    6    6    0    0  0.85358326535E+01 -0.37719301204E+02 -0.65307622789E+01  0.39220619301E+02  0.00000000000E+00 0. -1.
         -5    1    3    3    0  503  0.58966045823E+02  0.54395149249E+02 -0.21077624804E+03  0.22557602612E+03  0.47000000000E+01 0.  1.
         11    1    4    4    0    0 -0.65062914569E+00 -0.30792250167E+02 -0.47887188776E+02  0.56936533417E+02  0.00000000000E+00 0. -1.
        -12    1    4    4    0    0 -0.53441795697E+02  0.27737444320E+02 -0.21961158549E+03  0.22771613871E+03  0.00000000000E+00 0.  1.
</event>
<event>
12    1  0.8633375E-002  0.1907873E+03  0.7818608E-02  0.1157956E+00
         21   -1    0    0  501  502  0.00000000000E+00  0.00000000000E+00  0.58514696800E+03  0.58514696800E+03  0.00000000000E+00 0. -1.
         21   -1    0    0  502  503 -0.00000000000E+00 -0.00000000000E+00 -0.12035654637E+03  0.12035654637E+03  0.00000000000E+00 0.  1.
         -6    2    1    2    0  503  0.71008729192E+02  0.40760407673E+02 -0.13133237581E+02  0.19123878880E+03  0.17232568572E+03 0.  0.
        -24    2    3    3    0    0  0.66550593006E+02 -0.12474872358E+01  0.49673100155E+02  0.11540169845E+03  0.80122390582E+02 0.  0.
          6    2    1    2  501    0 -0.71008729192E+02 -0.40760407673E+02  0.47792365921E+03  0.51426472558E+03  0.17132872931E+03 0.  0.
         24    2    5    5    0    0  0.10632091178E+02 -0.56905219527E+02  0.18443100379E+03  0.20916489391E+03  0.79899388683E+02 0.  0.
          5    1    5    5  501    0 -0.81640820369E+02  0.16144811854E+02  0.29349265542E+03  0.30509983167E+03  0.47000000000E+01 0. -1.
        -11    1    6    6    0    0 -0.31647257070E+02 -0.44230209876E+02  0.10736345076E+03  0.12035269380E+03  0.00000000000E+00 0.  1.
         12    1    6    6    0    0  0.42279348247E+02 -0.12675009651E+02  0.77067553035E+02  0.88812200112E+02  0.00000000000E+00 0. -1.
         -5    1    3    3    0  503  0.44581361853E+01  0.42007894908E+02 -0.62806337736E+02  0.75837090349E+02  0.47000000000E+01 0.  1.
         13    1    4    4    0    0  0.84716368931E+01 -0.35443429049E+02  0.21819698000E+02  0.42474751502E+02  0.00000000000E+00 0. -1.
        -14    1    4    4    0    0  0.58078956113E+02  0.34195941813E+02  0.27853402155E+02  0.72926946949E+02  0.00000000000E+00 0.  1.
</event>
<event>
12    1  0.8633375E-002  0.1779836E+03  0.7818608E-02  0.1169856E+00
         21   -1    0    0  501  502  0.00000000000E+00  0.00000000000E+00  0.15988921852E+03  0.15988921852E+03  0.00000000000E+00 0.  1.
         21   -1    0    0  502  503 -0.00000000000E+00 -0.00000000000E+00 -0.19950267684E+03  0.19950267684E+03  0.00000000000E+00 0.  1.
         -6    2    1    2    0  503  0.31219416938E+02  0.34432379170E+02 -0.36725648351E+02  0.18138486269E+03  0.17143936081E+03 0.  0.
        -24    2    3    3    0    0 -0.37516093803E+02  0.11686178407E+02  0.14787886631E+02  0.92403435567E+02  0.82314574977E+02 0.  0.
          6    2    1    2  501    0 -0.31219416938E+02 -0.34432379170E+02 -0.28878099744E+01  0.17800703268E+03  0.17180780980E+03 0.  0.
         24    2    5    5    0    0 -0.78190081837E+02 -0.44661390080E+02 -0.29057593047E+02  0.12307231168E+03  0.78702741542E+02 0.  0.
          5    1    5    5  501    0  0.46970664899E+02  0.10229010909E+02  0.26169783073E+02  0.54934721000E+02  0.47000000000E+01 0. -1.
        -13    1    6    6    0    0 -0.16712436181E+02 -0.82008359562E+01  0.26610182157E+02  0.32475545075E+02  0.00000000000E+00 0.  1.
         14    1    6    6    0    0 -0.61477645656E+02 -0.36460554123E+02 -0.55667775205E+02  0.90596766601E+02  0.00000000000E+00 0. -1.
         -5    1    3    3    0  503  0.68735510740E+02  0.22746200763E+02 -0.51513534982E+02  0.88981427120E+02  0.47000000000E+01 0.  1.
         11    1    4    4    0    0 -0.29586472970E+02 -0.30780006706E+02 -0.81902039105E+01  0.43472377848E+02  0.00000000000E+00 0. -1.
        -12    1    4    4    0    0 -0.79296208324E+01  0.42466185113E+02  0.22978090541E+02  0.48931057719E+02  0.00000000000E+00 0.  1.
</event>
<event>
12    1  0.8633375E-002  0.2235598E+03  0.7818608E-02  0.1131429E+00
         21   -1    0    0  503  502  0.00000000000E+00  0.00000000000E+00  0.16490058482E+03  0.16490058482E+03  0.00000000000E+00 0.  1.
         21   -1    0    0  501  503 -0.00000000000E+00 -0.00000000000E+00 -0.71202797627E+03  0.71202797627E+03  0.00000000000E+00 0. -1.
          6    2    1    2  501    0  0.13564588220E+03 -0.42474827370E+02 -0.60661765000E+03  0.64650131696E+03  0.17255452247E+03 0.  0.
         24    2    3    3    0    0  0.73931253643E+02 -0.90594840845E+01 -0.16763173163E+03  0.20191610908E+03  0.84390835629E+02 0.  0.
         -6    2    1    2    0  502 -0.13564588220E+03  0.42474827370E+02  0.59490258550E+02  0.23042724414E+03  0.17132923761E+03 0.  0.
        -24    2    5    5    0    0 -0.27579836275E+02  0.70792915740E+02  0.16584629305E+02  0.11066428062E+03  0.78735308392E+02 0.  0.
          5    1    3    3  501    0  0.61714628552E+02 -0.33415343286E+02 -0.43898591837E+03  0.44458520788E+03  0.47000000000E+01 0. -1.
        -13    1    4    4    0    0 -0.14769796645E+02  0.14187604916E+02 -0.24522517712E+02  0.31949787184E+02  0.00000000000E+00 0.  1.
         14    1    4    4    0    0  0.88701050288E+02 -0.23247089001E+02 -0.14310921392E+03  0.16996632189E+03  0.00000000000E+00 0. -1.
         -5    1    5    5    0  502 -0.10806604592E+03 -0.28318088370E+02  0.42905629245E+02  0.11976296352E+03  0.47000000000E+01 0.  1.
         13    1    6    6    0    0 -0.43805467861E+02  0.48673137972E+02 -0.16653792433E+02  0.67567315893E+02  0.00000000000E+00 0. -1.
        -14    1    6    6    0    0  0.16225631586E+02  0.22119777768E+02  0.33238421738E+02  0.43096964725E+02  0.00000000000E+00 0.  1.
</event>
<event>
12    1  0.8633375E-002  0.2037660E+03  0.7818608E-02  0.1146776E+00
         21   -1    0    0  501  502  0.00000000000E+00  0.00000000000E+00  0.18418709971E+03  0.18418709971E+03  0.00000000000E+00 0. -1.
         21   -1    0    0  502  503 -0.00000000000E+00 -0.00000000000E+00 -0.23950765411E+03  0.23950765411E+03  0.00000000000E+00 0. -1.
         -6    2    1    2    0  503  0.11002914126E+02  0.10626757148E+03 -0.80662706369E+02  0.21835890615E+03  0.17251167737E+03 0.  0.
        -24    2    3    3    0    0  0.23229305346E+02  0.14060532800E+03 -0.80226058361E+02  0.18160503797E+03  0.78960182909E+02 0.  0.
          6    2    1    2  501    0 -0.11002914126E+02 -0.10626757148E+03  0.25342151970E+02  0.20533584766E+03  0.17351289520E+03 0.  0.
         24    2    5    5    0    0 -0.16674716658E+02 -0.89083503379E+02 -0.47981755528E+02  0.12966586054E+03  0.79354078510E+02 0.  0.
          5    1    5    5  501    0  0.56718025321E+01 -0.17184068105E+02  0.73323907498E+02  0.75669987125E+02  0.47000000000E+01 0. -1.
        -11    1    6    6    0    0  0.33520934088E+01 -0.81402153765E+02 -0.49941098546E+01  0.81624066923E+02  0.00000000000E+00 0.  1.
         12    1    6    6    0    0 -0.20026810067E+02 -0.76813496137E+01 -0.42987645674E+02  0.48041793617E+02  0.00000000000E+00 0. -1.
         -5    1    3    3    0  503 -0.12226391220E+02 -0.34337756520E+02 -0.43664800794E+00  0.36753868185E+02  0.47000000000E+01 0.  1.
         11    1    4    4    0    0 -0.16824197096E+02  0.13824413285E+01 -0.15558004520E+02  0.22956834638E+02  0.00000000000E+00 0. -1.
        -12    1    4    4    0    0  0.40053502442E+02  0.13922288668E+03 -0.64668053842E+02  0.15864820333E+03  0.00000000000E+00 0.  1.
</event>
<event>
12    1  0.8633375E-002  0.1890379E+03  0.7818608E-02  0.1159379E+00
         21   -1    0    0  501  502  0.00000000000E+00  0.00000000000E+00  0.10280318737E+03  0.10280318737E+03  0.00000000000E+00 0. -1.
         21   -1    0    0  502  503 -0.00000000000E+00 -0.00000000000E+00 -0.48374807253E+03  0.48374807253E+03  0.00000000000E+00 0. -1.
         -6    2    1    2    0  503  0.61196919681E+02  0.47396169638E+02 -0.34634881924E+03  0.39457933325E+03  0.17246415791E+03 0.  0.
        -24    2    3    3    0    0  0.20391092098E+02 -0.40120801592E+02 -0.18255997467E+03  0.20438676919E+03  0.80126972427E+02 0.  0.
          6    2    1    2  501    0 -0.61196919681E+02 -0.47396169638E+02 -0.34596065924E+02  0.19197192665E+03  0.17223493539E+03 0.  0.
         24    2    5    5    0    0 -0.73514927826E+02 -0.88391034171E+02 -0.50332989356E+01  0.13973822646E+03  0.79271800171E+02 0.  0.
          5    1    5    5  501    0  0.12318008144E+02  0.40994864534E+02 -0.29562766988E+02  0.52233700183E+02  0.47000000000E+01 0. -1.
        -13    1    6    6    0    0 -0.13580166524E+02  0.13014648532E+02 -0.11006912381E+02  0.21793442119E+02  0.00000000000E+00 0.  1.
         14    1    6    6    0    0 -0.59934761302E+02 -0.10140568270E+03  0.59736134451E+01  0.11794478435E+03  0.00000000000E+00 0. -1.
         -5    1    3    3    0  503  0.40805827583E+02  0.87516971229E+02 -0.16378884457E+03  0.19019256406E+03  0.47000000000E+01 0.  1.
         13    1    4    4    0    0  0.38354050530E+02  0.13298893883E+01 -0.42699014202E+02  0.57410866669E+02  0.00000000000E+00 0. -1.
        -14    1    4    4    0    0 -0.17962958432E+02 -0.41450690980E+02 -0.13986096047E+03  0.14697590252E+03  0.00000000000E+00 0.  1.
</event>
<event>
12    1  0.8633375E-002  0.1804629E+03  0.7818608E-02  0.1168525E+00
         21   -1    0    0  501  502  0.00000000000E+00  0.00000000000E+00  0.45410664598E+02  0.45410664598E+02  0.00000000000E+00 0.  1.
         21   -1    0    0  502  503 -0.00000000000E+00 -0.00000000000E+00 -0.69953424837E+03  0.69953424837E+03  0.00000000000E+00 0.  1.
         -6    2    1    2    0  503 -0.23833562712E+02  0.44081740084E+02 -0.33832267548E+03  0.38121826092E+03  0.16838613718E+03 0.  0.
        -24    2    3    3    0    0 -0.68219127717E+02 -0.69769235144E+01 -0.16153277145E+03  0.19186719630E+03  0.77573564523E+02 0.  0.
          6    2    1    2  501    0  0.23833562712E+02 -0.44081740084E+02 -0.31580090830E+03  0.36372665205E+03  0.17336558254E+03 0.  0.
         24    2    5    5    0    0  0.62119987089E+02 -0.66583683771E+02 -0.14921798886E+03  0.19126173733E+03  0.77606470262E+02 0.  0.
          5    1    5    5  501    0 -0.38286424377E+02  0.22501943687E+02 -0.16658291944E+03  0.17246491472E+03  0.47000000000E+01 0. -1.
        -11    1    6    6    0    0  0.83021512899E+01  0.10106152066E+02  0.21405869207E+01  0.13253004866E+02  0.00000000000E+00 0.  1.
         12    1    6    6    0    0  0.53817835799E+02 -0.76689835838E+02 -0.15135857578E+03  0.17800873246E+03  0.00000000000E+00 0. -1.
         -5    1    3    3    0  503  0.44385565005E+02  0.51058663598E+02 -0.17678990402E+03  0.18935106462E+03  0.47000000000E+01 0.  1.
         11    1    4    4    0    0 -0.25141109346E+02 -0.34195295416E+02 -0.33512653959E+02  0.54078568612E+02  0.00000000000E+00 0. -1.
        -12    1    4    4    0    0 -0.43078018371E+02  0.27218371901E+02 -0.12802011749E+03  0.13778862768E+03  0.00000000000E+00 0.  1.
</event>
<event>
12    1  0.8633375E-002  0.2842163E+03  0.7818608E-02  0.1093497E+00
         21   -1    0    0  503  502  0.00000000000E+00  0.00000000000E+00  0.21308703115E+03  0.21308703115E+03  0.00000000000E+00 0.  1.
         21   -1    0    0  501  503 -0.00000000000E+00 -0.00000000000E+00 -0.54834621380E+03  0.54834621380E+03  0.00000000000E+00 0.  1.
          6    2    1    2  501    0 -0.63803800276E+02 -0.21686842592E+03 -0.37956432119E+03  0.47378443351E+03  0.17117177461E+03 0.  0.
         24    2    3    3    0    0 -0.38611243112E+02 -0.17107981438E+03 -0.16805922547E+03  0.25586757460E+03  0.80406352241E+02 0.  0.
         -6    2    1    2    0  502  0.63803800276E+02  0.21686842592E+03  0.44305138546E+02  0.28764881145E+03  0.17226739197E+03 0.  0.
        -24    2    5    5    0    0 -0.26373434011E+02  0.76086880280E+02 -0.32154040417E+02  0.10374809578E+03  0.56965021636E+02 0.  0.
          5    1    3    3  501    0 -0.25192557164E+02 -0.45788611539E+02 -0.21150509572E+03  0.21791685891E+03  0.47000000000E+01 0. -1.
        -13    1    4    4    0    0 -0.41425884618E+02 -0.31431112668E+02 -0.59089387178E+02  0.78711971370E+02  0.00000000000E+00 0.  1.
         14    1    4    4    0    0  0.28146415061E+01 -0.13964870171E+03 -0.10896983829E+03  0.17715560322E+03  0.00000000000E+00 0. -1.
         -5    1    5    5    0  502  0.90177234287E+02  0.14078154564E+03  0.76459178963E+02  0.18390071567E+03  0.47000000000E+01 0.  1.
         11    1    6    6    0    0 -0.92226616778E+01 -0.70155177880E+01 -0.11693369838E+02  0.16462377605E+02  0.00000000000E+00 0. -1.
        -12    1    6    6    0    0 -0.17150772333E+02  0.83102398068E+02 -0.20460670579E+02  0.87285718172E+02  0.00000000000E+00 0.  1.
</event>
<event>
12    1  0.8633375E-002  0.2056047E+03  0.7818608E-02  0.1149772E+00
         21   -1    0    0  501  502  0.00000000000E+00  0.00000000000E+00  0.14401323183E+03  0.14401323183E+03  0.00000000000E+00 0.  1.
         21   -1    0    0  502  503 -0.00000000000E+00 -0.00000000000E+00 -0.38790741407E+03  0.38790741407E+03  0.00000000000E+00 0.  1.
         -6    2    1    2    0  503  0.69978891142E+02  0.11749464788E+02 -0.27705904078E+03  0.34501449935E+03  0.19297201237E+03 0.  0.
        -24    2    3    3    0    0  0.16716489131E+01  0.51079341286E+02 -0.23919342424E+03  0.25744387961E+03  0.80324114901E+02 0.  0.
          6    2    1    2  501    0 -0.69978891142E+02 -0.11749464788E+02  0.33164858536E+02  0.18690614655E+03  0.16970240024E+03 0.  0.
         24    2    5    5    0    0  0.12775769153E+02  0.30292985824E+02 -0.37327278021E+01  0.86909029934E+02  0.80363928224E+02 0.  0.
          5    1    5    5  501    0 -0.82754660295E+02 -0.42042450611E+02  0.36897586338E+02  0.99997116616E+02  0.47000000000E+01 0. -1.
        -13    1    6    6    0    0 -0.17306363050E+02  0.21958437717E+02  0.29959712050E+02  0.40978866933E+02  0.00000000000E+00 0.  1.
         14    1    6    6    0    0  0.30082132203E+02  0.83345481066E+01 -0.33692439852E+02  0.45930163000E+02  0.00000000000E+00 0. -1.
         -5    1    3    3    0  503  0.68307242229E+02 -0.39329876499E+02 -0.37865616542E+02  0.87570619744E+02  0.47000000000E+01 0.  1.
         11    1    4    4    0    0 -0.42865605513E+01 -0.15285964556E+02 -0.10003572453E+02  0.18764508403E+02  0.00000000000E+00 0. -1.
        -12    1    4    4    0    0  0.59582094644E+01  0.66365305842E+02 -0.22918985178E+03  0.23867937121E+03  0.00000000000E+00 0.  1.
</event>
<event>
12    1  0.8633375E-002  0.2120306E+03  0.7818608E-02  0.1140423E+00
         21   -1    0    0  501  502  0.00000000000E+00  0.00000000000E+00  0.15018372582E+04  0.15018372582E+04  0.00000000000E+00 0.  1.
         21   -1    0    0  502  503 -0.00000000000E+00 -0.00000000000E+00 -0.11134558028E+03  0.11134558028E+03  0.00000000000E+00 0.  1.
         -6    2    1    2    0  503  0.96923349916E+01 -0.12465633001E+03  0.31579882912E+01  0.20974001491E+03  0.16836792746E+03 0.  0.
        -24    2    3    3    0    0 -0.35095321792E+01 -0.15324487334E+03 -0.13562042763E+02  0.17377831938E+03  0.80738263934E+02 0.  0.
          6    2    1    2  501    0 -0.96923349916E+01  0.12465633001E+03  0.13873336896E+04  0.14034428236E+04  0.17124208210E+03 0.  0.
         24    2    5    5    0    0 -0.65931815083E+02  0.80112409041E+02  0.68860176353E+03  0.70102170019E+03  0.80585563738E+02 0.  0.
          5    1    5    5  501    0  0.56239480092E+02  0.44543920965E+02  0.69873192612E+03  0.70242112340E+03  0.47000000000E+01 0. -1.
        -13    1    6    6    0    0 -0.63546095467E+02  0.93373363185E+02  0.53287826025E+03  0.54471637707E+03  0.00000000000E+00 0.  1.
         14    1    6    6    0    0 -0.23857196163E+01 -0.13260954144E+02  0.15572350327E+03  0.15630532312E+03  0.00000000000E+00 0. -1.
         -5    1    3    3    0  503  0.13201867171E+02  0.28588543334E+02  0.16720031054E+02  0.35961695527E+02  0.47000000000E+01 0.  1.
         11    1    4    4    0    0 -0.41970442096E+02 -0.87035734021E+02 -0.54516349977E+01  0.96780459446E+02  0.00000000000E+00 0. -1.
        -12    1    4    4    0    0  0.38460909917E+02 -0.66209139319E+02 -0.81104077649E+01  0.76997859938E+02  0.00000000000E+00 0.  1.
</event>
<event>
12    1  0.8633375E-002  0.1867699E+03  0.7818608E-02  0.1161689E+00
         21   -1    0    0  503  502  0.00000000000E+00  0.00000000000E+00  0.10011220830E+03  0.10011220830E+03  0.00000000000E+00 0.  1.
         21   -1    0    0  501  503 -0.00000000000E+00 -0.00000000000E+00 -0.34858526740E+03  0.34858526740E+03  0.00000000000E+00 0.  1.
          6    2    1    2  501    0 -0.67192050328E+02  0.18135631458E+02 -0.14330187481E+03  0.23541116582E+03  0.17331854175E+03 0.  0.
         24    2    3    3    0    0 -0.53055815056E+02 -0.55277036687E+02 -0.82185655190E+02  0.13873368503E+03  0.81376182915E+02 0.  0.
         -6    2    1    2    0  502  0.67192050328E+02 -0.18135631458E+02 -0.10517118430E+03  0.21328630988E+03  0.17200697433E+03 0.  0.
        -24    2    5    5    0    0  0.76704558646E+02 -0.25417227224E+02 -0.13765448407E+03  0.17834687349E+03  0.79556429913E+02 0.  0.
          5    1    3    3  501    0 -0.14136235272E+02  0.73412668145E+02 -0.61116219617E+02  0.96677480791E+02  0.47000000000E+01 0. -1.
        -13    1    4    4    0    0 -0.12886921258E+02  0.52057661966E+01  0.12990825825E+02  0.19024570871E+02  0.00000000000E+00 0.  1.
         14    1    4    4    0    0 -0.40168893799E+02 -0.60482802884E+02 -0.95176481014E+02  0.11970911416E+03  0.00000000000E+00 0. -1.
         -5    1    5    5    0  502 -0.95125083177E+01  0.72815957666E+01  0.32483299772E+02  0.34939436394E+02  0.47000000000E+01 0.  1.
         13    1    6    6    0    0  0.66718386646E+02  0.11684416835E+02 -0.55193101272E+02  0.87373606664E+02  0.00000000000E+00 0. -1.
        -14    1    6    6    0    0  0.99861719998E+01 -0.37101644059E+02 -0.82461382802E+02  0.90973266824E+02  0.00000000000E+00 0.  1.
</event>
<event>
12    1  0.8633375E-002  0.2192199E+03  0.7818608E-02  0.1135851E+00
         21   -1    0    0  503  502  0.00000000000E+00  0.00000000000E+00  0.63481344085E+03  0.63481344085E+03  0.00000000000E+00 0. -1.
         21   -1    0    0  501  503 -0.00000000000E+00 -0.00000000000E+00 -0.74125170436E+02  0.74125170436E+02  0.00000000000E+00 0.  1.
          6    2    1    2  501    0 -0.72381323553E+02  0.10079489499E+03  0.31493598755E+03  0.37961876878E+03  0.17183441593E+03 0.  0.
         24    2    3    3    0    0  0.27499539437E+02  0.40772630637E+02  0.10794508308E+03  0.14203471304E+03  0.78122254626E+02 0.  0.
         -6    2    1    2    0  502  0.72381323553E+02 -0.10079489499E+03  0.24575228286E+03  0.32931984250E+03  0.18071720251E+03 0.  0.
        -24    2    5    5    0    0  0.47952018129E+02 -0.95555504870E+02  0.67228746323E+02  0.14899517622E+03  0.79054460036E+02 0.  0.
          5    1    3    3  501    0 -0.99880862990E+02  0.60022264349E+02  0.20699090447E+03  0.23758405574E+03  0.47000000000E+01 0. -1.
        -11    1    4    4    0    0  0.44959330985E+02  0.39943475361E+02  0.40853961393E+02  0.72703980827E+02  0.00000000000E+00 0.  1.
         12    1    4    4    0    0 -0.17459791549E+02  0.82915527669E+00  0.67091121690E+02  0.69330732212E+02  0.00000000000E+00 0. -1.
         -5    1    5    5    0  502  0.24429305424E+02 -0.52393901157E+01  0.17852353653E+03  0.18032466628E+03  0.47000000000E+01 0.  1.
         11    1    6    6    0    0  0.12965261233E+02 -0.12375698707E+02  0.55104270442E+02  0.57945979483E+02  0.00000000000E+00 0. -1.
        -12    1    6    6    0    0  0.34986756896E+02 -0.83179806163E+02  0.12124475881E+02  0.91049196739E+02  0.00000000000E+00 0.  1.
</event>
<event>
12    1  0.8633375E-002  0.2089608E+03  0.7818608E-02  0.1142975E+00
         21   -1    0    0  503  502  0.00000000000E+00  0.00000000000E+00  0.16548524339E+04  0.16548524339E+04  0.00000000000E+00 0.  1.
         21   -1    0    0  501  503 -0.00000000000E+00 -0.00000000000E+00 -0.26042698294E+02  0.26042698294E+02  0.00000000000E+00 0.  1.
          6    2    1    2  501    0 -0.67837162626E+01  0.11806523300E+03  0.84468635779E+03  0.87014922843E+03  0.17227657601E+03 0.  0.
         24    2    3    3    0    0  0.38101356530E+02  0.79132837136E+02  0.73769185637E+03  0.74767345718E+03  0.84336257552E+02 0.  0.
         -6    2    1    2    0  502  0.67837162626E+01 -0.11806523300E+03  0.78412337783E+03  0.81074590378E+03  0.16874249847E+03 0.  0.
        -24    2    5    5    0    0 -0.95476903281E+01 -0.87843455461E+02  0.26505853273E+03  0.29052434127E+03  0.79628738794E+02 0.  0.
          5    1    3    3  501    0 -0.44885072792E+02  0.38932395867E+02  0.10699450142E+03  0.12247577124E+03  0.47000000000E+01 0. -1.
        -11    1    4    4    0    0 -0.17693100227E+02  0.33253833795E+01  0.42749592261E+02  0.46385683231E+02  0.00000000000E+00 0.  1.
         12    1    4    4    0    0  0.55794456757E+02  0.75807453756E+02  0.69494226411E+03  0.70128777395E+03  0.00000000000E+00 0. -1.
         -5    1    5    5    0  502  0.16331406591E+02 -0.30221777542E+02  0.51906484510E+03  0.52022156251E+03  0.47000000000E+01 0.  1.
         13    1    6    6    0    0 -0.30692185000E+02 -0.77247401743E+02  0.24745175828E+03  0.26103935330E+03  0.00000000000E+00 0. -1.
        -14    1    6    6    0    0  0.21144494672E+02 -0.10596053718E+02  0.17606774455E+02  0.29484987978E+02  0.00000000000E+00 0.  1.
</event>
<event>
12    1  0.8633375E-002  0.2044408E+03  0.7818608E-02  0.1146096E+00
         21   -1    0    0  501  502  0.00000000000E+00  0.00000000000E+00  0.29462933543E+03  0.29462933543E+03  0.00000000000E+00 0.  1.
         21   -1    0    0  502  503 -0.00000000000E+00 -0.00000000000E+00 -0.21604808192E+03  0.21604808192E+03  0.00000000000E+00 0. -1.
         -6    2    1    2    0  503  0.10419727117E+02 -0.10972011578E+03 -0.11052234860E+03  0.23218825319E+03  0.17189857726E+03 0.  0.
        -24    2    3    3    0    0 -0.55260706934E+02 -0.32554732473E+02 -0.65333531743E+02  0.12113630604E+03  0.79321988971E+02 0.  0.
          6    2    1    2  501    0 -0.10419727117E+02  0.10972011578E+03  0.18910360211E+03  0.27848916416E+03  0.17218875604E+03 0.  0.
         24    2    5    5    0    0  0.95489875356E+01  0.11767445885E+03  0.73169353327E+02  0.16048551515E+03  0.80395179448E+02 0.  0.
          5    1    5    5  501    0 -0.19968714652E+02 -0.79543430749E+01  0.11593424879E+03  0.11800364901E+03  0.47000000000E+01 0. -1.
        -11    1    6    6    0    0 -0.19809313768E+01  0.98583906338E+02  0.89244617469E+02  0.13299365558E+03  0.00000000000E+00 0.  1.
         12    1    6    6    0    0  0.11529918912E+02  0.19090552512E+02 -0.16075264142E+02  0.27491859569E+02  0.00000000000E+00 0. -1.
         -5    1    3    3    0  503  0.65680434050E+02 -0.77165383303E+02 -0.45188816856E+02  0.11105194715E+03  0.47000000000E+01 0.  1.
         11    1    4    4    0    0 -0.30262038035E+02 -0.25006335149E+02 -0.81473194704E+02  0.90437764230E+02  0.00000000000E+00 0. -1.
        -12    1    4    4    0    0 -0.24998668899E+02 -0.75483973241E+01  0.16139662962E+02  0.30698541812E+02  0.00000000000E+00 0.  1.
</event>
<event>
12    1  0.8633375E-002  0.1788142E+03  0.7818608E-02  0.1169741E+00
         21   -1    0    0  503  502  0.00000000000E+00  0.00000000000E+00  0.69801067538E+03  0.69801067538E+03  0.00000000000E+00 0. -1.
         21   -1    0    0  501  503 -0.00000000000E+00 -0.00000000000E+00 -0.65571585796E+02  0.65571585796E+02  0.00000000000E+00 0. -1.
          6    2    1    2  501    0 -0.35186838221E+02 -0.19510448328E+01  0.10430592882E+03  0.20701263083E+03  0.17530710874E+03 0.  0.
         24    2    3    3    0    0  0.32223538506E+02  0.39522694540E+02  0.79330474433E+02  0.12388566005E+03  0.80336372684E+02 0.  0.
         -6    2    1    2    0  502  0.35186838221E+02  0.19510448328E+01  0.52813316076E+03  0.55656963035E+03  0.17205579841E+03 0.  0.
        -24    2    5    5    0    0 -0.24614948812E+02 -0.37368692680E+02  0.39099652474E+03  0.40180903319E+03  0.81054931391E+02 0.  0.
          5    1    3    3  501    0 -0.67410376727E+02 -0.41473739373E+02  0.24975454387E+02  0.83126970773E+02  0.47000000000E+01 0. -1.
        -11    1    4    4    0    0  0.10867770735E+02  0.45515670267E+02  0.88321172666E+02  0.99952059618E+02  0.00000000000E+00 0.  1.
         12    1    4    4    0    0  0.21355767771E+02 -0.59929757276E+01 -0.89906982336E+01  0.23933600437E+02  0.00000000000E+00 0. -1.
         -5    1    5    5    0  502  0.59801787033E+02  0.39319737513E+02  0.13713663602E+03  0.15476059715E+03  0.47000000000E+01 0.  1.
         11    1    6    6    0    0  0.25022614933E+02 -0.34801992047E+02  0.17704958061E+03  0.18216438703E+03  0.00000000000E+00 0. -1.
        -12    1    6    6    0    0 -0.49637563745E+02 -0.25667006330E+01  0.21394694413E+03  0.21964464616E+03  0.00000000000E+00 0.  1.
</event>
<event>
12    1  0.8633375E-002  0.1754818E+03  0.7818608E-02  0.1173901E+00
         21   -1    0    0  501  502  0.00000000000E+00  0.00000000000E+00  0.12835272142E+03  0.12835272142E+03  0.00000000000E+00 0.  1.
         21   -1    0    0  502  503 -0.00000000000E+00 -0.00000000000E+00 -0.29746137407E+03  0.29746137407E+03  0.00000000000E+00 0.  1.
         -6    2    1    2    0  503  0.31128922644E+02  0.27456818779E+01 -0.18383192961E+03  0.24971576543E+03  0.16609405939E+03 0.  0.
        -24    2    3    3    0    0  0.11695798490E+02  0.53387478968E+02 -0.16450139204E+03  0.19194035881E+03  0.82421955473E+02 0.  0.
          6    2    1    2  501    0 -0.31128922644E+02 -0.27456818779E+01  0.14723276959E+02  0.17609833006E+03  0.17267686114E+03 0.  0.
         24    2    5    5    0    0 -0.10819700196E+02  0.17292710889E+02  0.74053396821E+02  0.11009715716E+03  0.78875691264E+02 0.  0.
          5    1    5    5  501    0 -0.20309222447E+02 -0.20038392767E+02 -0.59330119862E+02  0.66001172898E+02  0.47000000000E+01 0. -1.
        -11    1    6    6    0    0 -0.37824286018E+02  0.12447404077E+02  0.10965903521E+02  0.41302124898E+02  0.00000000000E+00 0.  1.
         12    1    6    6    0    0  0.27004585822E+02  0.48453068128E+01  0.63087493300E+02  0.68795032265E+02  0.00000000000E+00 0. -1.
         -5    1    3    3    0  503  0.19433124154E+02 -0.50641797090E+02 -0.19330537565E+02  0.57775406614E+02  0.47000000000E+01 0.  1.
         11    1    4    4    0    0 -0.35205349252E+02  0.26701752738E+02 -0.62455521095E+02  0.76505505230E+02  0.00000000000E+00 0. -1.
        -12    1    4    4    0    0  0.46901147742E+02  0.26685726230E+02 -0.10204587095E+03  0.11543485358E+03  0.00000000000E+00 0.  1.
</event>
<event>
12    1  0.8633375E-002  0.2596005E+03  0.7818608E-02  0.1107536E+00
         21   -1    0    0  501  502  0.00000000000E+00  0.00000000000E+00  0.41373007455E+03  0.41373007455E+03  0.00000000000E+00 0. -1.
         21   -1    0    0  502  503 -0.00000000000E+00 -0.00000000000E+00 -0.79160239214E+03  0.79160239214E+03  0.00000000000E+00 0. -1.
         -6    2    1    2    0  503 -0.18058777391E+03  0.68563391480E+02 -0.72637431383E+03  0.77137024605E+03  0.17343451202E+03 0.  0.
        -24    2    3    3    0    0 -0.18909959354E+03  0.91890677822E+02 -0.56559428874E+03  0.60861607612E+03  0.79461158466E+02 0.  0.
          6    2    1    2  501    0  0.18058777391E+03 -0.68563391480E+02  0.34850199625E+03  0.43396222064E+03  0.17192057707E+03 0.  0.
         24    2    5    5    0    0  0.13411861446E+03 -0.61291103604E+02  0.34892034179E+03  0.38669136320E+03  0.77720031747E+02 0.  0.
          5    1    5    5  501    0  0.46469159443E+02 -0.72722878767E+01 -0.41834553809E+00  0.47270857442E+02  0.47000000000E+01 0. -1.
        -11    1    6    6    0    0  0.23315636083E+02 -0.42599436940E+02  0.15652194831E+03  0.16388243108E+03  0.00000000000E+00 0.  1.
         12    1    6    6    0    0  0.11080297838E+03 -0.18691666664E+02  0.19239839347E+03  0.22280893212E+03  0.00000000000E+00 0. -1.
         -5    1    3    3    0  503  0.85118196348E+01 -0.23327286341E+02 -0.16078002509E+03  0.16275416993E+03  0.47000000000E+01 0.  1.
         13    1    4    4    0    0 -0.90098183600E+02  0.63122705747E+02 -0.38771124361E+03  0.40301633601E+03  0.00000000000E+00 0. -1.
        -14    1    4    4    0    0 -0.99001409942E+02  0.28767972075E+02 -0.17788304513E+03  0.20559974011E+03  0.00000000000E+00 0.  1.
</event>
<event>
12    1  0.8633375E-002  0.1753003E+03  0.7818608E-02  0.1172467E+00
         21   -1    0    0  503  502  0.00000000000E+00  0.00000000000E+00  0.91041813124E+03  0.91041813124E+03  0.00000000000E+00 0.  1.
         21   -1    0    0  501  503 -0.00000000000E+00 -0.00000000000E+00 -0.14381250799E+03  0.14381250799E+03  0.00000000000E+00 0.  1.
          6    2    1    2  501    0 -0.29026979623E+02 -0.18897970100E+02 -0.77918534774E+02  0.19170455075E+03  0.17169635377E+03 0.  0.
         24    2    3    3    0    0 -0.51768311633E+00  0.14832516198E+02 -0.10890762273E+03  0.13754793282E+03  0.82693965941E+02 0.  0.
         -6    2    1    2    0  502  0.29026979623E+02  0.18897970100E+02  0.84452415802E+03  0.86252608848E+03  0.17184440931E+03 0.  0.
        -24    2    5    5    0    0 -0.47204537927E+02  0.16846395854E+01  0.35458718247E+03  0.36637301430E+03  0.79158127941E+02 0.  0.
          5    1    3    3  501    0 -0.28509296507E+02 -0.33730486298E+02  0.30989087953E+02  0.54156617928E+02  0.47000000000E+01 0. -1.
        -11    1    4    4    0    0 -0.34858194926E+02 -0.97844303384E+01 -0.75327729308E+02  0.83576884563E+02  0.00000000000E+00 0.  1.
         12    1    4    4    0    0  0.34340511810E+02  0.24616946537E+02 -0.33579893419E+02  0.53971048259E+02  0.00000000000E+00 0. -1.
         -5    1    5    5    0  502  0.76231517551E+02  0.17213330515E+02  0.48993697555E+03  0.49615307419E+03  0.47000000000E+01 0.  1.
         13    1    6    6    0    0 -0.16607692264E+02  0.25243429070E+02  0.43893118358E+02  0.53288385158E+02  0.00000000000E+00 0. -1.
        -14    1    6    6    0    0 -0.30596845664E+02 -0.23558789485E+02  0.31069406412E+03  0.31308462914E+03  0.00000000000E+00 0.  1.
</event>
<event>
12    1  0.8633375E-002  0.1791401E+03  0.7818608E-02  0.1172790E+00
         21   -1    0    0  503  502  0.00000000000E+00  0.00000000000E+00  0.60261329593E+03  0.60261329593E+03  0.00000000000E+00 0. -1.
         21   -1    0    0  501  503 -0.00000000000E+00 -0.00000000000E+00 -0.52655263222E+02  0.52655263222E+02  0.00000000000E+00 0. -1.
          6    2    1    2  501    0  0.43984555871E+02  0.91477447178E+01  0.19553001954E+03  0.26518515965E+03  0.17341527606E+03 0.  0.
         24    2    3    3    0    0  0.57736044705E+02 -0.53992140862E+02  0.10814803886E+03  0.15640350153E+03  0.80730755284E+02 0.  0.
         -6    2    1    2    0  502 -0.43984555871E+02 -0.91477447178E+01  0.35442801316E+03  0.39008339949E+03  0.15661264208E+03 0.  0.
        -24    2    5    5    0    0 -0.79869212697E+01  0.33822218790E+02  0.11238887478E+03  0.14159339574E+03  0.78801631617E+02 0.  0.
          5    1    3    3  501    0 -0.13751488835E+02  0.63139885580E+02  0.87381980685E+02  0.10878165813E+03  0.47000000000E+01 0. -1.
        -13    1    4    4    0    0 -0.16343268297E+02  0.42653336287E+01  0.73788969083E+01  0.18432135231E+02  0.00000000000E+00 0.  1.
         14    1    4    4    0    0  0.74079313003E+02 -0.58257474491E+02  0.10076914195E+03  0.13797136630E+03  0.00000000000E+00 0. -1.
         -5    1    5    5    0  502 -0.35997634601E+02 -0.42969963508E+02  0.24203913838E+03  0.24849000376E+03  0.47000000000E+01 0.  1.
         11    1    6    6    0    0 -0.28536343728E+02 -0.15634338498E+02  0.44301661389E+02  0.54967196176E+02  0.00000000000E+00 0. -1.
        -12    1    6    6    0    0  0.20549422459E+02  0.49456557289E+02  0.68087213396E+02  0.86626199560E+02  0.00000000000E+00 0.  1.
</event>
<event>
12    1  0.8633375E-002  0.2219711E+03  0.7818608E-02  0.1132469E+00
         21   -1    0    0  501  502  0.00000000000E+00  0.00000000000E+00  0.13086693396E+03  0.13086693396E+03  0.00000000000E+00 0. -1.
         21   -1    0    0  502  503 -0.00000000000E+00 -0.00000000000E+00 -0.37649426969E+03  0.37649426969E+03  0.00000000000E+00 0.  1.
         -6    2    1    2    0  503  0.73358401944E+02  0.11928039835E+03 -0.11413841300E+03  0.24936793314E+03  0.17189392132E+03 0.  0.
        -24    2    3    3    0    0 -0.22537879905E+02  0.36362255765E+02 -0.76093854670E+02  0.11692551674E+03  0.77789022822E+02 0.  0.
          6    2    1    2  501    0 -0.73358401944E+02 -0.11928039835E+03 -0.13148892273E+03  0.25799327052E+03  0.17222636926E+03 0.  0.
         24    2    5    5    0    0 -0.11778219099E+03 -0.99166594616E+02 -0.11063036007E+03  0.20474660142E+03  0.77300945803E+02 0.  0.
          5    1    5    5  501    0  0.44423789047E+02 -0.20113803732E+02 -0.20858562659E+02  0.53246669098E+02  0.47000000000E+01 0. -1.
        -13    1    6    6    0    0 -0.15770839668E+02 -0.52706781263E+02 -0.14040775140E+02  0.56779111841E+02  0.00000000000E+00 0.  1.
         14    1    6    6    0    0 -0.10201135132E+03 -0.46459813353E+02 -0.96589584932E+02  0.14796748958E+03  0.00000000000E+00 0. -1.
         -5    1    3    3    0  503  0.95896281849E+02  0.82918142582E+02 -0.38044558333E+02  0.13244241640E+03  0.47000000000E+01 0.  1.
         11    1    4    4    0    0 -0.39315719845E+02 -0.74285597230E+01 -0.23257374581E+02  0.46279745017E+02  0.00000000000E+00 0. -1.
        -12    1    4    4    0    0  0.16777839940E+02  0.43790815488E+02 -0.52836480089E+02  0.70645771723E+02  0.00000000000E+00 0.  1.
</event>
<event>
12    1  0.8633375E-002  0.1858092E+03  0.7818608E-02  0.1163074E+00
         21   -1    0    0  503  502  0.00000000000E+00  0.00000000000E+00  0.20349241113E+03  0.20349241113E+03  0.00000000000E+00 0.  1.
         21   -1    0    0  501  503 -0.00000000000E+00 -0.00000000000E+00 -0.27514826263E+03  0.27514826263E+03  0.00000000000E+00 0.  1.
          6    2    1    2  501    0 -0.12834842945E+02 -0.61129902111E+02 -0.18591310278E+03  0.26051279175E+03  0.17146904897E+03 0.  0.
         24    2    3    3    0    0 -0.47065257016E+02 -0.59059009670E+02 -0.50853989488E+02  0.12108874818E+03  0.79832647755E+02 0.  0.
         -6    2    1    2    0  502  0.12834842945E+02  0.61129902111E+02  0.11425725127E+03  0.21812788201E+03  0.17499558656E+03 0.  0.
        -24    2    5    5    0    0 -0.45025570489E+02  0.33490728330E+02  0.14239384213E+02  0.99227019513E+02  0.80587284709E+02 0.  0.
          5    1    3    3  501    0  0.34230414071E+02 -0.20708924414E+01 -0.13505911329E+03  0.13942404357E+03  0.47000000000E+01 0. -1.
        -13    1    4    4    0    0 -0.15103060467E+02 -0.70982766586E+02 -0.47667114621E+02  0.86826317462E+02  0.00000000000E+00 0.  1.
         14    1    4    4    0    0 -0.31962196549E+02  0.11923756916E+02 -0.31868748671E+01  0.34262430717E+02  0.00000000000E+00 0. -1.
         -5    1    5    5    0  502  0.57860413435E+02  0.27639173781E+02  0.10001786706E+03  0.11890086249E+03  0.47000000000E+01 0.  1.
         13    1    6    6    0    0 -0.29566703082E+02  0.59513402636E+02  0.17677519819E+02  0.68764305649E+02  0.00000000000E+00 0. -1.
        -14    1    6    6    0    0 -0.15458867407E+02 -0.26022674305E+02 -0.34381356065E+01  0.30462713864E+02  0.00000000000E+00 0.  1.
</event>
<event>
12    1  0.8633375E-002  0.3118703E+03  0.7818608E-02  0.1079578E+00
         21   -1    0    0  501  502  0.00000000000E+00  0.00000000000E+00  0.22384079620E+03  0.22384079620E+03  0.00000000000E+00 0.  1.
         21   -1    0    0  502  503 -0.00000000000E+00 -0.00000000000E+00 -0.45049199096E+03  0.45049199096E+03  0.00000000000E+00 0.  1.
         -6    2    1    2    0  503 -0.21840351394E+03  0.14126488576E+03 -0.47181490565E+02  0.31541907258E+03  0.17206753165E+03 0.  0.
        -24    2    3    3    0    0 -0.88826249702E+02  0.21545039496E+01 -0.37138393462E+02  0.12498556835E+03  0.79670493304E+02 0.  0.
          6    2    1    2  501    0  0.21840351394E+03 -0.14126488576E+03 -0.17946970420E+03  0.35891371458E+03  0.17015821148E+03 0.  0.
         24    2    5    5    0    0  0.68904763366E+02 -0.10918509104E+03 -0.52385200663E+02  0.16003799788E+03  0.78731829622E+02 0.  0.
          5    1    5    5  501    0  0.14949875057E+03 -0.32079794717E+02 -0.12708450354E+03  0.19887571670E+03  0.47000000000E+01 0. -1.
        -13    1    6    6    0    0  0.39144194290E+02 -0.65236172613E+02 -0.70731323906E+02  0.10387947990E+03  0.00000000000E+00 0.  1.
         14    1    6    6    0    0  0.29760569076E+02 -0.43948918430E+02  0.18346123243E+02  0.56158517974E+02  0.00000000000E+00 0. -1.
         -5    1    3    3    0  503 -0.12957726424E+03  0.13911038181E+03 -0.10043097103E+02  0.19043350423E+03  0.47000000000E+01 0.  1.
         11    1    4    4    0    0 -0.39561362938E+02  0.97712600070E+01  0.23062944509E+02  0.46823908093E+02  0.00000000000E+00 0. -1.
        -12    1    4    4    0    0 -0.49264886763E+02 -0.76167560574E+01 -0.60201337970E+02  0.78161660257E+02  0.00000000000E+00 0.  1.
</event>
<event>
12    1  0.8633375E-002  0.1836905E+03  0.7818608E-02  0.1165232E+00
         21   -1    0    0  501  502  0.00000000000E+00  0.00000000000E+00  0.40907814700E+02  0.40907814700E+02  0.00000000000E+00 0.  1.
         21   -1    0    0  502  503 -0.00000000000E+00 -0.00000000000E+00 -0.87215836120E+03  0.87215836120E+03  0.00000000000E+00 0.  1.
         -6    2    1    2    0  503  0.38407055304E+02  0.40755418415E+02 -0.53620132830E+03  0.56550865658E+03  0.17073977326E+03 0.  0.
        -24    2    3    3    0    0  0.69326513028E+02  0.82277758006E+02 -0.43484151891E+03  0.45159632840E+03  0.57238993628E+02 0.  0.
          6    2    1    2  501    0 -0.38407055304E+02 -0.40755418415E+02 -0.29504921820E+03  0.34755751932E+03  0.17494594035E+03 0.  0.
         24    2    5    5    0    0  0.13044632706E+01 -0.78400687211E+02 -0.12402194263E+03  0.16792848503E+03  0.81671074749E+02 0.  0.
          5    1    5    5  501    0 -0.39711518574E+02  0.37645268796E+02 -0.17102727557E+03  0.17962903429E+03  0.47000000000E+01 0. -1.
        -13    1    6    6    0    0 -0.97104439618E+01  0.14559808296E+02 -0.33038228947E+02  0.37387234606E+02  0.00000000000E+00 0.  1.
         14    1    6    6    0    0  0.11014907232E+02 -0.92960495507E+02 -0.90983713681E+02  0.13054125042E+03  0.00000000000E+00 0. -1.
         -5    1    3    3    0  503 -0.30919457724E+02 -0.41522339590E+02 -0.10135980939E+03  0.11391232818E+03  0.47000000000E+01 0.  1.
         11    1    4    4    0    0 -0.47885629583E+01  0.35484593255E+01 -0.35059548554E+01  0.69147392024E+01  0.00000000000E+00 0. -1.
        -12    1    4    4    0    0  0.74115075986E+02  0.78729298680E+02 -0.43133556405E+03  0.44468158920E+03  0.00000000000E+00 0.  1.
</event>
<event>
12    1  0.8633375E-002  0.1797515E+03  0.7818608E-02  0.1168206E+00
         21   -1    0    0  503  502  0.00000000000E+00  0.00000000000E+00  0.30871651873E+04  0.30871651873E+04  0.00000000000E+00 0.  1.
         21   -1    0    0  501  503 -0.00000000000E+00 -0.00000000000E+00 -0.15990579851E+02  0.15990579851E+02  0.00000000000E+00 0.  1.
          6    2    1    2  501    0  0.12122914382E+02  0.48439248600E+02  0.61853469288E+03  0.64393777100E+03  0.17198069880E+03 0.  0.
         24    2    3    3    0    0  0.71978204434E+00 -0.57308111045E+01  0.13130301656E+03  0.15354892201E+03  0.79394137137E+02 0.  0.
         -6    2    1    2    0  502 -0.12122914382E+02 -0.48439248600E+02  0.24526399146E+04  0.24592179962E+04  0.17267679701E+03 0.  0.
        -24    2    5    5    0    0  0.66819306226E+01  0.16173493845E+01  0.21645476766E+04  0.21661676374E+04  0.83476493527E+02 0.  0.
          5    1    3    3  501    0  0.11403132338E+02  0.54170059705E+02  0.48723167632E+03  0.49038884898E+03  0.47000000000E+01 0. -1.
        -13    1    4    4    0    0  0.10713993554E+02  0.35403389728E+02  0.67726286828E+02  0.77168902996E+02  0.00000000000E+00 0.  1.
         14    1    4    4    0    0 -0.99942115098E+01 -0.41134200832E+02  0.63576729732E+02  0.76380019018E+02  0.00000000000E+00 0. -1.
         -5    1    5    5    0  502 -0.18804845005E+02 -0.50056597985E+02  0.28809223800E+03  0.29305035880E+03  0.47000000000E+01 0.  1.
         13    1    6    6    0    0  0.10988438769E+02  0.30921657431E+01  0.39533137102E+02  0.41148222376E+02  0.00000000000E+00 0. -1.
        -14    1    6    6    0    0 -0.43065081465E+01 -0.14748163586E+01  0.21250145395E+04  0.21250194150E+04  0.00000000000E+00 0.  1.
</event>
<event>
12    1  0.8633375E-002  0.2267241E+03  0.7818608E-02  0.1128968E+00
         21   -1    0    0  503  502  0.00000000000E+00  0.00000000000E+00  0.51640133792E+03  0.51640133792E+03  0.00000000000E+00 0.  1.
         21   -1    0    0  501  503 -0.00000000000E+00 -0.00000000000E+00 -0.20027820875E+03  0.20027820875E+03  0.00000000000E+00 0.  1.
          6    2    1    2  501    0  0.55221807606E+02  0.13705498747E+03 -0.96082224070E+02  0.24623605768E+03  0.17195023900E+03 0.  0.
         24    2    3    3    0    0  0.86743604776E+02  0.56264760408E+02 -0.97099985370E+02  0.15938094658E+03  0.72689082681E+02 0.  0.
         -6    2    1    2    0  502 -0.55221807606E+02 -0.13705498747E+03  0.41220535324E+03  0.47044348899E+03  0.17196018571E+03 0.  0.
        -24    2    5    5    0    0 -0.18761520123E+02 -0.22966610892E+02  0.28008637962E+03  0.29205340120E+03  0.77248619721E+02 0.  0.
          5    1    3    3  501    0 -0.31521797170E+02  0.80790227060E+02  0.10177613002E+01  0.86855111095E+02  0.47000000000E+01 0. -1.
        -13    1    4    4    0    0  0.25948001413E+02  0.28421254802E+02  0.34363538388E+01  0.38637740999E+02  0.00000000000E+00 0.  1.
         14    1    4    4    0    0  0.60795603363E+02  0.27843505606E+02 -0.10053633921E+03  0.12074320558E+03  0.00000000000E+00 0. -1.
         -5    1    5    5    0  502 -0.36460287483E+02 -0.11408837658E+03  0.13211897362E+03  0.17839008779E+03  0.47000000000E+01 0.  1.
         13    1    6    6    0    0 -0.31732699305E+01 -0.43365593094E+02  0.24353782611E+03  0.24738899946E+03  0.00000000000E+00 0. -1.
        -14    1    6    6    0    0 -0.15588250192E+02  0.20398982202E+02  0.36548553506E+02  0.44664401735E+02  0.00000000000E+00 0.  1.
</event>
<event>
12    1  0.8633375E-002  0.1762299E+03  0.7818608E-02  0.1171788E+00
         21   -1    0    0  501  502  0.00000000000E+00  0.00000000000E+00  0.57281751400E+02  0.57281751400E+02  0.00000000000E+00 0.  1.
         21   -1    0    0  502  503 -0.00000000000E+00 -0.00000000000E+00 -0.57793921271E+03  0.57793921271E+03  0.00000000000E+00 0.  1.
         -6    2    1    2    0  503  0.23097282554E+02  0.21335746851E+02 -0.34232987134E+03  0.38450654669E+03  0.17224066035E+03 0.  0.
        -24    2    3    3    0    0  0.71915311098E+01  0.67734710865E+02 -0.12916313532E+03  0.16571896904E+03  0.78357845784E+02 0.  0.
          6    2    1    2  501    0 -0.23097282554E+02 -0.21335746851E+02 -0.17832758997E+03  0.25071441742E+03  0.17340210842E+03 0.  0.
         24    2    5    5    0    0 -0.72263027723E+02 -0.33418442107E+02 -0.73604181088E+02  0.13429988057E+03  0.79247365882E+02 0.  0.
          5    1    5    5  501    0  0.49165745169E+02  0.12082695256E+02 -0.10472340888E+03  0.11641453685E+03  0.47000000000E+01 0. -1.
        -13    1    6    6    0    0 -0.37244290410E+02  0.59808841170E+01  0.66294679533E+01  0.38299582090E+02  0.00000000000E+00 0.  1.
         14    1    6    6    0    0 -0.35018737313E+02 -0.39399326224E+02 -0.80233649041E+02  0.96000298481E+02  0.00000000000E+00 0. -1.
         -5    1    3    3    0  503  0.15905751444E+02 -0.46398964014E+02 -0.21316673602E+03  0.21878757765E+03  0.47000000000E+01 0.  1.
         13    1    4    4    0    0 -0.35553016469E+02  0.34433588039E+02 -0.66046582689E+02  0.82533872139E+02  0.00000000000E+00 0. -1.
        -14    1    4    4    0    0  0.42744547579E+02  0.33301122826E+02 -0.63116552634E+02  0.83185096896E+02  0.00000000000E+00 0.  1.
</event>
<event>
12    1  0.8633375E-002  0.2024520E+03  0.7818608E-02  0.1147736E+00
         21   -1    0    0  503  502  0.00000000000E+00  0.00000000000E+00  0.24758897411E+04  0.24758897411E+04  0.00000000000E+00 0.  1.
         21   -1    0    0  501  503 -0.00000000000E+00 -0.00000000000E+00 -0.16597564073E+02  0.16597564073E+02  0.00000000000E+00 0.  1.
          6    2    1    2  501    0 -0.83459692616E+02  0.65022528344E+02  0.13068492090E+04  0.13224377694E+04  0.17260750069E+03 0.  0.
         24    2    3    3    0    0 -0.32234303400E+02  0.10348768217E+03  0.76283699953E+03  0.77464676669E+03  0.80053573404E+02 0.  0.
         -6    2    1    2    0  502  0.83459692616E+02 -0.65022528344E+02  0.11524429680E+04  0.11700495358E+04  0.17233012565E+03 0.  0.
        -24    2    5    5    0    0  0.93594262024E+02  0.10714376792E+02  0.58524638856E+03  0.59770974333E+03  0.76608864979E+02 0.  0.
          5    1    3    3  501    0 -0.51225389216E+02 -0.38465153824E+02  0.54401220948E+03  0.54779100269E+03  0.47000000000E+01 0. -1.
        -13    1    4    4    0    0 -0.36516413476E+02  0.40499681955E+02  0.54852911190E+03  0.55123303538E+03  0.00000000000E+00 0.  1.
         14    1    4    4    0    0  0.42821100760E+01  0.62988000214E+02  0.21430788763E+03  0.22341373131E+03  0.00000000000E+00 0. -1.
         -5    1    5    5    0  502 -0.10134569408E+02 -0.75736905136E+02  0.56719657949E+03  0.57233979250E+03  0.47000000000E+01 0.  1.
         11    1    6    6    0    0  0.87403304207E+02 -0.16041310982E+02  0.36046215946E+03  0.37125413081E+03  0.00000000000E+00 0. -1.
        -12    1    6    6    0    0  0.61909578173E+01  0.26755687773E+02  0.22478422910E+03  0.22645561252E+03  0.00000000000E+00 0.  1.
</event>
<event>
12    1  0.8633375E-002  0.2289710E+03  0.7818608E-02  0.1128849E+00
         21   -1    0    0  501  502  0.00000000000E+00  0.00000000000E+00  0.87571098353E+02  0.87571098353E+02  0.00000000000E+00 0. -1.
         21   -1    0    0  502  503 -0.00000000000E+00 -0.00000000000E+00 -0.67002211645E+03  0.67002211645E+03  0.00000000000E+00 0.  1.
         -6    2    1    2    0  503  0.11690182027E+03 -0.75541406902E+02 -0.14582416318E+03  0.26457116889E+03  0.17134957573E+03 0.  0.
        -24    2    3    3    0    0 -0.13293491388E+02 -0.25280286657E+02 -0.34409475897E+02  0.85930966451E+02  0.73377851950E+02 0.  0.
          6    2    1    2  501    0 -0.11690182027E+03  0.75541406902E+02 -0.43662685492E+03  0.49302204591E+03  0.18181085661E+03 0.  0.
         24    2    5    5    0    0 -0.11683619665E+03  0.67924063482E+02 -0.44775151636E+03  0.47874351939E+03  0.10222309772E+03 0.  0.
          5    1    5    5  501    0 -0.65623619150E-01  0.76173434202E+01  0.11124661446E+02  0.14278526518E+02  0.47000000000E+01 0. -1.
        -11    1    6    6    0    0 -0.19824970562E+02 -0.24991603397E+02 -0.12813034582E+03  0.13204164199E+03  0.00000000000E+00 0.  1.
         12    1    6    6    0    0 -0.97011226087E+02  0.92915666879E+02 -0.31962117054E+03  0.34670187741E+03  0.00000000000E+00 0. -1.
         -5    1    3    3    0  503  0.13019531166E+03 -0.50261120245E+02 -0.11141468728E+03  0.17864020244E+03  0.47000000000E+01 0.  1.
         13    1    4    4    0    0 -0.32856536907E+02  0.10317500832E+02 -0.29703506332E+01  0.34566252673E+02  0.00000000000E+00 0. -1.
        -14    1    4    4    0    0  0.19563045519E+02 -0.35597787489E+02 -0.31439125264E+02  0.51364713778E+02  0.00000000000E+00 0.  1.
</event>
<event>
12    1  0.8633375E-002  0.2892898E+03  0.7818608E-02  0.1090847E+00
         21   -1    0    0  503  502  0.00000000000E+00  0.00000000000E+00  0.18279292097E+03  0.18279292097E+03  0.00000000000E+00 0. -1.
         21   -1    0    0  501  503 -0.00000000000E+00 -0.00000000000E+00 -0.50391844344E+03  0.50391844344E+03  0.00000000000E+00 0.  1.
          6    2    1    2  501    0 -0.22699068398E+03 -0.49960355933E+02 -0.26633806305E+03  0.39322331578E+03  0.17224344535E+03 0.  0.
         24    2    3    3    0    0 -0.14633908398E+03 -0.37723869148E+02 -0.81091793477E+02  0.19075681835E+03  0.83510879374E+02 0.  0.
         -6    2    1    2    0  502  0.22699068398E+03  0.49960355933E+02 -0.54787459417E+02  0.29348804863E+03  0.17062462073E+03 0.  0.
        -24    2    5    5    0    0  0.98415084781E+02 -0.89715020612E+01  0.28991188722E+02  0.12903258207E+03  0.77736101333E+02 0.  0.
          5    1    3    3  501    0 -0.80651600004E+02 -0.12236486784E+02 -0.18524626957E+03  0.20246649743E+03  0.47000000000E+01 0. -1.
        -13    1    4    4    0    0 -0.17567999000E+02  0.13453053404E+02  0.10664596556E+02  0.24563241937E+02  0.00000000000E+00 0.  1.
         14    1    4    4    0    0 -0.12877108498E+03 -0.51176922553E+02 -0.91756390033E+02  0.16619357641E+03  0.00000000000E+00 0. -1.
         -5    1    5    5    0  502  0.12857559920E+03  0.58931857994E+02 -0.83778648140E+02  0.16445546656E+03  0.47000000000E+01 0.  1.
         11    1    6    6    0    0  0.11999496261E+02 -0.15666371929E+02  0.37056692302E+02  0.41983586844E+02  0.00000000000E+00 0. -1.
        -12    1    6    6    0    0  0.86415588520E+02  0.66948698680E+01 -0.80655035794E+01  0.87048995226E+02  0.00000000000E+00 0.  1.
</event>
<event>
12    1  0.8633375E-002  0.1959873E+03  0.7818608E-02  0.1153303E+00
         21   -1    0    0  503  502  0.00000000000E+00  0.00000000000E+00  0.32095224371E+03  0.32095224371E+03  0.00000000000E+00 0. -1.
         21   -1    0    0  501  503 -0.00000000000E+00 -0.00000000000E+00 -0.19716097530E+03  0.19716097530E+03  0.00000000000E+00 0.  1.
          6    2    1    2  501    0  0.70729852042E+02  0.61114237304E+02 -0.10095554126E+03  0.21991506975E+03  0.17156035271E+03 0.  0.
         24    2    3    3    0    0  0.45652419474E+02  0.70119886315E+02 -0.13443804327E+03  0.17686687259E+03  0.78786809057E+02 0.  0.
         -6    2    1    2    0  502 -0.70729852042E+02 -0.61114237304E+02  0.22474680967E+03  0.29819814926E+03  0.17225953035E+03 0.  0.
        -24    2    5    5    0    0 -0.34303662713E+02  0.32989573878E+02  0.85533670896E+02  0.12619587441E+03  0.79651344003E+02 0.  0.
          5    1    3    3  501    0  0.25077432568E+02 -0.90056490116E+01  0.33482502010E+02  0.43048197165E+02  0.47000000000E+01 0. -1.
        -13    1    4    4    0    0 -0.13472958255E+02  0.25614396377E+01 -0.55986961605E+02  0.57642184613E+02  0.00000000000E+00 0.  1.
         14    1    4    4    0    0  0.59125377729E+02  0.67558446678E+02 -0.78451081661E+02  0.11922468798E+03  0.00000000000E+00 0. -1.
         -5    1    5    5    0  502 -0.36426189329E+02 -0.94103811182E+02  0.13921313877E+03  0.17200227485E+03  0.47000000000E+01 0.  1.
         11    1    6    6    0    0 -0.38368505198E+02  0.40346884863E+02  0.97080569138E+02  0.11191358369E+03  0.00000000000E+00 0. -1.
        -12    1    6    6    0    0  0.40648424855E+01 -0.73573109853E+01 -0.11546898242E+02  0.14282290726E+02  0.00000000000E+00 0.  1.
</event>
<event>
12    1  0.8633375E-002  0.1850970E+03  0.7818608E-02  0.1163206E+00
         21   -1    0    0  501  502  0.00000000000E+00  0.00000000000E+00  0.15260215807E+03  0.15260215807E+03  0.00000000000E+00 0. -1.
         21   -1    0    0  502  503 -0.00000000000E+00 -0.00000000000E+00 -0.32130403931E+03  0.32130403931E+03  0.00000000000E+00 0. -1.
         -6    2    1    2    0  503 -0.52902909517E+02  0.42954134522E+02 -0.21509183589E+03  0.28308448449E+03  0.17096359843E+03 0.  0.
        -24    2    3    3    0    0  0.23343950276E+02  0.60903983127E+02 -0.10339200640E+03  0.14657542765E+03  0.80871588506E+02 0.  0.
          6    2    1    2  501    0  0.52902909517E+02 -0.42954134522E+02  0.46389954640E+02  0.19082171289E+03  0.17209626001E+03 0.  0.
         24    2    5    5    0    0  0.39282425135E+02 -0.46769511176E+02  0.95985751250E+02  0.13903457418E+03  0.79917784471E+02 0.  0.
          5    1    5    5  501    0  0.13620484382E+02  0.38153766540E+01 -0.49595796610E+02  0.51787138704E+02  0.47000000000E+01 0. -1.
        -11    1    6    6    0    0  0.23848320645E+02  0.18090091875E+02  0.13131101824E+02  0.32686689291E+02  0.00000000000E+00 0.  1.
         12    1    6    6    0    0  0.15434104490E+02 -0.64859603051E+02  0.82854649426E+02  0.10634788489E+03  0.00000000000E+00 0. -1.
         -5    1    3    3    0  503 -0.76246859793E+02 -0.17949848604E+02 -0.11169982948E+03  0.13650905684E+03  0.47000000000E+01 0.  1.
         13    1    4    4    0    0 -0.12600935590E+02 -0.43265386952E+01 -0.57655279175E+02  0.59174603772E+02  0.00000000000E+00 0. -1.
        -14    1    4    4    0    0  0.35944885866E+02  0.65230521822E+02 -0.45736727230E+02  0.87400823880E+02  0.00000000000E+00 0.  1.
</event>
<event>
12    1  0.8633375E-002  0.1901475E+03  0.7818608E-02  0.1159320E+00
         21   -1    0    0  501  502  0.00000000000E+00  0.00000000000E+00  0.49914896131E+02  0.49914896131E+02  0.00000000000E+00 0. -1.
         21   -1    0    0  502  503 -0.00000000000E+00 -0.00000000000E+00 -0.77726325097E+03  0.77726325097E+03  0.00000000000E+00 0.  1.
         -6    2    1    2    0  503  0.33208592518E+02  0.66373177476E+02 -0.48340427368E+03  0.51788089424E+03  0.17033120531E+03 0.  0.
        -24    2    3    3    0    0 -0.32558693064E+02 -0.29021224938E+00 -0.16854261967E+03  0.18935495227E+03  0.79928284021E+02 0.  0.
          6    2    1    2  501    0 -0.33208592518E+02 -0.66373177476E+02 -0.24394408116E+03  0.30929725286E+03  0.17506532092E+03 0.  0.
         24    2    5    5    0    0 -0.47911850723E+02 -0.40346029773E+02 -0.25724624977E+03  0.27624220924E+03  0.78808486755E+02 0.  0.
          5    1    5    5  501    0  0.14703258205E+02 -0.26027147702E+02  0.13302168610E+02  0.33055043625E+02  0.47000000000E+01 0. -1.
        -13    1    6    6    0    0 -0.10537092501E+02  0.20401749890E+02 -0.11319364033E+03  0.11549918584E+03  0.00000000000E+00 0.  1.
         14    1    6    6    0    0 -0.37374758222E+02 -0.60747779663E+02 -0.14405260944E+03  0.16074302340E+03  0.00000000000E+00 0. -1.
         -5    1    3    3    0  503  0.65767285583E+02  0.66663389725E+02 -0.31486165400E+03  0.32852594196E+03  0.47000000000E+01 0.  1.
         11    1    4    4    0    0 -0.24046879958E+01 -0.96363839089E+01  0.62497270073E+01  0.11734628535E+02  0.00000000000E+00 0. -1.
        -12    1    4    4    0    0 -0.30154005068E+02  0.93461716595E+01 -0.17479234668E+03  0.17762032374E+03  0.00000000000E+00 0.  1.
</event>
<event>
12    1  0.8633375E-002  0.2297272E+03  0.7818608E-02  0.1127122E+00
         21   -1    0    0  503  502  0.00000000000E+00  0.00000000000E+00  0.11759464815E+04  0.11759464815E+04  0.00000000000E+00 0.  1.
         21   -1    0    0  501  503 -0.00000000000E+00 -0.00000000000E+00 -0.65884124222E+02  0.65884124222E+02  0.00000000000E+00 0. -1.
          6    2    1    2  501    0  0.11672717506E+03 -0.95759559865E+02  0.20042661404E+03  0.30363458373E+03  0.17096200197E+03 0.  0.
         24    2    3    3    0    0 -0.73000352889E+01 -0.44182387717E+02  0.99900212869E+02  0.13579358479E+03  0.80339723912E+02 0.  0.
         -6    2    1    2    0  502 -0.11672717506E+03  0.95759559865E+02  0.90963574323E+03  0.93819602199E+03  0.17314578715E+03 0.  0.
        -24    2    5    5    0    0 -0.14680786108E+03  0.65748708849E+02  0.80748637930E+03  0.82746173912E+03  0.82360404131E+02 0.  0.
          5    1    3    3  501    0  0.12402721035E+03 -0.51577172148E+02  0.10052640117E+03  0.16784099894E+03  0.47000000000E+01 0. -1.
        -13    1    4    4    0    0 -0.11288428726E+01  0.16381367573E+02  0.61874217223E+02  0.64015953065E+02  0.00000000000E+00 0.  1.
         14    1    4    4    0    0 -0.61711924163E+01 -0.60563755291E+02  0.38025995646E+02  0.71777631722E+02  0.00000000000E+00 0. -1.
         -5    1    5    5    0  502  0.30080686020E+02  0.30010851016E+02  0.10214936394E+03  0.11073428287E+03  0.47000000000E+01 0.  1.
         11    1    6    6    0    0 -0.20153382952E+02 -0.15328083940E+02  0.20196195531E+03  0.20354296940E+03  0.00000000000E+00 0. -1.
        -12    1    6    6    0    0 -0.12665447813E+03  0.81076792789E+02  0.60552442399E+03  0.62391876972E+03  0.00000000000E+00 0.  1.
</event>
<event>
12    1  0.8633375E-002  0.1787812E+03  0.7818608E-02  0.1169465E+00
         21   -1    0    0  501  502  0.00000000000E+00  0.00000000000E+00  0.32545340554E+03  0.32545340554E+03  0.00000000000E+00 0. -1.
         21   -1    0    0  502  503 -0.00000000000E+00 -0.00000000000E+00 -0.97161648022E+02  0.97161648022E+02  0.00000000000E+00 0. -1.
         -6    2    1    2    0  503 -0.40362838547E+02 -0.61679220527E+01  0.11210967014E+03  0.21102436641E+03  0.17405603432E+03 0.  0.
        -24    2    3    3    0    0 -0.67714178164E+02  0.49134196608E+02  0.56745902682E+02  0.12799631782E+03  0.78508475354E+02 0.  0.
          6    2    1    2  501    0  0.40362838547E+02  0.61679220527E+01  0.11618208738E+03  0.21159068715E+03  0.17206144095E+03 0.  0.
         24    2    5    5    0    0  0.60189389486E+02  0.52881836699E+02  0.11344563808E+03  0.16055285708E+03  0.80548468993E+02 0.  0.
          5    1    5    5  501    0 -0.19826550939E+02 -0.46713914646E+02  0.27364493021E+01  0.51037830072E+02  0.47000000000E+01 0. -1.
        -11    1    6    6    0    0 -0.18599982229E+02  0.67230820950E+01  0.87411732029E+01  0.21623304113E+02  0.00000000000E+00 0.  1.
         12    1    6    6    0    0  0.78789371715E+02  0.46158754604E+02  0.10470446488E+03  0.13892955296E+03  0.00000000000E+00 0. -1.
         -5    1    3    3    0  503  0.27351339617E+02 -0.55302118661E+02  0.55363767454E+02  0.83028048597E+02  0.47000000000E+01 0.  1.
         13    1    4    4    0    0 -0.67458243574E+01 -0.87640937427E+01 -0.14189819136E+02  0.17990732406E+02  0.00000000000E+00 0. -1.
        -14    1    4    4    0    0 -0.60968353806E+02  0.57898290351E+02  0.70935721819E+02  0.11000558541E+03  0.00000000000E+00 0.  1.
</event>
<event>
12    1  0.8633375E-002  0.1866238E+03  0.7818608E-02  0.1162214E+00
         21   -1    0    0  503  502  0.00000000000E+00  0.00000000000E+00  0.16618092130E+03  0.16618092130E+03  0.00000000000E+00 0.  1.
         21   -1    0    0  501  503 -0.00000000000E+00 -0.00000000000E+00 -0.43028773635E+03  0.43028773635E+03  0.00000000000E+00 0.  1.
          6    2    1    2  501    0  0.50897258039E+02 -0.41678467189E+02 -0.34769169272E+03  0.39461112170E+03  0.17464477858E+03 0.  0.
         24    2    3    3    0    0  0.14934025245E+02 -0.52734124550E+02 -0.34276378481E+03  0.35637558916E+03  0.80700900689E+02 0.  0.
         -6    2    1    2    0  502 -0.50897258039E+02  0.41678467189E+02  0.83584877668E+02  0.20185753595E+03  0.17155875828E+03 0.  0.
        -24    2    5    5    0    0 -0.10449767928E+01 -0.11723327099E+02  0.93372921847E+02  0.12800025881E+03  0.86758488611E+02 0.  0.
          5    1    3    3  501    0  0.35963232794E+02  0.11055657361E+02 -0.49279079134E+01  0.38235532546E+02  0.47000000000E+01 0. -1.
        -13    1    4    4    0    0 -0.22372330745E+02 -0.18741871837E+02 -0.24123698426E+03  0.24299601132E+03  0.00000000000E+00 0.  1.
         14    1    4    4    0    0  0.37306355990E+02 -0.33992252712E+02 -0.10152680054E+03  0.11337957784E+03  0.00000000000E+00 0. -1.
         -5    1    5    5    0  502 -0.49852281246E+02  0.53401794288E+02 -0.97880441784E+01  0.73857277146E+02  0.47000000000E+01 0.  1.
         13    1    6    6    0    0  0.16570553982E+02 -0.21432693412E+02 -0.50371022926E+01  0.27555689170E+02  0.00000000000E+00 0. -1.
        -14    1    6    6    0    0 -0.17615530775E+02  0.97093663122E+01  0.98410024139E+02  0.10044456964E+03  0.00000000000E+00 0.  1.
</event>
<event>
12    1  0.8633375E-002  0.2065607E+03  0.7818608E-02  0.1144895E+00
         21   -1    0    0  501  502  0.00000000000E+00  0.00000000000E+00  0.33710647722E+03  0.33710647722E+03  0.00000000000E+00 0. -1.
         21   -1    0    0  502  503 -0.00000000000E+00 -0.00000000000E+00 -0.23958652796E+03  0.23958652796E+03  0.00000000000E+00 0.  1.
         -6    2    1    2    0  503 -0.61821121692E+02 -0.92304219952E+02 -0.15061147845E+03  0.25563870469E+03  0.17414192427E+03 0.  0.
        -24    2    3    3    0    0 -0.82017850687E+02 -0.11560402076E+03 -0.89669486436E+02  0.18717846097E+03  0.83089963333E+02 0.  0.
          6    2    1    2  501    0  0.61821121692E+02  0.92304219952E+02  0.24813142772E+03  0.32105430049E+03  0.17077686709E+03 0.  0.
         24    2    5    5    0    0  0.62791862974E+02  0.12745697282E+03  0.22015413819E+03  0.27587159249E+03  0.86308707588E+02 0.  0.
          5    1    5    5  501    0 -0.97074128195E+00 -0.35152752867E+02  0.27977289529E+02  0.45182708000E+02  0.47000000000E+01 0. -1.
        -13    1    6    6    0    0  0.42827628527E+02  0.99140694286E+02  0.88172984450E+02  0.13941864372E+03  0.00000000000E+00 0.  1.
         14    1    6    6    0    0  0.19964234447E+02  0.28316278533E+02  0.13198115374E+03  0.13645294877E+03  0.00000000000E+00 0. -1.
         -5    1    3    3    0  503  0.20196728995E+02  0.23299800806E+02 -0.60941992018E+02  0.68460243725E+02  0.47000000000E+01 0.  1.
         13    1    4    4    0    0  0.14526464315E+02 -0.50912432603E+01 -0.36705562307E+00  0.15397196280E+02  0.00000000000E+00 0. -1.
        -14    1    4    4    0    0 -0.96544315003E+02 -0.11051277750E+03 -0.89302430813E+02  0.17178126469E+03  0.00000000000E+00 0.  1.
</event>
<event>
12    1  0.8633375E-002  0.1905112E+03  0.7818608E-02  0.1158812E+00
         21   -1    0    0  501  502  0.00000000000E+00  0.00000000000E+00  0.15225094168E+03  0.15225094168E+03  0.00000000000E+00 0.  1.
         21   -1    0    0  502  503 -0.00000000000E+00 -0.00000000000E+00 -0.56916043748E+03  0.56916043748E+03  0.00000000000E+00 0.  1.
         -6    2    1    2    0  503  0.28397706069E+02 -0.69605772091E+02 -0.48446266398E+03  0.51927789712E+03  0.17115510050E+03 0.  0.
        -24    2    3    3    0    0 -0.45603329772E+02 -0.56558130238E+02 -0.32514130294E+03  0.34306274355E+03  0.81833326660E+02 0.  0.
          6    2    1    2  501    0 -0.28397706069E+02  0.69605772091E+02  0.67553168179E+02  0.20213348204E+03  0.17505176609E+03 0.  0.
         24    2    5    5    0    0 -0.31388361887E+01 -0.19842249578E+02  0.80289112730E+02  0.10820130773E+03  0.69696586786E+02 0.  0.
          5    1    5    5  501    0 -0.25258869880E+02  0.89448021669E+02 -0.12735944550E+02  0.93932174316E+02  0.47000000000E+01 0. -1.
        -13    1    6    6    0    0 -0.32171272644E+02 -0.96784618266E+01  0.16599847512E+02  0.37472901466E+02  0.00000000000E+00 0.  1.
         14    1    6    6    0    0  0.29032436455E+02 -0.10163787752E+02  0.63689265218E+02  0.70728406260E+02  0.00000000000E+00 0. -1.
         -5    1    3    3    0  503  0.74001035841E+02 -0.13047641853E+02 -0.15932136104E+03  0.17621515357E+03  0.47000000000E+01 0.  1.
         13    1    4    4    0    0 -0.28414045632E+02 -0.66394223447E+02 -0.30953484235E+03  0.31784802898E+03  0.00000000000E+00 0. -1.
        -14    1    4    4    0    0 -0.17189284140E+02  0.98360932085E+01 -0.15606460592E+02  0.25214714575E+02  0.00000000000E+00 0.  1.
</event>
<event>
12    1  0.8633375E-002  0.2304001E+03  0.7818608E-02  0.1126938E+00
         21   -1    0    0  503  502  0.00000000000E+00  0.00000000000E+00  0.22409691482E+03  0.22409691482E+03  0.00000000000E+00 0.  1.
         21   -1    0    0  501  503 -0.00000000000E+00 -0.00000000000E+00 -0.27611042446E+03  0.27611042446E+03  0.00000000000E+00 0. -1.
          6    2    1    2  501    0  0.61681676172E+02  0.13629051812E+03 -0.12406810176E+03  0.25880296881E+03  0.17089864917E+03 0.  0.
         24    2    3    3    0    0  0.27064624006E+02  0.49887496714E+02 -0.13312766826E+03  0.16516543278E+03  0.79595150158E+02 0.  0.
         -6    2    1    2    0  502 -0.61681676172E+02 -0.13629051812E+03  0.72054592122E+02  0.24140437047E+03  0.17522691383E+03 0.  0.
        -24    2    5    5    0    0 -0.83419410156E+02 -0.99255461283E+02  0.10721207298E+02  0.16638438241E+03  0.10372258114E+03 0.  0.
          5    1    3    3  501    0  0.34617052166E+02  0.86403021407E+02  0.90595665003E+01  0.93637536032E+02  0.47000000000E+01 0. -1.
        -13    1    4    4    0    0  0.11994071189E+02  0.31744277797E+01  0.86545585817E+01  0.15127330222E+02  0.00000000000E+00 0.  1.
         14    1    4    4    0    0  0.15070552818E+02  0.46713068934E+02 -0.14178222684E+03  0.15003810256E+03  0.00000000000E+00 0. -1.
         -5    1    5    5    0  502  0.21737733984E+02 -0.37035056838E+02  0.61333384825E+02  0.75019988055E+02  0.47000000000E+01 0.  1.
         11    1    6    6    0    0 -0.74559562627E+02 -0.11163231647E+03  0.34083345919E+02  0.13850118024E+03  0.00000000000E+00 0. -1.
        -12    1    6    6    0    0 -0.88598475287E+01  0.12376855182E+02 -0.23362138622E+02  0.27883202173E+02  0.00000000000E+00 0.  1.
</event>
<event>
12    1  0.8633375E-002  0.2327831E+03  0.7818608E-02  0.1125607E+00
         21   -1    0    0  503  502  0.00000000000E+00  0.00000000000E+00  0.87297314241E+03  0.87297314241E+03  0.00000000000E+00 0.  1.
         21   -1    0    0  501  503 -0.00000000000E+00 -0.00000000000E+00 -0.61138207006E+02  0.61138207006E+02  0.00000000000E+00 0. -1.
          6    2    1    2  501    0  0.12588270778E+03 -0.79890416920E+02  0.44111455291E+03  0.49636534302E+03  0.17195223213E+03 0.  0.
         24    2    3    3    0    0  0.14133184219E+03 -0.97005096518E+02  0.31019003175E+03  0.36334313340E+03  0.80098055071E+02 0.  0.
         -6    2    1    2    0  502 -0.12588270778E+03  0.79890416920E+02  0.37072038249E+03  0.43774600639E+03  0.17877088488E+03 0.  0.
        -24    2    5    5    0    0 -0.13751506528E+03  0.56010694057E+02  0.18094589268E+03  0.24606397831E+03  0.75884611854E+02 0.  0.
          5    1    3    3  501    0 -0.15449134409E+02  0.17114679598E+02  0.13092452116E+03  0.13302220962E+03  0.47000000000E+01 0. -1.
        -13    1    4    4    0    0  0.14240111336E+03 -0.66023252751E+02  0.27320541138E+03  0.31508466132E+03  0.00000000000E+00 0.  1.
         14    1    4    4    0    0 -0.10692711701E+01 -0.30981843767E+02  0.36984620370E+02  0.48258472085E+02  0.00000000000E+00 0. -1.
         -5    1    5    5    0  502  0.11632357498E+02  0.23879722863E+02  0.18977448981E+03  0.19168202808E+03  0.47000000000E+01 0.  1.
         13    1    6    6    0    0 -0.11809221512E+03  0.73833773977E+02  0.16178420386E+03  0.21347441549E+03  0.00000000000E+00 0. -1.
        -14    1    6    6    0    0 -0.19422850165E+02 -0.17823079920E+02  0.19161688827E+02  0.32589562825E+02  0.00000000000E+00 0.  1.
</event>
<event>
12    1  0.8633375E-002  0.1933512E+03  0.7818608E-02  0.1156258E+00
         21   -1    0    0  503  502  0.00000000000E+00  0.00000000000E+00  0.36736381163E+03  0.36736381163E+03  0.00000000000E+00 0.  1.
         21   -1    0    0  501  503 -0.00000000000E+00 -0.00000000000E+00 -0.13628004051E+03  0.13628004051E+03  0.00000000000E+00 0.  1.
          6    2    1    2  501    0  0.86318461968E+02 -0.18960157698E+02 -0.13752818508E+02  0.19383973229E+03  0.17197190858E+03 0.  0.
         24    2    3    3    0    0  0.77418192603E+02  0.47270462506E+02  0.13248412196E+02  0.12161185466E+03  0.79911511044E+02 0.  0.
         -6    2    1    2    0  502 -0.86318461968E+02  0.18960157698E+02  0.24483658962E+03  0.30980411985E+03  0.16799783511E+03 0.  0.
        -24    2    5    5    0    0  0.24835941948E+01  0.45503554622E+02  0.80316727069E+02  0.12091464880E+03  0.78056607176E+02 0.  0.
          5    1    3    3  501    0  0.89002693648E+01 -0.66230620204E+02 -0.27001230704E+02  0.72227877630E+02  0.47000000000E+01 0. -1.
        -13    1    4    4    0    0  0.75895123751E+02  0.20256963174E+02 -0.17682085884E+02  0.80517516898E+02  0.00000000000E+00 0.  1.
         14    1    4    4    0    0  0.15230688528E+01  0.27013499332E+02  0.30930498080E+02  0.41094337765E+02  0.00000000000E+00 0. -1.
         -5    1    5    5    0  502 -0.88802056163E+02 -0.26543396924E+02  0.16451986255E+03  0.18888947105E+03  0.47000000000E+01 0.  1.
         13    1    6    6    0    0  0.83474637341E+01  0.51522962486E+02  0.92443536623E+02  0.10616074264E+03  0.00000000000E+00 0. -1.
        -14    1    6    6    0    0 -0.58638695394E+01 -0.60194078642E+01 -0.12126809555E+02  0.14753906160E+02  0.00000000000E+00 0.  1.
</event>
<event>
12    1  0.8633375E-002  0.1933598E+03  0.7818608E-02  0.1155595E+00
         21   -1    0    0  501  502  0.00000000000E+00  0.00000000000E+00  0.38432647137E+03  0.38432647137E+03  0.00000000000E+00 0. -1.
         21   -1    0    0  502  503 -0.00000000000E+00 -0.00000000000E+00 -0.25632895112E+03  0.25632895112E+03  0.00000000000E+00 0. -1.
         -6    2    1    2    0  503  0.27209895747E+02 -0.84721023947E+02 -0.18852280020E+03  0.27005346451E+03  0.17166827655E+03 0.  0.
        -24    2    3    3    0    0  0.67863772520E+02 -0.41476230351E+02 -0.35247652027E+02  0.10562046625E+03  0.59895881435E+02 0.  0.
          6    2    1    2  501    0 -0.27209895747E+02  0.84721023947E+02  0.31652032044E+03  0.37060195798E+03  0.17100487618E+03 0.  0.
         24    2    5    5    0    0 -0.63582656510E+02  0.43744441825E+02  0.13267332908E+03  0.17870650665E+03  0.91528535820E+02 0.  0.
          5    1    5    5  501    0  0.36372760763E+02  0.40976582123E+02  0.18384699137E+03  0.19189545133E+03  0.47000000000E+01 0. -1.
        -11    1    6    6    0    0 -0.55794794505E+02 -0.29831502994E+01  0.11552227119E+03  0.12832518623E+03  0.00000000000E+00 0.  1.
         12    1    6    6    0    0 -0.77878620048E+01  0.46727592124E+02  0.17151057888E+02  0.50381320418E+02  0.00000000000E+00 0. -1.
         -5    1    3    3    0  503 -0.40653876774E+02 -0.43244793596E+02 -0.15327514817E+03  0.16443299826E+03  0.47000000000E+01 0.  1.
         11    1    4    4    0    0 -0.20046207776E+01 -0.28412757573E+02 -0.97173861269E+01  0.30095363272E+02  0.00000000000E+00 0. -1.
        -12    1    4    4    0    0  0.69868393298E+02 -0.13063472778E+02 -0.25530265900E+02  0.75525102979E+02  0.00000000000E+00 0.  1.
</event>
<event>
12    1  0.8633375E-002  0.2160540E+03  0.7818608E-02  0.1138329E+00
         21   -1    0    0  501  502  0.00000000000E+00  0.00000000000E+00  0.43511603451E+03  0.43511603451E+03  0.00000000000E+00 0.  1.
         21   -1    0    0  502  503 -0.00000000000E+00 -0.00000000000E+00 -0.11005841385E+03  0.11005841385E+03  0.00000000000E+00 0. -1.
         -6    2    1    2    0  503  0.11709778876E+03 -0.57422839894E+02  0.93582972491E+02  0.22853610060E+03  0.16267053163E+03 0.  0.
        -24    2    3    3    0    0  0.95368926596E+02 -0.96975029724E+02  0.48892731182E+02  0.16485072677E+03  0.79283506504E+02 0.  0.
          6    2    1    2  501    0 -0.11709778876E+03  0.57422839894E+02  0.23147464817E+03  0.31663834777E+03  0.17224998071E+03 0.  0.
         24    2    5    5    0    0 -0.11787981946E+03  0.93221977886E+01  0.92638678481E+02  0.16962882487E+03  0.78800115913E+02 0.  0.
          5    1    5    5  501    0  0.78203069855E+00  0.48100642106E+02  0.13883596969E+03  0.14700952290E+03  0.47000000000E+01 0. -1.
        -13    1    6    6    0    0 -0.87084200949E+02 -0.65698646687E+01  0.10146013837E+03  0.13386926778E+03  0.00000000000E+00 0.  1.
         14    1    6    6    0    0 -0.30795618511E+02  0.15892062457E+02 -0.88214598924E+01  0.35759557090E+02  0.00000000000E+00 0. -1.
         -5    1    3    3    0  503  0.21728862166E+02  0.39552189830E+02  0.44690241309E+02  0.63685373828E+02  0.47000000000E+01 0.  1.
         13    1    4    4    0    0  0.53336011199E+02 -0.96257284514E+02  0.53859042302E+02  0.12251935092E+03  0.00000000000E+00 0. -1.
        -14    1    4    4    0    0  0.42032915397E+02 -0.71774521062E+00 -0.49663111200E+01  0.42331375847E+02  0.00000000000E+00 0.  1.
</event>
<event>
12    1  0.8633375E-002  0.2061889E+03  0.7818608E-02  0.1145001E+00
         21   -1    0    0  501  502  0.00000000000E+00  0.00000000000E+00  0.81227296424E+03  0.81227296424E+03  0.00000000000E+00 0. -1.
         21   -1    0    0  502  503 -0.00000000000E+00 -0.00000000000E+00 -0.97873403347E+02  0.97873403347E+02  0.00000000000E+00 0. -1.
         -6    2    1    2    0  503  0.18468490027E+02  0.11430022303E+03  0.44333829499E+02  0.20907438064E+03  0.16834780097E+03 0.  0.
        -24    2    3    3    0    0 -0.10541930092E+02  0.37717163565E+02  0.79791536648E+02  0.11971047031E+03  0.80188469638E+02 0.  0.
          6    2    1    2  501    0 -0.18468490027E+02 -0.11430022303E+03  0.67006573139E+03  0.70107198695E+03  0.17061131378E+03 0.  0.
         24    2    5    5    0    0  0.13078119363E+02 -0.40979995804E+02  0.15671841387E+03  0.18153507518E+03  0.80894530172E+02 0.  0.
          5    1    5    5  501    0 -0.31546609390E+02 -0.73320227230E+02  0.51334731752E+03  0.51953691177E+03  0.47000000000E+01 0. -1.
        -13    1    6    6    0    0 -0.26241636258E+02  0.91999021453E+01  0.50734191400E+02  0.57855162691E+02  0.00000000000E+00 0.  1.
         14    1    6    6    0    0  0.39319755621E+02 -0.50179897949E+02  0.10598422247E+03  0.12367991249E+03  0.00000000000E+00 0. -1.
         -5    1    3    3    0  503  0.29010420119E+02  0.76583059469E+02 -0.35457707149E+02  0.89363910329E+02  0.47000000000E+01 0.  1.
         13    1    4    4    0    0  0.81008427751E+01  0.44795274694E+02  0.93124629195E+01  0.46464634446E+02  0.00000000000E+00 0. -1.
        -14    1    4    4    0    0 -0.18642772867E+02 -0.70781111288E+01  0.70479073729E+02  0.73245835861E+02  0.00000000000E+00 0.  1.
</event>
<event>
12    1  0.8633375E-002  0.1732139E+03  0.7818608E-02  0.1176402E+00
         21   -1    0    0  503  502  0.00000000000E+00  0.00000000000E+00  0.16704983520E+03  0.16704983520E+03  0.00000000000E+00 0.  1.
         21   -1    0    0  501  503 -0.00000000000E+00 -0.00000000000E+00 -0.40603039995E+03  0.40603039995E+03  0.00000000000E+00 0.  1.
          6    2    1    2  501    0 -0.55561547486E+01  0.71373338130E+01 -0.33796468805E+03  0.37976729532E+03  0.17297761657E+03 0.  0.
         24    2    3    3    0    0 -0.99226462243E+01 -0.34245500998E+02 -0.76534657100E+02  0.11500446494E+03  0.78084953564E+02 0.  0.
         -6    2    1    2    0  502  0.55561547486E+01 -0.71373338130E+01  0.98984123300E+02  0.19331293983E+03  0.16580176010E+03 0.  0.
        -24    2    5    5    0    0 -0.57001308494E+02  0.16576986812E+02  0.64010169028E+02  0.11767516694E+03  0.78906257763E+02 0.  0.
          5    1    3    3  501    0  0.43664914756E+01  0.41382834811E+02 -0.26143003095E+03  0.26476283038E+03  0.47000000000E+01 0. -1.
        -11    1    4    4    0    0 -0.31506523747E+02 -0.21868797396E+02 -0.81097372302E+02  0.89708913340E+02  0.00000000000E+00 0.  1.
         12    1    4    4    0    0  0.21583877523E+02 -0.12376703602E+02  0.45627152026E+01  0.25295551605E+02  0.00000000000E+00 0. -1.
         -5    1    5    5    0  502  0.62557463243E+02 -0.23714320625E+02  0.34973954272E+02  0.75637772888E+02  0.47000000000E+01 0.  1.
         11    1    6    6    0    0 -0.19468764311E+02 -0.30217357173E+02  0.37952028319E+02  0.52273108878E+02  0.00000000000E+00 0. -1.
        -12    1    6    6    0    0 -0.37532544183E+02  0.46794343985E+02  0.26058140709E+02  0.65402058064E+02  0.00000000000E+00 0.  1.
</event>
<event>
12    1  0.8633375E-002  0.2266892E+03  0.7818608E-02  0.1129019E+00
         21   -1    0    0  503  502  0.00000000000E+00  0.00000000000E+00  0.97374188748E+02  0.97374188748E+02  0.00000000000E+00 0. -1.
         21   -1    0    0  501  503 -0.00000000000E+00 -0.00000000000E+00 -0.53004530957E+03  0.53004530957E+03  0.00000000000E+00 0. -1.
          6    2    1    2  501    0 -0.13985163505E+03  0.47188103932E+02 -0.19418871671E+03  0.29849160428E+03  0.17205459351E+03 0.  0.
         24    2    3    3    0    0 -0.49179851371E+02  0.35522788795E+02 -0.17976437573E+03  0.20582228063E+03  0.79793822534E+02 0.  0.
         -6    2    1    2    0  502  0.13985163505E+03 -0.47188103932E+02 -0.23848240411E+03  0.32892789404E+03  0.17185606020E+03 0.  0.
        -24    2    5    5    0    0  0.16977549689E+03 -0.27882394358E+02 -0.21146347286E+03  0.28398058516E+03  0.79542599481E+02 0.  0.
          5    1    3    3  501    0 -0.90671783682E+02  0.11665315137E+02 -0.14424340973E+02  0.92669323650E+02  0.47000000000E+01 0. -1.
        -11    1    4    4    0    0  0.18402332823E+02  0.17008769949E+02 -0.22600767537E+02  0.33745204130E+02  0.00000000000E+00 0.  1.
         12    1    4    4    0    0 -0.67582184194E+02  0.18514018846E+02 -0.15716360820E+03  0.17207707650E+03  0.00000000000E+00 0. -1.
         -5    1    5    5    0  502 -0.29923861842E+02 -0.19305709574E+02 -0.27018931258E+02  0.44947308885E+02  0.47000000000E+01 0.  1.
         13    1    6    6    0    0  0.10458814584E+03 -0.22929157609E+02 -0.69398904617E+02  0.12759558958E+03  0.00000000000E+00 0. -1.
        -14    1    6    6    0    0  0.65187351057E+02 -0.49532367489E+01 -0.14206456824E+03  0.15638499557E+03  0.00000000000E+00 0.  1.
</event>
<event>
12    1  0.8633375E-002  0.2554215E+03  0.7818608E-02  0.1110281E+00
         21   -1    0    0  501  502  0.00000000000E+00  0.00000000000E+00  0.21749528057E+03  0.21749528057E+03  0.00000000000E+00 0. -1.
         21   -1    0    0  502  503 -0.00000000000E+00 -0.00000000000E+00 -0.41758063058E+03  0.41758063058E+03  0.00000000000E+00 0.  1.
         -6    2    1    2    0  503 -0.16183482850E+03  0.91740781490E+02 -0.27016455709E+03  0.37021514626E+03  0.17164930500E+03 0.  0.
        -24    2    3    3    0    0 -0.15268131938E+03  0.32307973284E+02 -0.25304641070E+03  0.30751613226E+03  0.78602132332E+02 0.  0.
          6    2    1    2  501    0  0.16183482850E+03 -0.91740781490E+02  0.70079207079E+02  0.26486076489E+03  0.17502356072E+03 0.  0.
         24    2    5    5    0    0  0.18983986184E+03 -0.63038124050E+02  0.64302889141E+02  0.22407375366E+03  0.77853755861E+02 0.  0.
          5    1    5    5  501    0 -0.28005033334E+02 -0.28702657440E+02  0.57763179385E+01  0.40787011230E+02  0.47000000000E+01 0. -1.
        -11    1    6    6    0    0  0.29431804278E+02  0.86785942042E+01  0.33948951492E+02  0.45761123323E+02  0.00000000000E+00 0.  1.
         12    1    6    6    0    0  0.16040805756E+03 -0.71716718254E+02  0.30353937649E+02  0.17831263034E+03  0.00000000000E+00 0. -1.
         -5    1    3    3    0  503 -0.91535091196E+01  0.59432808206E+02 -0.17118146391E+02  0.62699013998E+02  0.47000000000E+01 0.  1.
         13    1    4    4    0    0 -0.28391504075E+02  0.39560415653E+02 -0.90492180047E+02  0.10276156207E+03  0.00000000000E+00 0. -1.
        -14    1    4    4    0    0 -0.12428981531E+03 -0.72524423692E+01 -0.16255423065E+03  0.20475457019E+03  0.00000000000E+00 0.  1.
</event>
<event>
12    1  0.8633375E-002  0.2661347E+03  0.7818608E-02  0.1103588E+00
         21   -1    0    0  501  502  0.00000000000E+00  0.00000000000E+00  0.91328547615E+03  0.91328547615E+03  0.00000000000E+00 0.  1.
         21   -1    0    0  502  503 -0.00000000000E+00 -0.00000000000E+00 -0.11705448494E+03  0.11705448494E+03  0.00000000000E+00 0.  1.
         -6    2    1    2    0  503 -0.51930425897E+02 -0.19644808410E+03  0.98527746380E+02  0.28378756028E+03  0.17186926335E+03 0.  0.
        -24    2    3    3    0    0  0.37990376071E+02 -0.56241875971E+02  0.27141822939E+02  0.10250995138E+03  0.71869286152E+02 0.  0.
          6    2    1    2  501    0  0.51930425897E+02  0.19644808410E+03  0.69770324482E+03  0.74655240081E+03  0.17106153989E+03 0.  0.
         24    2    5    5    0    0 -0.29104066858E+02  0.54357936284E+02  0.23480356240E+03  0.25557948393E+03  0.79914502707E+02 0.  0.
          5    1    5    5  501    0  0.81034492755E+02  0.14209014782E+03  0.46289968242E+03  0.49097291688E+03  0.47000000000E+01 0. -1.
        -11    1    6    6    0    0  0.78812698764E+01  0.61853116293E+02  0.16180584575E+03  0.17340430828E+03  0.00000000000E+00 0.  1.
         12    1    6    6    0    0 -0.36985336735E+02 -0.74951800091E+01  0.72997716650E+02  0.82175175648E+02  0.00000000000E+00 0. -1.
         -5    1    3    3    0  503 -0.89920801968E+02 -0.14020620813E+03  0.71385923441E+02  0.18127760890E+03  0.47000000000E+01 0.  1.
         13    1    4    4    0    0 -0.19093032899E+02 -0.47889339573E+01  0.14907242726E+02  0.24692178507E+02  0.00000000000E+00 0. -1.
        -14    1    4    4    0    0  0.57083408969E+02 -0.51452942014E+02  0.12234580213E+02  0.77817772870E+02  0.00000000000E+00 0.  1.
</event>
<event>
12    1  0.8633375E-002  0.2102186E+03  0.7818608E-02  0.1142034E+00
         21   -1    0    0  503  502  0.00000000000E+00  0.00000000000E+00  0.26332086749E+03  0.26332086749E+03  0.00000000000E+00 0.  1.
         21   -1    0    0  501  503 -0.00000000000E+00 -0.00000000000E+00 -0.17158917838E+03  0.17158917838E+03  0.00000000000E+00 0.  1.
          6    2    1    2  501    0  0.69719927149E+02  0.88901283032E+02  0.87938360698E+02  0.22787062391E+03  0.17727819830E+03 0.  0.
         24    2    3    3    0    0  0.79960308831E+02  0.12323788119E+03  0.46532677914E+02  0.17291256757E+03  0.78436213323E+02 0.  0.
         -6    2    1    2    0  502 -0.69719927149E+02 -0.88901283032E+02  0.37933284093E+01  0.20703942195E+03  0.17345496976E+03 0.  0.
        -24    2    5    5    0    0 -0.83605955954E+02 -0.82191616608E+02  0.54144370640E+02  0.15417015987E+03  0.84210495846E+02 0.  0.
          5    1    3    3  501    0 -0.10240381682E+02 -0.34336598159E+02  0.41405682784E+02  0.54958056343E+02  0.47000000000E+01 0. -1.
        -11    1    4    4    0    0 -0.36423556744E+01  0.42022563265E+00  0.22030942388E+02  0.22333959948E+02  0.00000000000E+00 0.  1.
         12    1    4    4    0    0  0.83602664505E+02  0.12281765556E+03  0.24501735526E+02  0.15057860762E+03  0.00000000000E+00 0. -1.
         -5    1    5    5    0  502  0.13886028806E+02 -0.67096664238E+01 -0.50351042230E+02  0.52869262083E+02  0.47000000000E+01 0.  1.
         11    1    6    6    0    0  0.57446838968E+01 -0.45506456573E+02  0.29335677771E+02  0.54446496427E+02  0.00000000000E+00 0. -1.
        -12    1    6    6    0    0 -0.89350639851E+02 -0.36685160035E+02  0.24808692869E+02  0.99723663443E+02  0.00000000000E+00 0.  1.
</event>
<event>
12    1  0.8633375E-002  0.3767801E+03  0.7818608E-02  0.1052267E+00
         21   -1    0    0  503  502  0.00000000000E+00  0.00000000000E+00  0.28341356284E+03  0.28341356284E+03  0.00000000000E+00 0.  1.
         21   -1    0    0  501  503 -0.00000000000E+00 -0.00000000000E+00 -0.61699601576E+03  0.61699601576E+03  0.00000000000E+00 0. -1.
          6    2    1    2  501    0 -0.94510754241E+02  0.31995426957E+03 -0.36395948307E+03  0.52386040131E+03  0.17510053530E+03 0.  0.
         24    2    3    3    0    0 -0.66765990175E+02  0.10299387484E+03 -0.85147422891E+02  0.16945972452E+03  0.80006742895E+02 0.  0.
         -6    2    1    2    0  502  0.94510754241E+02 -0.31995426957E+03  0.30377030147E+02  0.37654917729E+03  0.17194040153E+03 0.  0.
        -24    2    5    5    0    0  0.79436619519E+02 -0.33096946329E+03  0.45252525719E+02  0.35221947531E+03  0.78484428728E+02 0.  0.
          5    1    3    3  501    0 -0.27744764066E+02  0.21696039472E+03 -0.27881206018E+03  0.35440067680E+03  0.47000000000E+01 0. -1.
        -13    1    4    4    0    0 -0.16199780519E+02  0.26274345527E+02 -0.69775294473E+02  0.76297875727E+02  0.00000000000E+00 0.  1.
         14    1    4    4    0    0 -0.50566209656E+02  0.76719529317E+02 -0.15372128418E+02  0.93161848789E+02  0.00000000000E+00 0. -1.
         -5    1    5    5    0  502  0.15074134722E+02  0.11015193720E+02 -0.14875495572E+02  0.24329701988E+02  0.47000000000E+01 0.  1.
         13    1    6    6    0    0  0.15782436724E+02 -0.65680327958E+02  0.41686350150E+02  0.79377216998E+02  0.00000000000E+00 0. -1.
        -14    1    6    6    0    0  0.63654182795E+02 -0.26528913533E+03  0.35661755692E+01  0.27284225831E+03  0.00000000000E+00 0.  1.
</event>
<event>
12    1  0.8633375E-002  0.1921262E+03  0.7818608E-02  0.1159143E+00
         21   -1    0    0  503  502  0.00000000000E+00  0.00000000000E+00  0.53016559455E+03  0.53016559455E+03  0.00000000000E+00 0.  1.
         21   -1    0    0  501  503 -0.00000000000E+00 -0.00000000000E+00 -0.76797779418E+02  0.76797779418E+02  0.00000000000E+00 0.  1.
          6    2    1    2  501    0 -0.44754069299E+02 -0.47421376000E+02  0.10500815873E+03  0.20913558971E+03  0.16869874885E+03 0.  0.
         24    2    3    3    0    0 -0.32501988424E+02 -0.73594063153E+02  0.12866329361E+03  0.17149547222E+03  0.79899865362E+02 0.  0.
         -6    2    1    2    0  502  0.44754069299E+02  0.47421376000E+02  0.34835965640E+03  0.39782778426E+03  0.18072294293E+03 0.  0.
        -24    2    5    5    0    0  0.60795653150E+02  0.83952915163E+02  0.32734005312E+03  0.35248685917E+03  0.79694868736E+02 0.  0.
          5    1    3    3  501    0 -0.12252080876E+02  0.26172687153E+02 -0.23655134882E+02  0.37640117493E+02  0.47000000000E+01 0. -1.
        -11    1    4    4    0    0 -0.46881390737E+02 -0.96860154586E+01  0.55394664264E+02  0.73213745444E+02  0.00000000000E+00 0.  1.
         12    1    4    4    0    0  0.14379402313E+02 -0.63908047694E+02  0.73268629350E+02  0.98281726775E+02  0.00000000000E+00 0. -1.
         -5    1    5    5    0  502 -0.16041583851E+02 -0.36531539163E+02  0.21019603282E+02  0.45340925092E+02  0.47000000000E+01 0.  1.
         13    1    6    6    0    0 -0.13809234613E+01 -0.12648347488E+02  0.14886515683E+02  0.19583053719E+02  0.00000000000E+00 0. -1.
        -14    1    6    6    0    0  0.62176576612E+02  0.96601262651E+02  0.31245353744E+03  0.33290380545E+03  0.00000000000E+00 0.  1.
</event>
<event>
12    1  0.8633375E-002  0.1788717E+03  0.7818608E-02  0.1169251E+00
         21   -1    0    0  501  502  0.00000000000E+00  0.00000000000E+00  0.13959997886E+03  0.13959997886E+03  0.00000000000E+00 0.  1.
         21   -1    0    0  502  503 -0.00000000000E+00 -0.00000000000E+00 -0.32732034646E+03  0.32732034646E+03  0.00000000000E+00 0.  1.
         -6    2    1    2    0  503 -0.41024084535E+02  0.25427312621E+02 -0.22261368930E+03  0.28467698768E+03  0.17074720762E+03 0.  0.
        -24    2    3    3    0    0 -0.90800823073E+02 -0.22385616861E+00 -0.14691423902E+03  0.19039972142E+03  0.80146245758E+02 0.  0.
          6    2    1    2  501    0  0.41024084535E+02 -0.25427312621E+02  0.34893321706E+02  0.18224333764E+03  0.17223694864E+03 0.  0.
         24    2    5    5    0    0  0.50453947464E+02 -0.77428184499E+02  0.84216934667E+01  0.12294873339E+03  0.80651977986E+02 0.  0.
          5    1    5    5  501    0 -0.94298629294E+01  0.52000871878E+02  0.26471628240E+02  0.59294604245E+02  0.47000000000E+01 0. -1.
        -11    1    6    6    0    0 -0.91598702527E+01 -0.29231226693E+02 -0.24786793600E+02  0.39404986664E+02  0.00000000000E+00 0.  1.
         12    1    6    6    0    0  0.59613817717E+02 -0.48196957806E+02  0.33208487067E+02  0.83543746731E+02  0.00000000000E+00 0. -1.
         -5    1    3    3    0  503  0.49776738539E+02  0.25651168790E+02 -0.75699450284E+02  0.94277266258E+02  0.47000000000E+01 0.  1.
         11    1    4    4    0    0 -0.68294602964E+02 -0.37240083861E+02 -0.93686009172E+02  0.12177046011E+03  0.00000000000E+00 0. -1.
        -12    1    4    4    0    0 -0.22506220109E+02  0.37016227693E+02 -0.53228229848E+02  0.68629261317E+02  0.00000000000E+00 0.  1.
</event>
<event>
12    1  0.8633375E-002  0.2530736E+03  0.7818608E-02  0.1111476E+00
         21   -1    0    0  503  502  0.00000000000E+00  0.00000000000E+00  0.14202411396E+04  0.14202411396E+04  0.00000000000E+00 0. -1.
         21   -1    0    0  501  503 -0.00000000000E+00 -0.00000000000E+00 -0.51524348445E+02  0.51524348445E+02  0.00000000000E+00 0.  1.
          6    2    1    2  501    0  0.17431824378E+03 -0.60417310865E+02  0.42140105803E+03  0.49122821249E+03  0.17230555265E+03 0.  0.
         24    2    3    3    0    0  0.46030049079E+02 -0.33011352827E+02  0.90396849685E+02  0.13514560497E+03  0.82971255727E+02 0.  0.
         -6    2    1    2    0  502 -0.17431824378E+03  0.60417310865E+02  0.94731573317E+03  0.98053727560E+03  0.17323148950E+03 0.  0.
        -24    2    5    5    0    0 -0.81500493423E+02 -0.80629754391E+01  0.26182219395E+03  0.28539112786E+03  0.78675870617E+02 0.  0.
          5    1    3    3  501    0  0.12828819471E+03 -0.27405958037E+02  0.33100420834E+03  0.35608260752E+03  0.47000000000E+01 0. -1.
        -13    1    4    4    0    0  0.19451635506E+02  0.27882505272E+02  0.29204944044E+02  0.44818846267E+02  0.00000000000E+00 0.  1.
         14    1    4    4    0    0  0.26578413573E+02 -0.60893858100E+02  0.61191905641E+02  0.90326758706E+02  0.00000000000E+00 0. -1.
         -5    1    5    5    0  502 -0.92817750362E+02  0.68480286304E+02  0.68549353922E+03  0.69514614773E+03  0.47000000000E+01 0.  1.
         13    1    6    6    0    0 -0.14810816700E+02 -0.23187124359E+02  0.16244853715E+03  0.16476204129E+03  0.00000000000E+00 0. -1.
        -14    1    6    6    0    0 -0.66689676722E+02  0.15124148920E+02  0.99373656794E+02  0.12062908657E+03  0.00000000000E+00 0.  1.
</event>
<event>
12    1  0.8633375E-002  0.1751135E+03  0.7818608E-02  0.1172756E+00
         21   -1    0    0  501  502  0.00000000000E+00  0.00000000000E+00  0.29525914502E+02  0.29525914502E+02  0.00000000000E+00 0.  1.
         21   -1    0    0  502  503 -0.00000000000E+00 -0.00000000000E+00 -0.16639324595E+04  0.16639324595E+04  0.00000000000E+00 0.  1.
         -6    2    1    2    0  503  0.18300355226E+01  0.31238137512E+02 -0.13368445877E+04  0.13481934569E+04  0.17173519012E+03 0.  0.
        -24    2    3    3    0    0 -0.92541872267E+01 -0.30223642107E+02 -0.40781961621E+03  0.41705979418E+03  0.81381349430E+02 0.  0.
          6    2    1    2  501    0 -0.18300355226E+01 -0.31238137512E+02 -0.29756195734E+03  0.34526491706E+03  0.17229502091E+03 0.  0.
         24    2    5    5    0    0 -0.35120123496E+02 -0.25326580825E+02 -0.29687176281E+03  0.31112194080E+03  0.82396357441E+02 0.  0.
          5    1    5    5  501    0  0.33290087973E+02 -0.59115566872E+01 -0.69019452872E+00  0.34142976264E+02  0.47000000000E+01 0. -1.
        -11    1    6    6    0    0 -0.16092828839E+01 -0.50687242418E+02 -0.17551231912E+03  0.18269198258E+03  0.00000000000E+00 0.  1.
         12    1    6    6    0    0 -0.33510840612E+02  0.25360661593E+02 -0.12135944369E+03  0.12842995822E+03  0.00000000000E+00 0. -1.
         -5    1    3    3    0  503  0.11084222749E+02  0.61461779619E+02 -0.92902497145E+03  0.93113366276E+03  0.47000000000E+01 0.  1.
         11    1    4    4    0    0 -0.36734544054E+01 -0.65233897320E+01  0.96692688298E+00  0.75487633730E+01  0.00000000000E+00 0. -1.
        -12    1    4    4    0    0 -0.55807328214E+01 -0.23700252375E+02 -0.40878654309E+03  0.40951103081E+03  0.00000000000E+00 0.  1.
</event>
<event>
12    1  0.8633375E-002  0.1827127E+03  0.7818608E-02  0.1165264E+00
         21   -1    0    0  501  502  0.00000000000E+00  0.00000000000E+00  0.37603911460E+02  0.37603911460E+02  0.00000000000E+00 0.  1.
         21   -1    0    0  502  503 -0.00000000000E+00 -0.00000000000E+00 -0.15377890583E+04  0.15377890583E+04  0.00000000000E+00 0.  1.
         -6    2    1    2    0  503  0.57203716491E+02  0.25939052296E+02 -0.12623982479E+04  0.12755154157E+04  0.17130423161E+03 0.  0.
        -24    2    3    3    0    0  0.22386307941E+02  0.72256255226E+02 -0.55878985972E+03  0.56950947440E+03  0.79829949940E+02 0.  0.
          6    2    1    2  501    0 -0.57203716491E+02 -0.25939052296E+02 -0.23778689893E+03  0.29987755405E+03  0.17157750000E+03 0.  0.
         24    2    5    5    0    0  0.26222159132E+02 -0.38418668908E+02 -0.82757960582E+02  0.12332252218E+03  0.78714475712E+02 0.  0.
          5    1    5    5  501    0 -0.83425875623E+02  0.12479616612E+02 -0.15502893835E+03  0.17655503188E+03  0.47000000000E+01 0. -1.
        -13    1    6    6    0    0  0.44189340886E+02 -0.19469634942E+02 -0.14776951269E+02  0.50498740791E+02  0.00000000000E+00 0.  1.
         14    1    6    6    0    0 -0.17967181753E+02 -0.18949033966E+02 -0.67981009313E+02  0.72823781387E+02  0.00000000000E+00 0. -1.
         -5    1    3    3    0  503  0.34817408550E+02 -0.46317202930E+02 -0.70360838815E+03  0.70600594127E+03  0.47000000000E+01 0.  1.
         13    1    4    4    0    0 -0.25127517784E+02  0.71389733348E+01 -0.85405884893E+02  0.89311378137E+02  0.00000000000E+00 0. -1.
        -14    1    4    4    0    0  0.47513825725E+02  0.65117281891E+02 -0.47338397483E+03  0.48019809627E+03  0.00000000000E+00 0.  1.
</event>
<event>
12    1  0.8633375E-002  0.3634350E+03  0.7818608E-02  0.1057253E+00
         21   -1    0    0  501  502  0.00000000000E+00  0.00000000000E+00  0.82452673042E+03  0.82452673042E+03  0.00000000000E+00 0.  1.
         21   -1    0    0  502  503 -0.00000000000E+00 -0.00000000000E+00 -0.20551958509E+03  0.20551958509E+03  0.00000000000E+00 0. -1.
         -6    2    1    2    0  503  0.31038484484E+03 -0.78983690142E+02  0.55155095894E+03  0.66040416399E+03  0.17131265071E+03 0.  0.
        -24    2    3    3    0    0  0.14022799887E+03 -0.66524324081E+02  0.17664190890E+03  0.24847276942E+03  0.80293061971E+02 0.  0.
          6    2    1    2  501    0 -0.31038484484E+03  0.78983690142E+02  0.67456186393E+02  0.36964215152E+03  0.17177836849E+03 0.  0.
         24    2    5    5    0    0 -0.44178755983E+02  0.11616656460E+02  0.48689642169E+02  0.94363615931E+02  0.66686592127E+02 0.  0.
          5    1    5    5  501    0 -0.26620608886E+03  0.67367033682E+02  0.18766544223E+02  0.27527853559E+03  0.47000000000E+01 0. -1.
        -13    1    6    6    0    0  0.62776075514E+01  0.26958127462E+02  0.12294590652E+02  0.30287059153E+02  0.00000000000E+00 0.  1.
         14    1    6    6    0    0 -0.50456363534E+02 -0.15341471002E+02  0.36395051517E+02  0.64076556778E+02  0.00000000000E+00 0. -1.
         -5    1    3    3    0  503  0.17015684598E+03 -0.12459366060E+02  0.37490905004E+03  0.41193139457E+03  0.47000000000E+01 0.  1.
         13    1    4    4    0    0  0.64230129827E+02 -0.70188613847E+02  0.12241583530E+03  0.15504060057E+03  0.00000000000E+00 0. -1.
        -14    1    4    4    0    0  0.75997869040E+02  0.36642897656E+01  0.54226073599E+02  0.93432168850E+02  0.00000000000E+00 0.  1.
</event>
<event>
12    1  0.8633375E-002  0.1823101E+03  0.7818608E-02  0.1165588E+00
         21   -1    0    0  501  502  0.00000000000E+00  0.00000000000E+00  0.85526193355E+03  0.85526193355E+03  0.00000000000E+00 0. -1.
         21   -1    0    0  502  503 -0.00000000000E+00 -0.00000000000E+00 -0.51569749000E+02  0.51569749000E+02  0.00000000000E+00 0. -1.
         -6    2    1    2    0  503  0.21890451955E+02 -0.54953548812E+02  0.17675835044E+03  0.25393007839E+03  0.17244676236E+03 0.  0.
        -24    2    3    3    0    0 -0.54458311258E+02 -0.37941531946E+02  0.11575921505E+03  0.15462485758E+03  0.78124152485E+02 0.  0.
          6    2    1    2  501    0 -0.21890451955E+02  0.54953548812E+02  0.62693383411E+03  0.65290160416E+03  0.17243951967E+03 0.  0.
         24    2    5    5    0    0  0.36520084370E+01  0.99553144560E+02  0.49484923751E+03  0.51109197161E+03  0.80094131022E+02 0.  0.
          5    1    5    5  501    0 -0.25542460392E+02 -0.44599595748E+02  0.13208459660E+03  0.14180963255E+03  0.47000000000E+01 0. -1.
        -13    1    6    6    0    0  0.38014935918E+02  0.24743137095E+02  0.18748790325E+03  0.19289653198E+03  0.00000000000E+00 0.  1.
         14    1    6    6    0    0 -0.34362927481E+02  0.74810007465E+02  0.30736133426E+03  0.31819543963E+03  0.00000000000E+00 0. -1.
         -5    1    3    3    0  503  0.76348763213E+02 -0.17012016866E+02  0.60999135386E+02  0.99305220809E+02  0.47000000000E+01 0.  1.
         11    1    4    4    0    0 -0.71519329654E+01 -0.51909394550E+02  0.50047564594E+02  0.72460293330E+02  0.00000000000E+00 0. -1.
        -12    1    4    4    0    0 -0.47306378293E+02  0.13967862604E+02  0.65711650460E+02  0.82164564254E+02  0.00000000000E+00 0.  1.
</event>
<event>
12    1  0.8633375E-002  0.2547689E+03  0.7818608E-02  0.1110422E+00
         21   -1    0    0  503  502  0.00000000000E+00  0.00000000000E+00  0.10774585362E+03  0.10774585362E+03  0.00000000000E+00 0. -1.
         21   -1    0    0  501  503 -0.00000000000E+00 -0.00000000000E+00 -0.64038054051E+03  0.64038054051E+03  0.00000000000E+00 0. -1.
          6    2    1    2  501    0  0.16430491964E+03 -0.92806485473E+02 -0.35881517851E+03  0.43971042067E+03  0.17025795532E+03 0.  0.
         24    2    3    3    0    0  0.74360083179E+02  0.17616537559E+02 -0.18416954066E+03  0.21430743391E+03  0.78546114824E+02 0.  0.
         -6    2    1    2    0  502 -0.16430491964E+03  0.92806485473E+02 -0.17381950838E+03  0.30841597346E+03  0.17116670479E+03 0.  0.
        -24    2    5    5    0    0 -0.10614401856E+03  0.12140918588E+03 -0.16346491162E+03  0.24261238269E+03  0.78315054810E+02 0.  0.
          5    1    3    3  501    0  0.89944836456E+02 -0.11042302303E+03 -0.17464563785E+03  0.22540298676E+03  0.47000000000E+01 0. -1.
        -13    1    4    4    0    0 -0.15052566154E+02  0.28190013001E+01 -0.10998186150E+02  0.18854352673E+02  0.00000000000E+00 0.  1.
         14    1    4    4    0    0  0.89412649333E+02  0.14797536259E+02 -0.17317135451E+03  0.19545308123E+03  0.00000000000E+00 0. -1.
         -5    1    5    5    0  502 -0.58160901075E+02 -0.28602700404E+02 -0.10354596757E+02  0.65803590770E+02  0.47000000000E+01 0.  1.
         11    1    6    6    0    0 -0.85815333405E+02  0.38849120458E+02 -0.83026506398E+02  0.12556642215E+03  0.00000000000E+00 0. -1.
        -12    1    6    6    0    0 -0.20328685155E+02  0.82560065419E+02 -0.80438405224E+02  0.11704596053E+03  0.00000000000E+00 0.  1.
</event>
<event>
12    1  0.8633375E-002  0.2167161E+03  0.7818608E-02  0.1136659E+00
         21   -1    0    0  503  502  0.00000000000E+00  0.00000000000E+00  0.11388861523E+04  0.11388861523E+04  0.00000000000E+00 0.  1.
         21   -1    0    0  501  503 -0.00000000000E+00 -0.00000000000E+00 -0.51711594025E+02  0.51711594025E+02  0.00000000000E+00 0.  1.
          6    2    1    2  501    0  0.36644853844E+02  0.12673964884E+03  0.27026569828E+03  0.34543151555E+03  0.16992233629E+03 0.  0.
         24    2    3    3    0    0  0.72590038380E+01  0.15400011999E+03  0.23004557442E+03  0.28845424086E+03  0.80722689926E+02 0.  0.
         -6    2    1    2    0  502 -0.36644853844E+02 -0.12673964884E+03  0.81690886003E+03  0.84516623081E+03  0.17193047490E+03 0.  0.
        -24    2    5    5    0    0 -0.47728982124E+02 -0.10851398870E+03  0.35432985022E+03  0.38207178806E+03  0.79849026260E+02 0.  0.
          5    1    3    3  501    0  0.29385850006E+02 -0.27260471150E+02  0.40220123861E+02  0.56977274692E+02  0.47000000000E+01 0. -1.
        -13    1    4    4    0    0  0.86015295766E+01  0.13528510273E+03  0.23289717726E+03  0.26947567703E+03  0.00000000000E+00 0.  1.
         14    1    4    4    0    0 -0.13425257387E+01  0.18715017259E+02 -0.28516028486E+01  0.18978563833E+02  0.00000000000E+00 0. -1.
         -5    1    5    5    0  502  0.11084128279E+02 -0.18225660138E+02  0.46257900981E+03  0.46309444275E+03  0.47000000000E+01 0.  1.
         11    1    6    6    0    0 -0.22051897429E+02  0.63094851634E+01  0.35921326316E+02  0.42619684039E+02  0.00000000000E+00 0. -1.
        -12    1    6    6    0    0 -0.25677084695E+02 -0.11482347386E+03  0.31840852390E+03  0.33945210402E+03  0.00000000000E+00 0.  1.
</event>
<event>
12    1  0.8633375E-002  0.1817702E+03  0.7818608E-02  0.1166380E+00
         21   -1    0    0  501  502  0.00000000000E+00  0.00000000000E+00  0.78133510109E+02  0.78133510109E+02  0.00000000000E+00 0. -1.
         21   -1    0    0  502  503 -0.00000000000E+00 -0.00000000000E+00 -0.55110069809E+03  0.55110069809E+03  0.00000000000E+00 0. -1.
         -6    2    1    2    0  503  0.41570035200E+02  0.35765472169E+02 -0.39042008073E+03  0.43066024558E+03  0.17330081031E+03 0.  0.
        -24    2    3    3    0    0  0.10957198518E+02  0.83880863270E+02 -0.31966305064E+03  0.33966088329E+03  0.77646572785E+02 0.  0.
          6    2    1    2  501    0 -0.41570035200E+02 -0.35765472169E+02 -0.82547107251E+02  0.19857396262E+03  0.17207660181E+03 0.  0.
         24    2    5    5    0    0  0.12745832695E+02  0.21388089213E+01 -0.10146000258E+03  0.12953241253E+03  0.79482595691E+02 0.  0.
          5    1    5    5  501    0 -0.54315867895E+02 -0.37904281090E+02  0.18912895326E+02  0.69041550096E+02  0.47000000000E+01 0. -1.
        -13    1    6    6    0    0 -0.18674387016E+02  0.16130024776E+02 -0.89934162738E+02  0.93258050897E+02  0.00000000000E+00 0.  1.
         14    1    6    6    0    0  0.31420219711E+02 -0.13991215855E+02 -0.11525839838E+02  0.36274361631E+02  0.00000000000E+00 0. -1.
         -5    1    3    3    0  503  0.30612836682E+02 -0.48115391102E+02 -0.70757030090E+02  0.90999362293E+02  0.47000000000E+01 0.  1.
         13    1    4    4    0    0 -0.25544454520E+02  0.22968118183E+02 -0.17698403795E+03  0.18028700258E+03  0.00000000000E+00 0. -1.
        -14    1    4    4    0    0  0.36501653038E+02  0.60912745087E+02 -0.14267901270E+03  0.15937388071E+03  0.00000000000E+00 0.  1.
</event>
<event>
12    1  0.8633375E-002  0.2429508E+03  0.7818608E-02  0.1117927E+00
         21   -1    0    0  503  502  0.00000000000E+00  0.00000000000E+00  0.17694101284E+03  0.17694101284E+03  0.00000000000E+00 0. -1.
         21   -1    0    0  501  503 -0.00000000000E+00 -0.00000000000E+00 -0.43756172585E+03  0.43756172585E+03  0.00000000000E+00 0. -1.
          6    2    1    2  501    0  0.16843543772E+03 -0.26822579958E+02 -0.28048646158E+03  0.37074108157E+03  0.17229726334E+03 0.  0.
         24    2    3    3    0    0  0.64219062014E+02  0.25112689212E+02 -0.60458124149E+02  0.12175737844E+03  0.80093316470E+02 0.  0.
         -6    2    1    2    0  502 -0.16843543772E+03  0.26822579958E+02  0.19865748573E+02  0.24376165712E+03  0.17301777377E+03 0.  0.
        -24    2    5    5    0    0 -0.16825161555E+03 -0.23462906670E+02 -0.31319845410E+01  0.18826706563E+03  0.81089854791E+02 0.  0.
          5    1    3    3  501    0  0.10421637571E+03 -0.51935269170E+02 -0.22002833743E+03  0.24898370313E+03  0.47000000000E+01 0. -1.
        -11    1    4    4    0    0  0.55396734305E+02  0.31477124349E+02 -0.78246399903E+02  0.10090642510E+03  0.00000000000E+00 0.  1.
         12    1    4    4    0    0  0.88223277092E+01 -0.63644351365E+01  0.17788275754E+02  0.20850953338E+02  0.00000000000E+00 0. -1.
         -5    1    5    5    0  502 -0.18382217255E+00  0.50285486628E+02  0.22997733114E+02  0.55494591488E+02  0.47000000000E+01 0.  1.
         13    1    6    6    0    0 -0.13218245677E+03 -0.39915111552E+02  0.24108001137E+02  0.14016637873E+03  0.00000000000E+00 0. -1.
        -14    1    6    6    0    0 -0.36069158782E+02  0.16452204882E+02 -0.27239985678E+02  0.48100686902E+02  0.00000000000E+00 0.  1.
</event>
<event>
12    1  0.8633375E-002  0.2529784E+03  0.7818608E-02  0.1111564E+00
         21   -1    0    0  501  502  0.00000000000E+00  0.00000000000E+00  0.20539128380E+03  0.20539128380E+03  0.00000000000E+00 0.  1.
         21   -1    0    0  502  503 -0.00000000000E+00 -0.00000000000E+00 -0.31261157843E+03  0.31261157843E+03  0.00000000000E+00 0.  1.
         -6    2    1    2    0  503 -0.17243764936E+03 -0.65742579131E+02 -0.74371469004E+02  0.26290073894E+03  0.17183961565E+03 0.  0.
        -24    2    3    3    0    0 -0.11994448239E+03 -0.55946828749E+02 -0.11806070082E+03  0.19374635888E+03  0.77990999468E+02 0.  0.
          6    2    1    2  501    0  0.17243764936E+03  0.65742579131E+02 -0.32848825628E+02  0.25510212329E+03  0.17303530950E+03 0.  0.
         24    2    5    5    0    0  0.22434595414E+02  0.43373665334E+02  0.19513993302E+02  0.94586581037E+02  0.78620858949E+02 0.  0.
          5    1    5    5  501    0  0.15000305395E+03  0.22368913797E+02 -0.52362818931E+02  0.16051554225E+03  0.47000000000E+01 0. -1.
        -13    1    6    6    0    0  0.24039460874E+02  0.61570262698E+02  0.31003049324E+02  0.73006725685E+02  0.00000000000E+00 0.  1.
         14    1    6    6    0    0 -0.16048654606E+01 -0.18196597364E+02 -0.11489056021E+02  0.21579855352E+02  0.00000000000E+00 0. -1.
         -5    1    3    3    0  503 -0.52493166970E+02 -0.97957503823E+01  0.43689231821E+02  0.69154380058E+02  0.47000000000E+01 0.  1.
         13    1    4    4    0    0 -0.11786673369E+02  0.18476690525E+02 -0.12119177189E+02  0.25043726113E+02  0.00000000000E+00 0. -1.
        -14    1    4    4    0    0 -0.10815780902E+03 -0.74423519273E+02 -0.10594152364E+03  0.16870263277E+03  0.00000000000E+00 0.  1.
</event>
<event>
12    1  0.8633375E-002  0.2107105E+03  0.7818608E-02  0.1142786E+00
         21   -1    0    0  501  502  0.00000000000E+00  0.00000000000E+00  0.97186194064E+03  0.97186194064E+03  0.00000000000E+00 0. -1.
         21   -1    0    0  502  503 -0.00000000000E+00 -0.00000000000E+00 -0.72560183604E+02  0.72560183604E+02  0.00000000000E+00 0. -1.
         -6    2    1    2    0  503 -0.30153735321E+02 -0.84725811131E+02  0.77262601751E+03  0.79856515225E+03  0.18074188398E+03 0.  0.
        -24    2    3    3    0    0 -0.25195094662E+01 -0.43601421381E+02  0.72200826546E+03  0.72757844438E+03  0.78530411078E+02 0.  0.
          6    2    1    2  501    0  0.30153735321E+02  0.84725811131E+02  0.12667573953E+03  0.24585697200E+03  0.19055497073E+03 0.  0.
         24    2    5    5    0    0 -0.34638582117E+02  0.74076750213E+02  0.14756554955E+02  0.11601306273E+03  0.80957263525E+02 0.  0.
          5    1    5    5  501    0  0.64792317438E+02  0.10649060918E+02  0.11191918458E+03  0.12984390927E+03  0.47000000000E+01 0. -1.
        -11    1    6    6    0    0 -0.39546162278E+02  0.22894761079E+02 -0.24010249419E+02  0.51619386987E+02  0.00000000000E+00 0.  1.
         12    1    6    6    0    0  0.49075801613E+01  0.51181989134E+02  0.38766804374E+02  0.64393675746E+02  0.00000000000E+00 0. -1.
         -5    1    3    3    0  503 -0.27634225855E+02 -0.41124389750E+02  0.50617752051E+02  0.70986707866E+02  0.47000000000E+01 0.  1.
         11    1    4    4    0    0 -0.32754879071E+02 -0.51881560671E+01  0.44938140973E+03  0.45060342928E+03  0.00000000000E+00 0. -1.
        -12    1    4    4    0    0  0.30235369604E+02 -0.38413265314E+02  0.27262685573E+03  0.27697501510E+03  0.00000000000E+00 0.  1.
</event>
<event>
12    1  0.8633375E-002  0.1916093E+03  0.7818608E-02  0.1157029E+00
         21   -1    0    0  501  502  0.00000000000E+00  0.00000000000E+00  0.30239724324E+03  0.30239724324E+03  0.00000000000E+00 0. -1.
         21   -1    0    0  502  503 -0.00000000000E+00 -0.00000000000E+00 -0.13740939765E+03  0.13740939765E+03  0.00000000000E+00 0. -1.
         -6    2    1    2    0  503 -0.79018968950E+02 -0.26308420156E+02  0.73763283999E+01  0.19170281044E+03  0.17250920811E+03 0.  0.
        -24    2    3    3    0    0 -0.57807347958E+02 -0.51192775821E+02 -0.52863238282E+02  0.12300012187E+03  0.79825548819E+02 0.  0.
          6    2    1    2  501    0  0.79018968950E+02  0.26308420156E+02  0.15761151719E+03  0.24810383045E+03  0.17256300272E+03 0.  0.
         24    2    5    5    0    0  0.12025951707E+03  0.35323806064E+02  0.11924894247E+03  0.19086890116E+03  0.80625705744E+02 0.  0.
          5    1    5    5  501    0 -0.41240548121E+02 -0.90153859084E+01  0.38362574715E+02  0.57234929293E+02  0.47000000000E+01 0. -1.
        -13    1    6    6    0    0  0.57343286210E+02  0.47801917682E+02  0.28869498497E+02  0.80042012412E+02  0.00000000000E+00 0.  1.
         14    1    6    6    0    0  0.62916230861E+02 -0.12478111618E+02  0.90379443977E+02  0.11082688875E+03  0.00000000000E+00 0. -1.
         -5    1    3    3    0  503 -0.21211620992E+02  0.24884355666E+02  0.60239566682E+02  0.68702688565E+02  0.47000000000E+01 0.  1.
         13    1    4    4    0    0 -0.62760409716E+02 -0.56342480365E+02 -0.16497370158E+02  0.85938974532E+02  0.00000000000E+00 0. -1.
        -14    1    4    4    0    0  0.49530617583E+01  0.51497045440E+01 -0.36365868124E+02  0.37061147339E+02  0.00000000000E+00 0.  1.
</event>
<event>
12    1  0.8633375E-002  0.2108273E+03  0.7818608E-02  0.1141197E+00
         21   -1    0    0  503  502  0.00000000000E+00  0.00000000000E+00  0.18988139875E+03  0.18988139875E+03  0.00000000000E+00 0. -1.
         21   -1    0    0  501  503 -0.00000000000E+00 -0.00000000000E+00 -0.10279006272E+04  0.10279006272E+04  0.00000000000E+00 0. -1.
          6    2    1    2  501    0 -0.70029821704E+02  0.10058200809E+03 -0.95495591535E+03  0.97795140221E+03  0.17154366366E+03 0.  0.
         24    2    3    3    0    0 -0.24172130009E+02  0.11545933188E+03 -0.85714818667E+03  0.86880606589E+03  0.78777008265E+02 0.  0.
         -6    2    1    2    0  502  0.70029821704E+02 -0.10058200809E+03  0.11693668689E+03  0.23983062375E+03  0.16977521335E+03 0.  0.
        -24    2    5    5    0    0 -0.28042327581E+02 -0.50676317941E+02  0.57206230086E+02  0.11453680170E+03  0.80570868474E+02 0.  0.
          5    1    3    3  501    0 -0.45857691695E+02 -0.14877323782E+02 -0.97807728677E+02  0.10914533632E+03  0.47000000000E+01 0. -1.
        -11    1    4    4    0    0 -0.25081701440E+02  0.50945923300E+02 -0.18375670267E+03  0.19233071680E+03  0.00000000000E+00 0.  1.
         12    1    4    4    0    0  0.90957143052E+00  0.64513408575E+02 -0.67339148400E+03  0.67647534910E+03  0.00000000000E+00 0. -1.
         -5    1    5    5    0  502  0.98072149285E+02 -0.49905690152E+02  0.59730456805E+02  0.12529382205E+03  0.47000000000E+01 0.  1.
         11    1    6    6    0    0 -0.56569516053E+01 -0.55126132684E+02  0.69280128654E+02  0.88716558953E+02  0.00000000000E+00 0. -1.
        -12    1    6    6    0    0 -0.22385375976E+02  0.44498147425E+01 -0.12073898568E+02  0.25820242746E+02  0.00000000000E+00 0.  1.
</event>
<event>
12    1  0.8633375E-002  0.1721439E+03  0.7818608E-02  0.1175663E+00
         21   -1    0    0  501  502  0.00000000000E+00  0.00000000000E+00  0.37524039072E+02  0.37524039072E+02  0.00000000000E+00 0. -1.
         21   -1    0    0  502  503 -0.00000000000E+00 -0.00000000000E+00 -0.79732123006E+03  0.79732123006E+03  0.00000000000E+00 0. -1.
         -6    2    1    2    0  503 -0.13260887046E+02 -0.15483471390E+01 -0.33773858381E+03  0.37907896916E+03  0.17162536339E+03 0.  0.
        -24    2    3    3    0    0  0.11348675772E+02  0.67530516321E+02 -0.17351710321E+03  0.19916703334E+03  0.69786524383E+02 0.  0.
          6    2    1    2  501    0  0.13260887046E+02  0.15483471390E+01 -0.42205860718E+03  0.45576629998E+03  0.17149694982E+03 0.  0.
         24    2    5    5    0    0  0.46483831156E+02  0.52399897015E+02 -0.32021834328E+03  0.33709375264E+03  0.78650587612E+02 0.  0.
          5    1    5    5  501    0 -0.33222944110E+02 -0.50851549876E+02 -0.10184026390E+03  0.11867254733E+03  0.47000000000E+01 0. -1.
        -11    1    6    6    0    0  0.26072092811E+02  0.57732001824E+01 -0.22102921533E+02  0.34664434283E+02  0.00000000000E+00 0.  1.
         12    1    6    6    0    0  0.20411738345E+02  0.46626696832E+02 -0.29811542175E+03  0.30242931836E+03  0.00000000000E+00 0. -1.
         -5    1    3    3    0  503 -0.24609562818E+02 -0.69078863460E+02 -0.16422148060E+03  0.17991193582E+03  0.47000000000E+01 0.  1.
         13    1    4    4    0    0 -0.12638460515E+02  0.21187513041E+01 -0.69940961545E+00  0.12833899061E+02  0.00000000000E+00 0. -1.
        -14    1    4    4    0    0  0.23987136288E+02  0.65411765017E+02 -0.17281769360E+03  0.18633313428E+03  0.00000000000E+00 0.  1.
</event>
<event>
12    1  0.8633375E-002  0.1745945E+03  0.7818608E-02  0.1173199E+00
         21   -1    0    0  503  502  0.00000000000E+00  0.00000000000E+00  0.22047609375E+03  0.22047609375E+03  0.00000000000E+00 0. -1.
         21   -1    0    0  501  503 -0.00000000000E+00 -0.00000000000E+00 -0.15300754717E+03  0.15300754717E+03  0.00000000000E+00 0. -1.
          6    2    1    2  501    0  0.10972682224E+02  0.26573555515E+02  0.92053249406E+02  0.19716679359E+03  0.17197206215E+03 0.  0.
         24    2    3    3    0    0  0.55554333743E+02  0.75237350099E+01  0.10847887024E+03  0.14576338579E+03  0.79601562555E+02 0.  0.
         -6    2    1    2    0  502 -0.10972682224E+02 -0.26573555515E+02 -0.24584702823E+02  0.17631684733E+03  0.17221111878E+03 0.  0.
        -24    2    5    5    0    0  0.22841982671E+01 -0.53343678423E+02  0.40227767285E+02  0.10479670582E+03  0.80705084721E+02 0.  0.
          5    1    3    3  501    0 -0.44581651519E+02  0.19049820505E+02 -0.16425620837E+02  0.51403407799E+02  0.47000000000E+01 0. -1.
        -13    1    4    4    0    0  0.49112118610E+02 -0.23708008778E+02  0.32796770312E+02  0.63637237664E+02  0.00000000000E+00 0.  1.
         14    1    4    4    0    0  0.64422151328E+01  0.31231743788E+02  0.75682099931E+02  0.82126148124E+02  0.00000000000E+00 0. -1.
         -5    1    5    5    0  502 -0.13256880491E+02  0.26770122909E+02 -0.64812470109E+02  0.71520141516E+02  0.47000000000E+01 0.  1.
         13    1    6    6    0    0  0.16696508664E+02 -0.22660827464E+02 -0.20791152703E+02  0.34993692769E+02  0.00000000000E+00 0. -1.
        -14    1    6    6    0    0 -0.14412310397E+02 -0.30682850959E+02  0.61018919988E+02  0.69803013048E+02  0.00000000000E+00 0.  1.
</event>
<event>
12    1  0.8633375E-002  0.1866529E+03  0.7818608E-02  0.1162994E+00
         21   -1    0    0  503  502  0.00000000000E+00  0.00000000000E+00  0.62435315286E+02  0.62435315286E+02  0.00000000000E+00 0.  1.
         21   -1    0    0  501  503 -0.00000000000E+00 -0.00000000000E+00 -0.54989434668E+03  0.54989434668E+03  0.00000000000E+00 0. -1.
          6    2    1    2  501    0 -0.34896321562E+02  0.59663637410E+02 -0.28199628766E+03  0.33474322900E+03  0.16659417823E+03 0.  0.
         24    2    3    3    0    0 -0.44396225682E+02  0.88897034821E+02 -0.13844059200E+03  0.18785835075E+03  0.79064877023E+02 0.  0.
         -6    2    1    2    0  502  0.34896321562E+02 -0.59663637410E+02 -0.20546274373E+03  0.27758643297E+03  0.17338334931E+03 0.  0.
        -24    2    5    5    0    0  0.81943854063E+02 -0.70778467415E+02 -0.17296136725E+03  0.21914467364E+03  0.79902232461E+02 0.  0.
          5    1    3    3  501    0  0.94999041202E+01 -0.29233397411E+02 -0.14355569566E+03  0.14688487825E+03  0.47000000000E+01 0. -1.
        -13    1    4    4    0    0 -0.26693582950E+02  0.34540645118E+01 -0.34708622247E+01  0.27138990714E+02  0.00000000000E+00 0.  1.
         14    1    4    4    0    0 -0.17702642732E+02  0.85442970309E+02 -0.13496972978E+03  0.16071936004E+03  0.00000000000E+00 0. -1.
         -5    1    5    5    0  502 -0.47047532501E+02  0.11114830005E+02 -0.32501376480E+02  0.58441759330E+02  0.47000000000E+01 0.  1.
         11    1    6    6    0    0  0.59394405032E+02 -0.53957236143E+02 -0.17333682814E+03  0.19100977637E+03  0.00000000000E+00 0. -1.
        -12    1    6    6    0    0  0.22549449031E+02 -0.16821231272E+02  0.37546088352E+00  0.28134897263E+02  0.00000000000E+00 0.  1.
</event>
<event>
12    1  0.8633375E-002  0.1923841E+03  0.7818608E-02  0.1156348E+00
         21   -1    0    0  503  502  0.00000000000E+00  0.00000000000E+00  0.62992557530E+03  0.62992557530E+03  0.00000000000E+00 0. -1.
         21   -1    0    0  501  503 -0.00000000000E+00 -0.00000000000E+00 -0.82467829415E+02  0.82467829415E+02  0.00000000000E+00 0. -1.
          6    2    1    2  501    0  0.13776103251E+02  0.85914426407E+02  0.82664201155E+02  0.20939198582E+03  0.17158252792E+03 0.  0.
         24    2    3    3    0    0 -0.44847699679E+02  0.72242900908E+01  0.56853636023E+02  0.10781854886E+03  0.79554993653E+02 0.  0.
         -6    2    1    2    0  502 -0.13776103251E+02 -0.85914426407E+02  0.46479354473E+03  0.50300141889E+03  0.17148270614E+03 0.  0.
        -24    2    5    5    0    0 -0.41229560779E+02 -0.30803942060E+02  0.41049246531E+03  0.42077274360E+03  0.76791133268E+02 0.  0.
          5    1    3    3  501    0  0.58623802929E+02  0.78690136316E+02  0.25810565132E+02  0.10157343696E+03  0.47000000000E+01 0. -1.
        -11    1    4    4    0    0 -0.24115536948E+01  0.20421123186E+02 -0.13504110587E+02  0.24600789950E+02  0.00000000000E+00 0.  1.
         12    1    4    4    0    0 -0.42436145984E+02 -0.13196833095E+02  0.70357746610E+02  0.83217758909E+02  0.00000000000E+00 0. -1.
         -5    1    5    5    0  502  0.27453457529E+02 -0.55110484347E+02  0.54301079415E+02  0.82228675296E+02  0.47000000000E+01 0.  1.
         11    1    6    6    0    0 -0.30592364773E+02 -0.47524328637E+02  0.16363206471E+03  0.17311818852E+03  0.00000000000E+00 0. -1.
        -12    1    6    6    0    0 -0.10637196007E+02  0.16720386577E+02  0.24686040060E+03  0.24765455508E+03  0.00000000000E+00 0.  1.
</event>
<event>
12    1  0.8633375E-002  0.1856167E+03  0.7818608E-02  0.1162714E+00
         21   -1    0    0  503  502  0.00000000000E+00  0.00000000000E+00  0.49286151400E+03  0.49286151400E+03  0.00000000000E+00 0. -1.
         21   -1    0    0  501  503 -0.00000000000E+00 -0.00000000000E+00 -0.92841218246E+02  0.92841218246E+02  0.00000000000E+00 0. -1.
          6    2    1    2  501    0  0.71253432938E+02 -0.71210454369E+01  0.52818390552E+02  0.19199890318E+03  0.17013534450E+03 0.  0.
         24    2    3    3    0    0  0.43894554507E+02 -0.60878660402E+02  0.68487714461E+02  0.12950084635E+03  0.80292957134E+02 0.  0.
         -6    2    1    2    0  502 -0.71253432938E+02  0.71210454369E+01  0.34720190521E+03  0.39370382907E+03  0.17124771839E+03 0.  0.
        -24    2    5    5    0    0 -0.88661829758E+02 -0.47038063067E+02  0.24440103226E+03  0.27611823985E+03  0.80224175756E+02 0.  0.
          5    1    3    3  501    0  0.27358878432E+02  0.53757614965E+02 -0.15669323909E+02  0.62498056830E+02  0.47000000000E+01 0. -1.
        -11    1    4    4    0    0 -0.10720783021E+02 -0.31490674721E+02  0.57623810233E+02  0.66536465857E+02  0.00000000000E+00 0.  1.
         12    1    4    4    0    0  0.54615337528E+02 -0.29387985681E+02  0.10863904228E+02  0.62964380492E+02  0.00000000000E+00 0. -1.
         -5    1    5    5    0  502  0.17408396820E+02  0.54159108504E+02  0.10280087295E+03  0.11758558922E+03  0.47000000000E+01 0.  1.
         13    1    6    6    0    0  0.67138513251E+01 -0.23719063487E+02  0.22130234275E+02  0.33127285451E+02  0.00000000000E+00 0. -1.
        -14    1    6    6    0    0 -0.95375681083E+02 -0.23318999581E+02  0.22227079798E+03  0.24299095440E+03  0.00000000000E+00 0.  1.
</event>
<event>
12    1  0.8633375E-002  0.1907532E+03  0.7818608E-02  0.1157884E+00
         21   -1    0    0  501  502  0.00000000000E+00  0.00000000000E+00  0.16954784407E+03  0.16954784407E+03  0.00000000000E+00 0.  1.
         21   -1    0    0  502  503 -0.00000000000E+00 -0.00000000000E+00 -0.24256792230E+03  0.24256792230E+03  0.00000000000E+00 0.  1.
         -6    2    1    2    0  503  0.24074864359E+02 -0.73954009185E+02 -0.10712655167E+03  0.21877587726E+03  0.17417804635E+03 0.  0.
        -24    2    3    3    0    0 -0.49184290511E+02 -0.77624282622E+02 -0.69202616028E+02  0.13606741594E+03  0.72668534664E+02 0.  0.
          6    2    1    2  501    0 -0.24074864359E+02  0.73954009185E+02  0.34106473435E+02  0.19333988910E+03  0.17369014543E+03 0.  0.
         24    2    5    5    0    0 -0.34275262690E+02  0.10684586151E+03  0.60051720677E+02  0.14996745627E+03  0.79329673075E+02 0.  0.
          5    1    5    5  501    0  0.10200398331E+02 -0.32891852323E+02 -0.25945247242E+02  0.43372432832E+02  0.47000000000E+01 0. -1.
        -13    1    6    6    0    0 -0.28524912127E+02 -0.14169727566E+01  0.77343581335E+01  0.29588827611E+02  0.00000000000E+00 0.  1.
         14    1    6    6    0    0 -0.57503505631E+01  0.10826283426E+03  0.52317362543E+02  0.12037862866E+03  0.00000000000E+00 0. -1.
         -5    1    3    3    0  503  0.73259154870E+02  0.36702734369E+01 -0.37923935638E+02  0.82708461318E+02  0.47000000000E+01 0.  1.
         13    1    4    4    0    0 -0.50467315759E+02 -0.76440308847E+02 -0.82127969754E+02  0.12302468936E+03  0.00000000000E+00 0. -1.
        -14    1    4    4    0    0  0.12830252480E+01 -0.11839737741E+01  0.12925353726E+02  0.13042726580E+02  0.00000000000E+00 0.  1.
</event>
<event>
12    1  0.8633375E-002  0.2171235E+03  0.7818608E-02  0.1136597E+00
         21   -1    0    0  501  502  0.00000000000E+00  0.00000000000E+00  0.13082369880E+03  0.13082369880E+03  0.00000000000E+00 0. -1.
         21   -1    0    0  502  503 -0.00000000000E+00 -0.00000000000E+00 -0.51120475100E+03  0.51120475100E+03  0.00000000000E+00 0.  1.
         -6    2    1    2    0  503 -0.11202940524E+03 -0.70006846982E+02 -0.36819409005E+03  0.42744531110E+03  0.17231093921E+03 0.  0.
        -24    2    3    3    0    0 -0.10079526263E+03 -0.55501231939E+02 -0.13802933202E+03  0.19650262413E+03  0.79505427962E+02 0.  0.
          6    2    1    2  501    0  0.11202940524E+03  0.70006846982E+02 -0.12186962152E+02  0.21458313870E+03  0.16865899059E+03 0.  0.
         24    2    5    5    0    0  0.10131917800E+02  0.64003169485E+02  0.24806631521E+02  0.10591042795E+03  0.80016175360E+02 0.  0.
          5    1    5    5  501    0  0.10189748744E+03  0.60036774970E+01 -0.36993593673E+02  0.10867271075E+03  0.47000000000E+01 0. -1.
        -13    1    6    6    0    0  0.30580807239E+02  0.47195741413E+02 -0.14911157229E+02  0.58180463979E+02  0.00000000000E+00 0.  1.
         14    1    6    6    0    0 -0.20448889439E+02  0.16807428072E+02  0.39717788751E+02  0.47729963973E+02  0.00000000000E+00 0. -1.
         -5    1    3    3    0  503 -0.11234142602E+02 -0.14505615043E+02 -0.23016475803E+03  0.23094268697E+03  0.47000000000E+01 0.  1.
         11    1    4    4    0    0 -0.25609945189E+02 -0.49872220505E+02 -0.26829095135E+02  0.62152296952E+02  0.00000000000E+00 0. -1.
        -12    1    4    4    0    0 -0.75185317445E+02 -0.56290114343E+01 -0.11120023689E+03  0.13435032718E+03  0.00000000000E+00 0.  1.
</event>
<event>
12    1  0.8633375E-002  0.2544717E+03  0.7818608E-02  0.1110591E+00
         21   -1    0    0  503  502  0.00000000000E+00  0.00000000000E+00  0.29880103789E+03  0.29880103789E+03  0.00000000000E+00 0. -1.
         21   -1    0    0  501  503 -0.00000000000E+00 -0.00000000000E+00 -0.30465125346E+03  0.30465125346E+03  0.00000000000E+00 0.  1.
          6    2    1    2  501    0  0.12310435861E+03 -0.14104668204E+03 -0.16543524190E+03  0.30352045098E+03  0.17235717355E+03 0.  0.
         24    2    3    3    0    0  0.87927975267E+02 -0.15763616278E+03 -0.17393064345E+03  0.26343490916E+03  0.81028352952E+02 0.  0.
         -6    2    1    2    0  502 -0.12310435861E+03  0.14104668204E+03  0.15958502633E+03  0.29993184037E+03  0.17158927301E+03 0.  0.
        -24    2    5    5    0    0 -0.13875997294E+03  0.14556695374E+03  0.17389259329E+03  0.27774338417E+03  0.80365946386E+02 0.  0.
          5    1    3    3  501    0  0.35176383339E+02  0.16589480733E+02  0.84954015428E+01  0.40085541822E+02  0.47000000000E+01 0. -1.
        -13    1    4    4    0    0  0.97815842233E+02 -0.15194598072E+03 -0.14292677486E+03  0.23039874787E+03  0.00000000000E+00 0.  1.
         14    1    4    4    0    0 -0.98878669656E+01 -0.56901820553E+01 -0.31003868587E+02  0.33036161283E+02  0.00000000000E+00 0. -1.
         -5    1    5    5    0  502  0.15655614329E+02 -0.45202717004E+01 -0.14307566955E+02  0.22188456198E+02  0.47000000000E+01 0.  1.
         11    1    6    6    0    0 -0.10456423829E+03  0.14210908492E+03  0.11843308387E+03  0.21249721716E+03  0.00000000000E+00 0. -1.
        -12    1    6    6    0    0 -0.34195734645E+02  0.34578688242E+01  0.55459509414E+02  0.65246167007E+02  0.00000000000E+00 0.  1.
</event>
<event>
12    1  0.8633375E-002  0.1862806E+03  0.7818608E-02  0.1162934E+00
         21   -1    0    0  501  502  0.00000000000E+00  0.00000000000E+00  0.57805956910E+03  0.57805956910E+03  0.00000000000E+00 0. -1.
         21   -1    0    0  502  503 -0.00000000000E+00 -0.00000000000E+00 -0.63465053339E+02  0.63465053339E+02  0.00000000000E+00 0. -1.
         -6    2    1    2    0  503  0.52820472158E+02 -0.22798517816E+02  0.17109862929E+03  0.25293318590E+03  0.17717415412E+03 0.  0.
        -24    2    3    3    0    0  0.93600797726E+01  0.53845664442E+02  0.81619918681E+02  0.12726829011E+03  0.80922431193E+02 0.  0.
          6    2    1    2  501    0 -0.52820472158E+02  0.22798517816E+02  0.34349588647E+03  0.38859143654E+03  0.17234879123E+03 0.  0.
         24    2    5    5    0    0 -0.25105250170E+02  0.12981108458E+02  0.34727645637E+03  0.35857647752E+03  0.84719362130E+02 0.  0.
          5    1    5    5  501    0 -0.27715221988E+02  0.98174093578E+01 -0.37805698975E+01  0.30014959022E+02  0.47000000000E+01 0. -1.
        -11    1    6    6    0    0  0.23469433523E+00 -0.34096214358E+02  0.17118393502E+03  0.17454668866E+03  0.00000000000E+00 0.  1.
         12    1    6    6    0    0 -0.25339944506E+02  0.47077322816E+02  0.17609252135E+03  0.18402978886E+03  0.00000000000E+00 0. -1.
         -5    1    3    3    0  503  0.43460392386E+02 -0.76644182258E+02  0.89478710611E+02  0.12566489579E+03  0.47000000000E+01 0.  1.
         11    1    4    4    0    0  0.16825938014E+02  0.22345739850E+02  0.89651743067E+02  0.93914212527E+02  0.00000000000E+00 0. -1.
        -12    1    4    4    0    0 -0.74658582418E+01  0.31499924592E+02 -0.80318243867E+01  0.33354077586E+02  0.00000000000E+00 0.  1.
</event>
<event>
12    1  0.8633375E-002  0.1811879E+03  0.7818608E-02  0.1167101E+00
         21   -1    0    0  501  502  0.00000000000E+00  0.00000000000E+00  0.60625407691E+03  0.60625407691E+03  0.00000000000E+00 0. -1.
         21   -1    0    0  502  503 -0.00000000000E+00 -0.00000000000E+00 -0.64641688810E+02  0.64641688810E+02  0.00000000000E+00 0.  1.
         -6    2    1    2    0  503  0.50233124406E+02  0.76277671593E+01  0.13105116173E+03  0.22213127635E+03  0.17200682348E+03 0.  0.
        -24    2    3    3    0    0  0.27007793006E+02 -0.49511162532E+02  0.12616075184E+03  0.16008065658E+03  0.80799165886E+02 0.  0.
          6    2    1    2  501    0 -0.50233124406E+02 -0.76277671593E+01  0.41056122638E+03  0.44876448937E+03  0.17391807467E+03 0.  0.
         24    2    5    5    0    0 -0.19141062500E+01  0.55978872133E+02  0.17760840225E+03  0.20245241020E+03  0.79403626601E+02 0.  0.
          5    1    5    5  501    0 -0.48319018156E+02 -0.63606639293E+02  0.23295282413E+03  0.24631207917E+03  0.47000000000E+01 0. -1.
        -13    1    6    6    0    0  0.25313414884E+01 -0.20197365659E+02  0.29471957598E+02  0.35818117678E+02  0.00000000000E+00 0.  1.
         14    1    6    6    0    0 -0.44454477383E+01  0.76176237793E+02  0.14813644465E+03  0.16663429252E+03  0.00000000000E+00 0. -1.
         -5    1    3    3    0  503  0.23225331400E+02  0.57138929692E+02  0.48904098841E+01  0.62050619770E+02  0.47000000000E+01 0.  1.
         11    1    4    4    0    0 -0.27766251067E+02 -0.24555231094E+02  0.35978452003E+02  0.51656297592E+02  0.00000000000E+00 0. -1.
        -12    1    4    4    0    0  0.54774044072E+02 -0.24955931439E+02  0.90182299840E+02  0.10842435899E+03  0.00000000000E+00 0.  1.
</event>
<event>
12    1  0.8633375E-002  0.2290021E+03  0.7818608E-02  0.1127757E+00
         21   -1    0    0  503  502  0.00000000000E+00  0.00000000000E+00  0.86683919233E+02  0.86683919233E+02  0.00000000000E+00 0. -1.
         21   -1    0    0  501  503 -0.00000000000E+00 -0.00000000000E+00 -0.64189326605E+03  0.64189326605E+03  0.00000000000E+00 0. -1.
          6    2    1    2  501    0  0.13319762585E+03 -0.62459723060E+02 -0.37324844417E+03  0.43789992018E+03  0.17549676487E+03 0.  0.
         24    2    3    3    0    0  0.76792498867E+02 -0.91242762227E+02 -0.15591261187E+03  0.21147784596E+03  0.78688037524E+02 0.  0.
         -6    2    1    2    0  502 -0.13319762585E+03  0.62459723060E+02 -0.18196090266E+03  0.29067726511E+03  0.17245485734E+03 0.  0.
        -24    2    5    5    0    0 -0.32398216974E+02 -0.13157249729E+02 -0.30318748059E+02  0.93456879617E+02  0.81192389916E+02 0.  0.
          5    1    3    3  501    0  0.56405126987E+02  0.28783039167E+02 -0.21733583230E+03  0.22642207422E+03  0.47000000000E+01 0. -1.
        -13    1    4    4    0    0  0.37760364945E+02 -0.13134163777E+02 -0.96405137033E+01  0.41125307578E+02  0.00000000000E+00 0.  1.
         14    1    4    4    0    0  0.39032133922E+02 -0.78108598449E+02 -0.14627209817E+03  0.17035253838E+03  0.00000000000E+00 0. -1.
         -5    1    5    5    0  502 -0.10079940888E+03  0.75616972789E+02 -0.15164215460E+03  0.19722038550E+03  0.47000000000E+01 0.  1.
         11    1    6    6    0    0 -0.28114004160E+01 -0.27218989426E+02 -0.48724009041E+02  0.55882075969E+02  0.00000000000E+00 0. -1.
        -12    1    6    6    0    0 -0.29586816558E+02  0.14061739697E+02  0.18405260981E+02  0.37574803647E+02  0.00000000000E+00 0.  1.
</event>
<event>
12    1  0.8633375E-002  0.1966590E+03  0.7818608E-02  0.1152853E+00
         21   -1    0    0  501  502  0.00000000000E+00  0.00000000000E+00  0.43406126861E+02  0.43406126861E+02  0.00000000000E+00 0.  1.
         21   -1    0    0  502  503 -0.00000000000E+00 -0.00000000000E+00 -0.10706788886E+04  0.10706788886E+04  0.00000000000E+00 0.  1.
         -6    2    1    2    0  503  0.98523851441E+01 -0.93109880921E+02 -0.74662891941E+03  0.77209422339E+03  0.17293995223E+03 0.  0.
        -24    2    3    3    0    0 -0.35927281327E+02  0.29234966857E+01 -0.40035840419E+03  0.40981871057E+03  0.79782249618E+02 0.  0.
          6    2    1    2  501    0 -0.98523851441E+01  0.93109880921E+02 -0.28064384234E+03  0.34199079208E+03  0.17155237161E+03 0.  0.
         24    2    5    5    0    0 -0.68827880513E+02  0.73670954785E+02 -0.15442667009E+03  0.20124689177E+03  0.80548297922E+02 0.  0.
          5    1    5    5  501    0  0.58975495369E+02  0.19438926136E+02 -0.12621717225E+03  0.14074390031E+03  0.47000000000E+01 0. -1.
        -11    1    6    6    0    0 -0.24922988448E+02  0.79234041051E+02 -0.84468644312E+02  0.11846577770E+03  0.00000000000E+00 0.  1.
         12    1    6    6    0    0 -0.43904892065E+02 -0.55630862661E+01 -0.69958025781E+02  0.82781114074E+02  0.00000000000E+00 0. -1.
         -5    1    3    3    0  503  0.45779666471E+02 -0.96033377607E+02 -0.34627051522E+03  0.36227551282E+03  0.47000000000E+01 0.  1.
         11    1    4    4    0    0 -0.76418997436E+01  0.85907031075E+01 -0.36505588227E+01  0.12063390539E+02  0.00000000000E+00 0. -1.
        -12    1    4    4    0    0 -0.28285381583E+02 -0.56672064218E+01 -0.39670784537E+03  0.39775532004E+03  0.00000000000E+00 0.  1.
</event>
<event>
12    1  0.8633375E-002  0.3039929E+03  0.7818608E-02  0.1083640E+00
         21   -1    0    0  501  502  0.00000000000E+00  0.00000000000E+00  0.11838282343E+03  0.11838282343E+03  0.00000000000E+00 0. -1.
         21   -1    0    0  502  503 -0.00000000000E+00 -0.00000000000E+00 -0.82354762190E+03  0.82354762190E+03  0.00000000000E+00 0.  1.
         -6    2    1    2    0  503  0.23821259611E+03 -0.75688488717E+02 -0.23730694141E+03  0.38565042740E+03  0.17302508328E+03 0.  0.
        -24    2    3    3    0    0  0.20937089908E+03 -0.17578774653E+02 -0.22688094181E+03  0.31977650370E+03  0.81466949515E+02 0.  0.
          6    2    1    2  501    0 -0.23821259611E+03  0.75688488717E+02 -0.46785785706E+03  0.55628001793E+03  0.16757832694E+03 0.  0.
         24    2    5    5    0    0 -0.14910479420E+03  0.15306974064E+02 -0.16973765472E+03  0.23928810523E+03  0.77339399818E+02 0.  0.
          5    1    5    5  501    0 -0.89107801911E+02  0.60381514654E+02 -0.29812020234E+03  0.31699191270E+03  0.47000000000E+01 0. -1.
        -11    1    6    6    0    0 -0.10786540440E+03  0.44831183708E+02 -0.13065396078E+03  0.17525763312E+03  0.00000000000E+00 0.  1.
         12    1    6    6    0    0 -0.41239389806E+02 -0.29524209644E+02 -0.39083693943E+02  0.64030472112E+02  0.00000000000E+00 0. -1.
         -5    1    3    3    0  503  0.28841697035E+02 -0.58109714064E+02 -0.10425999599E+02  0.65873923704E+02  0.47000000000E+01 0.  1.
         13    1    4    4    0    0  0.50539145871E+02  0.93723173332E+01 -0.14884101681E+02  0.53512447902E+02  0.00000000000E+00 0. -1.
        -14    1    4    4    0    0  0.15883175321E+03 -0.26951091987E+02 -0.21199684013E+03  0.26626405580E+03  0.00000000000E+00 0.  1.
</event>
<event>
12    1  0.8633375E-002  0.2344461E+03  0.7818608E-02  0.1123601E+00
         21   -1    0    0  503  502  0.00000000000E+00  0.00000000000E+00  0.10774904890E+03  0.10774904890E+03  0.00000000000E+00 0.  1.
         21   -1    0    0  501  503 -0.00000000000E+00 -0.00000000000E+00 -0.11511770722E+04  0.11511770722E+04  0.00000000000E+00 0. -1.
          6    2    1    2  501    0  0.15133976554E+03 -0.48754657033E+02 -0.51596580861E+02  0.23976245232E+03  0.17188102039E+03 0.  0.
         24    2    3    3    0    0  0.14292034245E+03  0.14527639126E+02 -0.11850376651E+02  0.16441401875E+03  0.79083889325E+02 0.  0.
         -6    2    1    2    0  502 -0.15133976554E+03  0.48754657033E+02 -0.99183144242E+03  0.10191636688E+04  0.17229112665E+03 0.  0.
        -24    2    5    5    0    0 -0.12642623194E+03 -0.22368861241E+01 -0.44178922346E+03  0.46618143191E+03  0.78478109741E+02 0.  0.
          5    1    3    3  501    0  0.84194230924E+01 -0.63282296159E+02 -0.39746204210E+02  0.75348433570E+02  0.47000000000E+01 0. -1.
        -13    1    4    4    0    0  0.85936452579E+02 -0.25252859378E+02  0.13208117419E+02  0.90538583788E+02  0.00000000000E+00 0.  1.
         14    1    4    4    0    0  0.56983889872E+02  0.39780498504E+02 -0.25058494070E+02  0.73875434965E+02  0.00000000000E+00 0. -1.
         -5    1    5    5    0  502 -0.24913533603E+02  0.50991543157E+02 -0.55004221895E+03  0.55298223684E+03  0.47000000000E+01 0.  1.
         13    1    6    6    0    0 -0.72739012348E+02  0.37287659986E+02 -0.26047877340E+03  0.27300279283E+03  0.00000000000E+00 0. -1.
        -14    1    6    6    0    0 -0.53687219594E+02 -0.39524546110E+02 -0.18131045007E+03  0.19317863908E+03  0.00000000000E+00 0.  1.
</event>
<event>
12    1  0.8633375E-002  0.1748771E+03  0.7818608E-02  0.1173426E+00
         21   -1    0    0  501  502  0.00000000000E+00  0.00000000000E+00  0.15099220280E+03  0.15099220280E+03  0.00000000000E+00 0. -1.
         21   -1    0    0  502  503 -0.00000000000E+00 -0.00000000000E+00 -0.98862454824E+03  0.98862454824E+03  0.00000000000E+00 0. -1.
         -6    2    1    2    0  503  0.87252167579E+01 -0.17848035218E+02 -0.92720322944E+03  0.94313531993E+03  0.17147513300E+03 0.  0.
        -24    2    3    3    0    0 -0.50671203682E+02  0.94380314799E+01 -0.70534941296E+03  0.71180510122E+03  0.80573323418E+02 0.  0.
          6    2    1    2  501    0 -0.87252167579E+01  0.17848035218E+02  0.89570884004E+02  0.19648143111E+03  0.17374500781E+03 0.  0.
         24    2    5    5    0    0 -0.93490293293E+01  0.77305320645E+02  0.35087194108E+02  0.11569702421E+03  0.78045968965E+02 0.  0.
          5    1    5    5  501    0  0.62381257143E+00 -0.59457285427E+02  0.54483689896E+02  0.80784406894E+02  0.47000000000E+01 0. -1.
        -13    1    6    6    0    0  0.14436759312E+02  0.64937072751E+02 -0.58318518312E+01  0.66777645457E+02  0.00000000000E+00 0.  1.
         14    1    6    6    0    0 -0.23785788642E+02  0.12368247894E+02  0.40919045939E+02  0.48919378756E+02  0.00000000000E+00 0. -1.
         -5    1    3    3    0  503  0.59396420440E+02 -0.27286066698E+02 -0.22185381649E+03  0.23133021871E+03  0.47000000000E+01 0.  1.
         11    1    4    4    0    0 -0.49118716078E+02 -0.24250412729E+02 -0.29284015702E+03  0.29791960048E+03  0.00000000000E+00 0. -1.
        -12    1    4    4    0    0 -0.15524876035E+01  0.33688444209E+02 -0.41250925594E+03  0.41388550074E+03  0.00000000000E+00 0.  1.
</event>
<event>
12    1  0.8633375E-002  0.1941770E+03  0.7818608E-02  0.1159131E+00
         21   -1    0    0  503  502  0.00000000000E+00  0.00000000000E+00  0.46362651169E+03  0.46362651169E+03  0.00000000000E+00 0.  1.
         21   -1    0    0  501  503 -0.00000000000E+00 -0.00000000000E+00 -0.90548548407E+02  0.90548548407E+02  0.00000000000E+00 0.  1.
          6    2    1    2  501    0  0.20273166770E+02  0.35858395839E+02  0.74515793324E+02  0.20798396352E+03  0.18975747623E+03 0.  0.
         24    2    3    3    0    0  0.75120011956E+02 -0.97201462042E+01  0.10464349347E+02  0.11201387757E+03  0.81854191844E+02 0.  0.
         -6    2    1    2    0  502 -0.20273166770E+02 -0.35858395839E+02  0.29856216996E+03  0.34619109658E+03  0.17032932859E+03 0.  0.
        -24    2    5    5    0    0 -0.74353824534E+02 -0.47151885873E+02  0.19579674728E+03  0.22942174033E+03  0.80908449030E+02 0.  0.
          5    1    3    3  501    0 -0.54846845186E+02  0.45578542043E+02  0.64051443977E+02  0.95970085950E+02  0.47000000000E+01 0. -1.
        -13    1    4    4    0    0  0.65333103703E+02 -0.23310662859E+02 -0.24239432087E+02  0.73480279737E+02  0.00000000000E+00 0.  1.
         14    1    4    4    0    0  0.97869082533E+01  0.13590516655E+02  0.34703781434E+02  0.38533597832E+02  0.00000000000E+00 0. -1.
         -5    1    5    5    0  502  0.54080657764E+02  0.11293490034E+02  0.10276542268E+03  0.11676935625E+03  0.47000000000E+01 0.  1.
         11    1    6    6    0    0 -0.22868347105E+02 -0.56100047330E+02  0.66467856675E+02  0.89934156919E+02  0.00000000000E+00 0. -1.
        -12    1    6    6    0    0 -0.51485477429E+02  0.89481614572E+01  0.12932889061E+03  0.13948758341E+03  0.00000000000E+00 0.  1.
</event>
<event>
12    1  0.8633375E-002  0.2272753E+03  0.7818608E-02  0.1128755E+00
         21   -1    0    0  503  502  0.00000000000E+00  0.00000000000E+00  0.69218109128E+03  0.69218109128E+03  0.00000000000E+00 0.  1.
         21   -1    0    0  501  503 -0.00000000000E+00 -0.00000000000E+00 -0.85788125546E+02  0.85788125546E+02  0.00000000000E+00 0.  1.
          6    2    1    2  501    0  0.12502758084E+03 -0.77562032601E+02  0.44619648676E+03  0.50074483011E+03  0.17322331024E+03 0.  0.
         24    2    3    3    0    0  0.66736887012E+02  0.24923119709E+02  0.17818730517E+03  0.20791036689E+03  0.80006443200E+02 0.  0.
         -6    2    1    2    0  502 -0.12502758084E+03  0.77562032601E+02  0.16019647898E+03  0.27722438672E+03  0.17187985293E+03 0.  0.
        -24    2    5    5    0    0 -0.48000172143E+02  0.94573698344E+02  0.14694493297E+03  0.19709753770E+03  0.77501129661E+02 0.  0.
          5    1    3    3  501    0  0.58290693828E+02 -0.10248515231E+03  0.26800918159E+03  0.29283446321E+03  0.47000000000E+01 0. -1.
        -13    1    4    4    0    0  0.77456649988E+02  0.26362345872E+02  0.10106457010E+03  0.13003289290E+03  0.00000000000E+00 0.  1.
         14    1    4    4    0    0 -0.10719762976E+02 -0.14392261631E+01  0.77122735074E+02  0.77877473993E+02  0.00000000000E+00 0. -1.
         -5    1    5    5    0  502 -0.77027408698E+02 -0.17011665742E+02  0.13251546010E+02  0.80126849019E+02  0.47000000000E+01 0.  1.
         11    1    6    6    0    0 -0.45176514330E+02  0.18153511676E+02  0.87900085738E+02  0.10048329466E+03  0.00000000000E+00 0. -1.
        -12    1    6    6    0    0 -0.28236578124E+01  0.76420186668E+02  0.59044847229E+02  0.96614243040E+02  0.00000000000E+00 0.  1.
</event>
<event>
12    1  0.8633375E-002  0.2195759E+03  0.7818608E-02  0.1134913E+00
         21   -1    0    0  503  502  0.00000000000E+00  0.00000000000E+00  0.27924229288E+03  0.27924229288E+03  0.00000000000E+00 0. -1.
         21   -1    0    0  501  503 -0.00000000000E+00 -0.00000000000E+00 -0.21659887429E+03  0.21659887429E+03  0.00000000000E+00 0.  1.
          6    2    1    2  501    0 -0.13257306040E+03 -0.33306501657E+01 -0.84252245751E+02  0.23165953943E+03  0.17023804429E+03 0.  0.
         24    2    3    3    0    0 -0.48720368020E+02  0.46316246376E+02 -0.47054722400E+01  0.10577916951E+03  0.81536631616E+02 0.  0.
         -6    2    1    2    0  502  0.13257306040E+03  0.33306501657E+01  0.14689566434E+03  0.26418162774E+03  0.17500539038E+03 0.  0.
        -24    2    5    5    0    0  0.14859962214E+02 -0.49105608763E+01  0.11793145009E+03  0.14258678101E+03  0.78601724623E+02 0.  0.
          5    1    3    3  501    0 -0.83852692379E+02 -0.49646896542E+02 -0.79546773511E+02  0.12588036992E+03  0.47000000000E+01 0. -1.
        -13    1    4    4    0    0 -0.24533142392E+02  0.71021610035E+01 -0.40194187839E+02  0.47622352972E+02  0.00000000000E+00 0.  1.
         14    1    4    4    0    0 -0.24187225628E+02  0.39214085373E+02  0.35488715599E+02  0.58156816540E+02  0.00000000000E+00 0. -1.
         -5    1    5    5    0  502  0.11771309819E+03  0.82412110420E+01  0.28964214244E+02  0.12159484673E+03  0.47000000000E+01 0.  1.
         11    1    6    6    0    0  0.38337712565E+02  0.19955995608E+02  0.47061272466E+02  0.63896677000E+02  0.00000000000E+00 0. -1.
        -12    1    6    6    0    0 -0.23477750351E+02 -0.24866556484E+02  0.70870177627E+02  0.78690104015E+02  0.00000000000E+00 0.  1.
</event>
<event>
12    1  0.8633375E-002  0.1828235E+03  0.7818608E-02  0.1165710E+00
         21   -1    0    0  503  502  0.00000000000E+00  0.00000000000E+00  0.37449487411E+03  0.37449487411E+03  0.00000000000E+00 0. -1.
         21   -1    0    0  501  503 -0.00000000000E+00 -0.00000000000E+00 -0.97259389582E+02  0.97259389582E+02  0.00000000000E+00 0. -1.
          6    2    1    2  501    0 -0.53861932955E+02  0.16446899892E+02  0.66744775120E+02  0.19462601866E+03  0.17393336022E+03 0.  0.
         24    2    3    3    0    0 -0.61408423107E+02  0.23930550949E+02  0.10903373098E+03  0.15076943039E+03  0.80618862256E+02 0.  0.
         -6    2    1    2    0  502  0.53861932955E+02 -0.16446899892E+02  0.21049070940E+03  0.27712824503E+03  0.17123702026E+03 0.  0.
        -24    2    5    5    0    0  0.24472349065E+02 -0.67782501034E+02  0.79633685422E+02  0.13344546140E+03  0.79201035339E+02 0.  0.
          5    1    3    3  501    0  0.75464901520E+01 -0.74836510566E+01 -0.42288955862E+02  0.43856588270E+02  0.47000000000E+01 0. -1.
        -11    1    4    4    0    0  0.19233447885E+02  0.29519149722E+00  0.28441306466E+02  0.34335412755E+02  0.00000000000E+00 0.  1.
         12    1    4    4    0    0 -0.80641870993E+02  0.23635359452E+02  0.80592424517E+02  0.11643401764E+03  0.00000000000E+00 0. -1.
         -5    1    5    5    0  502  0.29389583890E+02  0.51335601142E+02  0.13085702398E+03  0.14368278363E+03  0.47000000000E+01 0.  1.
         13    1    6    6    0    0  0.32748901389E+02 -0.47714525505E+02  0.77900575765E+01  0.58393933618E+02  0.00000000000E+00 0. -1.
        -14    1    6    6    0    0 -0.82765523233E+01 -0.20067975530E+02  0.71843627846E+02  0.75051527781E+02  0.00000000000E+00 0.  1.
</event>
<event>
12    1  0.8633375E-002  0.1824306E+03  0.7818608E-02  0.1165703E+00
         21   -1    0    0  503  502  0.00000000000E+00  0.00000000000E+00  0.99814364876E+02  0.99814364876E+02  0.00000000000E+00 0. -1.
         21   -1    0    0  501  503 -0.00000000000E+00 -0.00000000000E+00 -0.33635362769E+03  0.33635362769E+03  0.00000000000E+00 0. -1.
          6    2    1    2  501    0  0.53762368275E+02  0.23822141906E+02 -0.14373263327E+03  0.23148774455E+03  0.17166717602E+03 0.  0.
         24    2    3    3    0    0 -0.10926539066E+02  0.37800496542E+02 -0.13865481069E+03  0.16494510098E+03  0.80208871175E+02 0.  0.
         -6    2    1    2    0  502 -0.53762368275E+02 -0.23822141906E+02 -0.92806629546E+02  0.20468024802E+03  0.17269350524E+03 0.  0.
        -24    2    5    5    0    0 -0.92623714811E+02  0.75844542465E+01 -0.95319305196E+02  0.15443104827E+03  0.78271976047E+02 0.  0.
          5    1    3    3  501    0  0.64688907341E+02 -0.13978354636E+02 -0.50778225816E+01  0.66542643571E+02  0.47000000000E+01 0. -1.
        -11    1    4    4    0    0  0.21226180914E+02 -0.38784073513E+01 -0.92350876005E+02  0.94838162670E+02  0.00000000000E+00 0.  1.
         12    1    4    4    0    0 -0.32152719980E+02  0.41678903894E+02 -0.46303934683E+02  0.70106938309E+02  0.00000000000E+00 0. -1.
         -5    1    5    5    0  502  0.38861346536E+02 -0.31406596153E+02  0.25126756499E+01  0.50249199749E+02  0.47000000000E+01 0.  1.
         11    1    6    6    0    0 -0.89007391159E+02 -0.11413340875E+02 -0.10017667745E+03  0.13449143740E+03  0.00000000000E+00 0. -1.
        -12    1    6    6    0    0 -0.36163236528E+01  0.18997795122E+02  0.48573722492E+01  0.19939610864E+02  0.00000000000E+00 0.  1.
</event>
<event>
12    1  0.8633375E-002  0.2716564E+03  0.7818608E-02  0.1100366E+00
         21   -1    0    0  503  502  0.00000000000E+00  0.00000000000E+00  0.18931710563E+03  0.18931710563E+03  0.00000000000E+00 0. -1.
         21   -1    0    0  501  503 -0.00000000000E+00 -0.00000000000E+00 -0.39062941672E+03  0.39062941672E+03  0.00000000000E+00 0.  1.
          6    2    1    2  501    0  0.74913459205E+02  0.19522900367E+03 -0.85072816607E+02  0.28466572710E+03  0.17340934755E+03 0.  0.
         24    2    3    3    0    0  0.94325147297E+02  0.13937573811E+03 -0.11437054152E+03  0.21850797930E+03  0.79638473531E+02 0.  0.
         -6    2    1    2    0  502 -0.74913459205E+02 -0.19522900367E+03 -0.11623949448E+03  0.29528079525E+03  0.17306859255E+03 0.  0.
        -24    2    5    5    0    0 -0.13050414055E+01 -0.13172149206E+03 -0.14612425643E+02  0.15456279953E+03  0.79522835781E+02 0.  0.
          5    1    3    3  501    0 -0.19411688092E+02  0.55853265559E+02  0.29297724912E+02  0.66157747794E+02  0.47000000000E+01 0. -1.
        -13    1    4    4    0    0 -0.42320795169E+01  0.55814065623E+01 -0.32523558373E+02  0.33269271791E+02  0.00000000000E+00 0.  1.
         14    1    4    4    0    0  0.98557226814E+02  0.13379433155E+03 -0.81846983146E+02  0.18523870751E+03  0.00000000000E+00 0. -1.
         -5    1    5    5    0  502 -0.73608417799E+02 -0.63507511606E+02 -0.10162706883E+03  0.14071799572E+03  0.47000000000E+01 0.  1.
         11    1    6    6    0    0 -0.37990545858E+02 -0.43402342124E+02  0.84328782610E+00  0.57686705668E+02  0.00000000000E+00 0. -1.
        -12    1    6    6    0    0  0.36685504453E+02 -0.88319149938E+02 -0.15455713469E+02  0.96876093860E+02  0.00000000000E+00 0.  1.
</event>
<event>
12    1  0.8633375E-002  0.1900304E+03  0.7818608E-02  0.1158734E+00
         21   -1    0    0  503  502  0.00000000000E+00  0.00000000000E+00  0.30371910275E+03  0.30371910275E+03  0.00000000000E+00 0. -1.
         21   -1    0    0  501  503 -0.00000000000E+00 -0.00000000000E+00 -0.29567498255E+03  0.29567498255E+03  0.00000000000E+00 0. -1.
          6    2    1    2  501    0  0.29412323723E+02 -0.70898014298E+02 -0.22825804975E+03  0.29616105546E+03  0.17238915358E+03 0.  0.
         24    2    3    3    0    0  0.41576881177E+02  0.11449789424E+02 -0.17282284905E+03  0.19603968554E+03  0.81878485749E+02 0.  0.
         -6    2    1    2    0  502 -0.29412323723E+02  0.70898014298E+02  0.23630216995E+03  0.30323302984E+03  0.17383883815E+03 0.  0.
        -24    2    5    5    0    0 -0.14661751921E+02  0.57513102616E+02  0.24911146108E+03  0.27908964217E+03  0.11095848043E+03 0.  0.
          5    1    3    3  501    0 -0.12164557454E+02 -0.82347803722E+02 -0.55435200706E+02  0.10012136991E+03  0.47000000000E+01 0. -1.
        -13    1    4    4    0    0 -0.12180513436E+02 -0.10680722234E+02 -0.29132693391E+01  0.16459947547E+02  0.00000000000E+00 0.  1.
         14    1    4    4    0    0  0.53757394613E+02  0.22130511659E+02 -0.16990957971E+03  0.17957973800E+03  0.00000000000E+00 0. -1.
         -5    1    5    5    0  502 -0.14750571802E+02  0.13384911682E+02 -0.12809291135E+02  0.24143387679E+02  0.47000000000E+01 0.  1.
         11    1    6    6    0    0  0.19109739934E+02 -0.24141442835E+02  0.11049380879E+03  0.11470341408E+03  0.00000000000E+00 0. -1.
        -12    1    6    6    0    0 -0.33771491855E+02  0.81654545451E+02  0.13861765229E+03  0.16438622808E+03  0.00000000000E+00 0.  1.
</event>
<event>
12    1  0.8633375E-002  0.2227131E+03  0.7818608E-02  0.1132433E+00
         21   -1    0    0  501  502  0.00000000000E+00  0.00000000000E+00  0.11447252258E+04  0.11447252258E+04  0.00000000000E+00 0.  1.
         21   -1    0    0  502  503 -0.00000000000E+00 -0.00000000000E+00 -0.42759189669E+02  0.42759189669E+02  0.00000000000E+00 0. -1.
         -6    2    1    2    0  503  0.58445143395E+01  0.13571838494E+03  0.56513326832E+03  0.60743455686E+03  0.17648651945E+03 0.  0.
        -24    2    3    3    0    0 -0.50723289940E+02  0.10747775521E+03  0.26739806579E+03  0.30302399450E+03  0.78724174499E+02 0.  0.
          6    2    1    2  501    0 -0.58445143395E+01 -0.13571838494E+03  0.53683276778E+03  0.58004985857E+03  0.17266956742E+03 0.  0.
         24    2    5    5    0    0 -0.14050554458E+02 -0.11821698276E+03  0.22890999482E+03  0.27148517771E+03  0.84449647093E+02 0.  0.
          5    1    5    5  501    0  0.82060401187E+01 -0.17501402184E+02  0.30792277295E+03  0.30856468086E+03  0.47000000000E+01 0. -1.
        -13    1    6    6    0    0  0.27676233073E+02 -0.75773874941E+02  0.16777817023E+03  0.18616435858E+03  0.00000000000E+00 0.  1.
         14    1    6    6    0    0 -0.41726787531E+02 -0.42443107816E+02  0.61131824594E+02  0.85320819130E+02  0.00000000000E+00 0. -1.
         -5    1    3    3    0  503  0.56567804280E+02  0.28240629735E+02  0.29773520253E+03  0.30441056236E+03  0.47000000000E+01 0.  1.
         13    1    4    4    0    0 -0.56029359675E+01  0.85117130513E+02  0.11975343576E+03  0.14702790271E+03  0.00000000000E+00 0. -1.
        -14    1    4    4    0    0 -0.45120353973E+02  0.22360624692E+02  0.14764463002E+03  0.15599609179E+03  0.00000000000E+00 0.  1.
</event>
<event>
12    1  0.8633375E-002  0.2009419E+03  0.7818608E-02  0.1149043E+00
         21   -1    0    0  501  502  0.00000000000E+00  0.00000000000E+00  0.89492723806E+02  0.89492723806E+02  0.00000000000E+00 0.  1.
         21   -1    0    0  502  503 -0.00000000000E+00 -0.00000000000E+00 -0.46505059621E+03  0.46505059621E+03  0.00000000000E+00 0.  1.
         -6    2    1    2    0  503  0.69504340083E+02  0.76932378788E+02 -0.23760188086E+03  0.31117888798E+03  0.17212844721E+03 0.  0.
        -24    2    3    3    0    0  0.93118793394E+02  0.10419117463E+03 -0.17091648621E+03  0.23522023992E+03  0.81173921028E+02 0.  0.
          6    2    1    2  501    0 -0.69504340083E+02 -0.76932378788E+02 -0.13795599155E+03  0.24336443204E+03  0.17159530000E+03 0.  0.
         24    2    5    5    0    0 -0.52263156485E+02 -0.25159402825E+02 -0.15689084274E+03  0.18541343514E+03  0.79993576717E+02 0.  0.
          5    1    5    5  501    0 -0.17241183597E+02 -0.51772975963E+02  0.18934851198E+02  0.57950996901E+02  0.47000000000E+01 0. -1.
        -11    1    6    6    0    0  0.62921581985E+00 -0.36418845082E+02 -0.10221951956E+03  0.10851524487E+03  0.00000000000E+00 0.  1.
         12    1    6    6    0    0 -0.52892372305E+02  0.11259442257E+02 -0.54671323185E+02  0.76898190270E+02  0.00000000000E+00 0. -1.
         -5    1    3    3    0  503 -0.23614453311E+02 -0.27258795840E+02 -0.66685394650E+02  0.75958648062E+02  0.47000000000E+01 0.  1.
         13    1    4    4    0    0  0.61532503875E+02  0.34964460182E+02 -0.33855113309E+02  0.78453369629E+02  0.00000000000E+00 0. -1.
        -14    1    4    4    0    0  0.31586289518E+02  0.69226714446E+02 -0.13706137290E+03  0.15676687029E+03  0.00000000000E+00 0.  1.
</event>
<event>
12    1  0.8633375E-002  0.2370291E+03  0.7818608E-02  0.1121928E+00
         21   -1    0    0  503  502  0.00000000000E+00  0.00000000000E+00  0.27954153737E+03  0.27954153737E+03  0.00000000000E+00 0.  1.
         21   -1    0    0  501  503 -0.00000000000E+00 -0.00000000000E+00 -0.70878821923E+03  0.70878821923E+03  0.00000000000E+00 0.  1.
          6    2    1    2  501    0 -0.13299418575E+03 -0.90433278228E+02 -0.63329170505E+03  0.67619611672E+03  0.17411827394E+03 0.  0.
         24    2    3    3    0    0 -0.79375105439E+02 -0.81281396607E+02 -0.59104013066E+03  0.60715954489E+03  0.80045013000E+02 0.  0.
         -6    2    1    2    0  502  0.13299418575E+03  0.90433278228E+02  0.20404502319E+03  0.31213363988E+03  0.17299539416E+03 0.  0.
        -24    2    5    5    0    0  0.42874376296E+02  0.68844493525E+02  0.18544439682E+03  0.21749892647E+03  0.79613957764E+02 0.  0.
          5    1    3    3  501    0 -0.53619080314E+02 -0.91518816213E+01 -0.42251574396E+02  0.69036571829E+02  0.47000000000E+01 0. -1.
        -13    1    4    4    0    0 -0.90341835933E+02 -0.66196386803E+02 -0.40544132373E+03  0.42062605238E+03  0.00000000000E+00 0.  1.
         14    1    4    4    0    0  0.10966730494E+02 -0.15085009804E+02 -0.18559880692E+03  0.18653349252E+03  0.00000000000E+00 0. -1.
         -5    1    5    5    0  502  0.90119809456E+02  0.21588784703E+02  0.18600626376E+02  0.94634713414E+02  0.47000000000E+01 0.  1.
         11    1    6    6    0    0 -0.11529776504E+02 -0.92919530993E+01  0.48490908483E+02  0.50701522109E+02  0.00000000000E+00 0. -1.
        -12    1    6    6    0    0  0.54404152800E+02  0.78136446624E+02  0.13695348834E+03  0.16679740436E+03  0.00000000000E+00 0.  1.
</event>
<event>
12    1  0.8633375E-002  0.2579684E+03  0.7818608E-02  0.1108427E+00
         21   -1    0    0  503  502  0.00000000000E+00  0.00000000000E+00  0.26027604839E+03  0.26027604839E+03  0.00000000000E+00 0.  1.
         21   -1    0    0  501  503 -0.00000000000E+00 -0.00000000000E+00 -0.32420825921E+03  0.32420825921E+03  0.00000000000E+00 0. -1.
          6    2    1    2  501    0 -0.82248596737E+02  0.17446942874E+03 -0.16667186807E+03  0.30680983239E+03  0.17072887400E+03 0.  0.
         24    2    3    3    0    0  0.11998449450E+02  0.11515870669E+03 -0.10973171704E+03  0.18165177926E+03  0.86895504301E+02 0.  0.
         -6    2    1    2    0  502  0.82248596737E+02 -0.17446942874E+03  0.10273965725E+03  0.27767447521E+03  0.17129875593E+03 0.  0.
        -24    2    5    5    0    0  0.25431149583E+02 -0.11499800988E+02  0.30730215179E+00  0.76921394938E+02  0.71678572619E+02 0.  0.
          5    1    3    3  501    0 -0.94247046186E+02  0.59310722042E+02 -0.56940151023E+02  0.12515805313E+03  0.47000000000E+01 0. -1.
        -13    1    4    4    0    0 -0.28334842704E+02  0.65759413063E+02 -0.25517565976E+02  0.76015195131E+02  0.00000000000E+00 0.  1.
         14    1    4    4    0    0  0.40333292154E+02  0.49399293630E+02 -0.84214151067E+02  0.10563658413E+03  0.00000000000E+00 0. -1.
         -5    1    5    5    0  502  0.56817447153E+02 -0.16296962775E+03  0.10243235509E+03  0.20075308027E+03  0.47000000000E+01 0.  1.
         13    1    6    6    0    0 -0.92516959201E+01 -0.33778509948E+02 -0.49311387660E+01  0.35368032759E+02  0.00000000000E+00 0. -1.
        -14    1    6    6    0    0  0.34682845503E+02  0.22278708960E+02  0.52384409178E+01  0.41553362179E+02  0.00000000000E+00 0.  1.
</event>
<event>
12    1  0.8633375E-002  0.1741471E+03  0.7818608E-02  0.1176414E+00
         21   -1    0    0  501  502  0.00000000000E+00  0.00000000000E+00  0.12972759011E+03  0.12972759011E+03  0.00000000000E+00 0. -1.
         21   -1    0    0  502  503 -0.00000000000E+00 -0.00000000000E+00 -0.26912308032E+03  0.26912308032E+03  0.00000000000E+00 0. -1.
         -6    2    1    2    0  503  0.17814208345E+02 -0.26702620719E+02 -0.15347397910E+03  0.22413544837E+03  0.16016260794E+03 0.  0.
        -24    2    3    3    0    0  0.23430476988E+01  0.32574498032E+02 -0.39645853283E+02  0.94782961551E+02  0.79658196837E+02 0.  0.
          6    2    1    2  501    0 -0.17814208345E+02  0.26702620719E+02  0.14078488896E+02  0.17471522206E+03  0.17116316484E+03 0.  0.
         24    2    5    5    0    0 -0.85854634330E+01 -0.51241053420E+02  0.12115242770E+02  0.96061993223E+02  0.79885991867E+02 0.  0.
          5    1    5    5  501    0 -0.92287449118E+01  0.77943674139E+02  0.19632461260E+01  0.78653228836E+02  0.47000000000E+01 0. -1.
        -13    1    6    6    0    0 -0.39062745772E+01  0.59940792044E+01 -0.26112988949E+02  0.27075379193E+02  0.00000000000E+00 0.  1.
         14    1    6    6    0    0 -0.46791888558E+01 -0.57235132624E+02  0.38228231720E+02  0.68986614030E+02  0.00000000000E+00 0. -1.
         -5    1    3    3    0  503  0.15471160646E+02 -0.59277118751E+02 -0.11382812582E+03  0.12935248682E+03  0.47000000000E+01 0.  1.
         13    1    4    4    0    0 -0.10824690241E+02  0.42958713803E+02 -0.55969230416E+02  0.71380527904E+02  0.00000000000E+00 0. -1.
        -14    1    4    4    0    0  0.13167737939E+02 -0.10384215771E+02  0.16323377133E+02  0.23402433648E+02  0.00000000000E+00 0.  1.
</event>
<event>
12    1  0.8633375E-002  0.1944622E+03  0.7818608E-02  0.1154592E+00
         21   -1    0    0  501  502  0.00000000000E+00  0.00000000000E+00  0.31193820305E+03  0.31193820305E+03  0.00000000000E+00 0.  1.
         21   -1    0    0  502  503 -0.00000000000E+00 -0.00000000000E+00 -0.16550406402E+04  0.16550406402E+04  0.00000000000E+00 0. -1.
         -6    2    1    2    0  503 -0.79351075596E+02 -0.43531780133E+02 -0.16184748666E+04  0.16301154738E+04  0.17211610896E+03 0.  0.
        -24    2    3    3    0    0 -0.25286270426E+02  0.23953734164E+02 -0.11767604417E+04  0.11799921340E+04  0.80019512861E+02 0.  0.
          6    2    1    2  501    0  0.79351075596E+02  0.43531780133E+02  0.27537242944E+03  0.33686336948E+03  0.17162559752E+03 0.  0.
         24    2    5    5    0    0 -0.39220255374E+01  0.44286930992E+02  0.68702303155E+02  0.11399656908E+03  0.79363069253E+02 0.  0.
          5    1    5    5  501    0  0.83273101133E+02 -0.75515085856E+00  0.20667012628E+03  0.22286680040E+03  0.47000000000E+01 0. -1.
        -11    1    6    6    0    0  0.16481385821E+02  0.10937177880E+02  0.72089552691E+02  0.74754006888E+02  0.00000000000E+00 0.  1.
         12    1    6    6    0    0 -0.20403411358E+02  0.33349753112E+02 -0.33872495364E+01  0.39242562188E+02  0.00000000000E+00 0. -1.
         -5    1    3    3    0  503 -0.54064805170E+02 -0.67485514297E+02 -0.44171442489E+03  0.45012333971E+03  0.47000000000E+01 0.  1.
         11    1    4    4    0    0 -0.26768036310E+02  0.22191550733E+02 -0.11771445283E+04  0.11776579440E+04  0.00000000000E+00 0. -1.
        -12    1    4    4    0    0  0.14817658841E+01  0.17621834306E+01  0.38408657695E+00  0.23341900259E+01  0.00000000000E+00 0.  1.
</event>
<event>
12    1  0.8633375E-002  0.2214531E+03  0.7818608E-02  0.1132839E+00
         21   -1    0    0  501  502  0.00000000000E+00  0.00000000000E+00  0.40241237888E+03  0.40241237888E+03  0.00000000000E+00 0. -1.
         21   -1    0    0  502  503 -0.00000000000E+00 -0.00000000000E+00 -0.26714928320E+03  0.26714928320E+03  0.00000000000E+00 0.  1.
         -6    2    1    2    0  503  0.57985278946E+02 -0.12658764682E+03 -0.17934954784E+03  0.28482464150E+03  0.17196537790E+03 0.  0.
        -24    2    3    3    0    0  0.46217505062E+02 -0.72180865625E+02 -0.24605044818E+02  0.12030555581E+03  0.80758178485E+02 0.  0.
          6    2    1    2  501    0 -0.57985278946E+02  0.12658764682E+03  0.31461264352E+03  0.38473702058E+03  0.17220550119E+03 0.  0.
         24    2    5    5    0    0 -0.68009196449E+02  0.15031612031E+03  0.30796266083E+03  0.35772162412E+03  0.76834712664E+02 0.  0.
          5    1    5    5  501    0  0.10023917503E+02 -0.23728473487E+02  0.66499826864E+01  0.27015396459E+02  0.47000000000E+01 0. -1.
        -11    1    6    6    0    0 -0.57777686751E+02  0.12716413934E+03  0.18295532691E+03  0.23017739043E+03  0.00000000000E+00 0.  1.
         12    1    6    6    0    0 -0.10231509698E+02  0.23151980970E+02  0.12500733392E+03  0.12754423369E+03  0.00000000000E+00 0. -1.
         -5    1    3    3    0  503  0.11767773884E+02 -0.54406781195E+02 -0.15474450302E+03  0.16451908569E+03  0.47000000000E+01 0.  1.
         13    1    4    4    0    0  0.20436299560E+02 -0.83981335057E+02 -0.29908101305E+02  0.91460382141E+02  0.00000000000E+00 0. -1.
        -14    1    4    4    0    0  0.25781205502E+02  0.11800469432E+02  0.53030564872E+01  0.28845173671E+02  0.00000000000E+00 0.  1.
</event>
<event>
12    1  0.8633375E-002  0.1885031E+03  0.7818608E-02  0.1159845E+00
         21   -1    0    0  503  502  0.00000000000E+00  0.00000000000E+00  0.18753198669E+03  0.18753198669E+03  0.00000000000E+00 0.  1.
         21   -1    0    0  501  503 -0.00000000000E+00 -0.00000000000E+00 -0.19345095704E+03  0.19345095704E+03  0.00000000000E+00 0.  1.
          6    2    1    2  501    0  0.48772421446E+02  0.60219276825E+02 -0.30656831287E+02  0.19086352449E+03  0.17170886198E+03 0.  0.
         24    2    3    3    0    0  0.68654367317E+02  0.89258620147E+02 -0.59373993131E+02  0.14519799464E+03  0.69833109379E+02 0.  0.
         -6    2    1    2    0  502 -0.48772421446E+02 -0.60219276825E+02  0.24737860938E+02  0.19011941924E+03  0.17183806741E+03 0.  0.
        -24    2    5    5    0    0  0.22037558849E+02 -0.72898278472E+02 -0.85917443665E+01  0.11069799277E+03  0.79877497004E+02 0.  0.
          5    1    3    3  501    0 -0.19881945871E+02 -0.29039343322E+02  0.28717161844E+02  0.45665529851E+02  0.47000000000E+01 0. -1.
        -11    1    4    4    0    0  0.29492647913E+02  0.71405064181E+02 -0.72413066051E+01  0.77594690494E+02  0.00000000000E+00 0.  1.
         12    1    4    4    0    0  0.39161719404E+02  0.17853555967E+02 -0.52132686526E+02  0.67603304148E+02  0.00000000000E+00 0. -1.
         -5    1    5    5    0  502 -0.70809980295E+02  0.12679001647E+02  0.33329605304E+02  0.79421426466E+02  0.47000000000E+01 0.  1.
         13    1    6    6    0    0 -0.19222196358E+01  0.54206330270E+01  0.22401481580E+02  0.23128003972E+02  0.00000000000E+00 0. -1.
        -14    1    6    6    0    0  0.23959778485E+02 -0.78318911499E+02 -0.30993225946E+02  0.87569988798E+02  0.00000000000E+00 0.  1.
</event>
<event>
12    1  0.8633375E-002  0.1799491E+03  0.7818608E-02  0.1168417E+00
         21   -1    0    0  501  502  0.00000000000E+00  0.00000000000E+00  0.26488603003E+03  0.26488603003E+03  0.00000000000E+00 0. -1.
         21   -1    0    0  502  503 -0.00000000000E+00 -0.00000000000E+00 -0.12344642826E+03  0.12344642826E+03  0.00000000000E+00 0. -1.
         -6    2    1    2    0  503 -0.48919131695E+02 -0.17265381483E+02  0.42091446148E+02  0.18480626866E+03  0.17230929242E+03 0.  0.
        -24    2    3    3    0    0 -0.88809518324E+02 -0.29771013842E+02 -0.27793835899E+01  0.12329923534E+03  0.80134466075E+02 0.  0.
          6    2    1    2  501    0  0.48919131695E+02  0.17265381483E+02  0.99348155619E+02  0.20352618963E+03  0.16988725377E+03 0.  0.
         24    2    5    5    0    0  0.63449239442E+02 -0.41836343188E+02  0.38314842017E+02  0.11720531579E+03  0.80578988166E+02 0.  0.
          5    1    5    5  501    0 -0.14530107747E+02  0.59101724671E+02  0.61033313602E+02  0.86320873834E+02  0.47000000000E+01 0. -1.
        -11    1    6    6    0    0 -0.79934742943E+01 -0.29778160637E+02 -0.71739524920E+01  0.31655964313E+02  0.00000000000E+00 0.  1.
         12    1    6    6    0    0  0.71442713737E+02 -0.12058182551E+02  0.45488794509E+02  0.85549351478E+02  0.00000000000E+00 0. -1.
         -5    1    3    3    0  503  0.39890386628E+02  0.12505632360E+02  0.44870829738E+02  0.61507033317E+02  0.47000000000E+01 0.  1.
         13    1    4    4    0    0 -0.12290791238E+02 -0.35926660193E+02  0.20408146442E+02  0.43107782396E+02  0.00000000000E+00 0. -1.
        -14    1    4    4    0    0 -0.76518727086E+02  0.61556463509E+01 -0.23187530032E+02  0.80191452947E+02  0.00000000000E+00 0.  1.
</event>
<event>
12    1  0.8633375E-002  0.2351486E+03  0.7818608E-02  0.1123337E+00
         21   -1    0    0  501  502  0.00000000000E+00  0.00000000000E+00  0.69857823101E+02  0.69857823101E+02  0.00000000000E+00 0.  1.
         21   -1    0    0  502  503 -0.00000000000E+00 -0.00000000000E+00 -0.79561934903E+03  0.79561934903E+03  0.00000000000E+00 0.  1.
         -6    2    1    2    0  503 -0.12108421720E+03 -0.10231322394E+03 -0.41101598556E+03  0.47352827470E+03  0.17368218993E+03 0.  0.
        -24    2    3    3    0    0 -0.95453933491E+02 -0.33427863180E+02 -0.36490819637E+03  0.38663683326E+03  0.78110009594E+02 0.  0.
          6    2    1    2  501    0  0.12108421720E+03  0.10231322394E+03 -0.31474554037E+03  0.39194889743E+03  0.17155115730E+03 0.  0.
         24    2    5    5    0    0  0.14236677818E+03  0.11560730163E+03 -0.23598284587E+03  0.30915196544E+03  0.79080253353E+02 0.  0.
          5    1    5    5  501    0 -0.21282560984E+02 -0.13294077682E+02 -0.78762694499E+02  0.82796931998E+02  0.47000000000E+01 0. -1.
        -11    1    6    6    0    0  0.11885038547E+03  0.48157524417E+02 -0.14825037673E+03  0.19601718160E+03  0.00000000000E+00 0.  1.
         12    1    6    6    0    0  0.23516392717E+02  0.67449777209E+02 -0.87732469142E+02  0.11313478384E+03  0.00000000000E+00 0. -1.
         -5    1    3    3    0  503 -0.25630283708E+02 -0.68885360764E+02 -0.46107789189E+02  0.86891441434E+02  0.47000000000E+01 0.  1.
         11    1    4    4    0    0  0.73141742727E+01 -0.17537870616E+02 -0.10485450447E+03  0.10656238153E+03  0.00000000000E+00 0. -1.
        -12    1    4    4    0    0 -0.10276810776E+03 -0.15889992564E+02 -0.26005369191E+03  0.28007445173E+03  0.00000000000E+00 0.  1.
</event>
<event>
12    1  0.8633375E-002  0.1775056E+03  0.7818608E-02  0.1170504E+00
         21   -1    0    0  501  502  0.00000000000E+00  0.00000000000E+00  0.99760158308E+03  0.99760158308E+03  0.00000000000E+00 0.  1.
         21   -1    0    0  502  503 -0.00000000000E+00 -0.00000000000E+00 -0.35276136269E+02  0.35276136269E+02  0.00000000000E+00 0.  1.
         -6    2    1    2    0  503 -0.12564197615E+02 -0.36917316906E+02  0.30854452368E+03  0.35542827970E+03  0.17207205342E+03 0.  0.
        -24    2    3    3    0    0 -0.14818346171E+02 -0.88875461361E+01  0.31563402570E+03  0.32604971142E+03  0.79906221765E+02 0.  0.
          6    2    1    2  501    0  0.12564197615E+02  0.36917316906E+02  0.65378092313E+03  0.67744943965E+03  0.17316899399E+03 0.  0.
         24    2    5    5    0    0  0.27006768176E+02 -0.18029315182E+02  0.56706238326E+03  0.57367123683E+03  0.80526515689E+02 0.  0.
          5    1    5    5  501    0 -0.14442570561E+02  0.54946632088E+02  0.86718539875E+02  0.10377820282E+03  0.47000000000E+01 0. -1.
        -11    1    6    6    0    0 -0.42382912854E+01  0.20257972784E+02  0.36745486559E+03  0.36803726282E+03  0.00000000000E+00 0.  1.
         12    1    6    6    0    0  0.31245059462E+02 -0.38287287966E+02  0.19960751766E+03  0.20563397401E+03  0.00000000000E+00 0. -1.
         -5    1    3    3    0  503  0.22541485553E+01 -0.28029770770E+02 -0.70895020247E+01  0.29378568278E+02  0.47000000000E+01 0.  1.
         13    1    4    4    0    0  0.11181451376E+02  0.86770768287E+01  0.27166387942E+03  0.27203231407E+03  0.00000000000E+00 0. -1.
        -14    1    4    4    0    0 -0.25999797547E+02 -0.17564622965E+02  0.43970146284E+02  0.54017397351E+02  0.00000000000E+00 0.  1.
</event>
<event>
12    1  0.8633375E-002  0.2035664E+03  0.7818608E-02  0.1147673E+00
         21   -1    0    0  501  502  0.00000000000E+00  0.00000000000E+00  0.94707910437E+02  0.94707910437E+02  0.00000000000E+00 0. -1.
         21   -1    0    0  502  503 -0.00000000000E+00 -0.00000000000E+00 -0.61196718630E+03  0.61196718630E+03  0.00000000000E+00 0. -1.
         -6    2    1    2    0  503  0.10631528296E+03 -0.57107140043E+01 -0.45418780440E+03  0.49772066165E+03  0.17350430462E+03 0.  0.
        -24    2    3    3    0    0  0.71482953681E+02  0.32033082210E+02 -0.42317523222E+03  0.43753964347E+03  0.78915976968E+02 0.  0.
          6    2    1    2  501    0 -0.10631528296E+03  0.57107140043E+01 -0.63071471458E+02  0.20895443508E+03  0.16836981256E+03 0.  0.
         24    2    5    5    0    0 -0.91448604407E+02  0.47117617364E+02 -0.89197012864E+02  0.15757171726E+03  0.79308397176E+02 0.  0.
          5    1    5    5  501    0 -0.14866678557E+02 -0.41406903360E+02  0.26125541406E+02  0.51382717823E+02  0.47000000000E+01 0. -1.
        -11    1    6    6    0    0 -0.98111887829E+02  0.26790902514E+02 -0.50957301918E+02  0.11375562232E+03  0.00000000000E+00 0.  1.
         12    1    6    6    0    0  0.66632834213E+01  0.20326714850E+02 -0.38239710946E+02  0.43816094940E+02  0.00000000000E+00 0. -1.
         -5    1    3    3    0  503  0.34832329283E+02 -0.37743796214E+02 -0.31012572183E+02  0.60181018182E+02  0.47000000000E+01 0.  1.
         13    1    4    4    0    0  0.31947668507E+02 -0.17319006076E+02 -0.26022078095E+03  0.26274599204E+03  0.00000000000E+00 0. -1.
        -14    1    4    4    0    0  0.39535285174E+02  0.49352088285E+02 -0.16295445127E+03  0.17479365143E+03  0.00000000000E+00 0.  1.
</event>
<event>
12    1  0.8633375E-002  0.1953212E+03  0.7818608E-02  0.1153867E+00
         21   -1    0    0  501  502  0.00000000000E+00  0.00000000000E+00  0.10441107430E+04  0.10441107430E+04  0.00000000000E+00 0.  1.
         21   -1    0    0  502  503 -0.00000000000E+00 -0.00000000000E+00 -0.47578854621E+02  0.47578854621E+02  0.00000000000E+00 0.  1.
         -6    2    1    2    0  503 -0.52065227840E+02 -0.77264751835E+02  0.76188359399E+03  0.78638616885E+03  0.17104375448E+03 0.  0.
        -24    2    3    3    0    0  0.14767216793E+02 -0.87711061861E+02  0.58372840723E+03  0.59576334331E+03  0.79270465864E+02 0.  0.
          6    2    1    2  501    0  0.52065227840E+02  0.77264751835E+02  0.23464829435E+03  0.30530342873E+03  0.17166750341E+03 0.  0.
         24    2    5    5    0    0  0.30657227128E+02 -0.15051084103E+00  0.19641859105E+03  0.21622466805E+03  0.85046786736E+02 0.  0.
          5    1    5    5  501    0  0.21408000712E+02  0.77415262676E+02  0.38229703295E+02  0.89078760676E+02  0.47000000000E+01 0. -1.
        -11    1    6    6    0    0  0.39504456327E+02  0.22853817178E+02  0.49802529148E+02  0.67551394795E+02  0.00000000000E+00 0.  1.
         12    1    6    6    0    0 -0.88472291982E+01 -0.23004328019E+02  0.14661606191E+03  0.14867327326E+03  0.00000000000E+00 0. -1.
         -5    1    3    3    0  503 -0.66832444633E+02  0.10446310027E+02  0.17815518675E+03  0.19062282554E+03  0.47000000000E+01 0.  1.
         13    1    4    4    0    0  0.15291813300E+02  0.74262211864E+01  0.18766992699E+03  0.18843829179E+03  0.00000000000E+00 0. -1.
        -14    1    4    4    0    0 -0.52459650698E+00 -0.95137283048E+02  0.39605848024E+03  0.40732505152E+03  0.00000000000E+00 0.  1.
</event>
<event>
12    1  0.8633375E-002  0.2597471E+03  0.7818608E-02  0.1108203E+00
         21   -1    0    0  501  502  0.00000000000E+00  0.00000000000E+00  0.15085953157E+03  0.15085953157E+03  0.00000000000E+00 0.  1.
         21   -1    0    0  502  503 -0.00000000000E+00 -0.00000000000E+00 -0.13078677099E+04  0.13078677099E+04  0.00000000000E+00 0.  1.
         -6    2    1    2    0  503 -0.19135622261E+03 -0.22798749386E+02 -0.11758911013E+04  0.12042377029E+04  0.17415962783E+03 0.  0.
        -24    2    3    3    0    0 -0.12668367508E+03 -0.21907543541E+02 -0.10650765006E+04  0.10758426158E+04  0.80750776246E+02 0.  0.
          6    2    1    2  501    0  0.19135622261E+03  0.22798749386E+02  0.18882923028E+02  0.25448953855E+03  0.16514046610E+03 0.  0.
         24    2    5    5    0    0  0.19852192710E+03  0.45910609196E+02  0.39440394787E+02  0.22239273139E+03  0.79901455936E+02 0.  0.
          5    1    5    5  501    0 -0.71657044833E+01 -0.23111859810E+02 -0.20557471758E+02  0.32096807157E+02  0.47000000000E+01 0. -1.
        -13    1    6    6    0    0  0.15223904048E+03  0.51898676834E+02  0.59635656614E+02  0.17154185974E+03  0.00000000000E+00 0.  1.
         14    1    6    6    0    0  0.46282886617E+02 -0.59880676378E+01 -0.20195261827E+02  0.50850871653E+02  0.00000000000E+00 0. -1.
         -5    1    3    3    0  503 -0.64672547532E+02 -0.89120584559E+00 -0.11081460075E+03  0.12839508710E+03  0.47000000000E+01 0.  1.
         13    1    4    4    0    0 -0.90232414093E+01 -0.32171521585E+02 -0.20799207130E+03  0.21065879381E+03  0.00000000000E+00 0. -1.
        -14    1    4    4    0    0 -0.11766043367E+03  0.10263978044E+02 -0.85708442926E+03  0.86518382196E+03  0.00000000000E+00 0.  1.
</event>
<event>
12    1  0.8633375E-002  0.2062561E+03  0.7818608E-02  0.1144744E+00
         21   -1    0    0  501  502  0.00000000000E+00  0.00000000000E+00  0.23266689657E+03  0.23266689657E+03  0.00000000000E+00 0.  1.
         21   -1    0    0  502  503 -0.00000000000E+00 -0.00000000000E+00 -0.22059879688E+03  0.22059879688E+03  0.00000000000E+00 0.  1.
         -6    2    1    2    0  503  0.20476404639E+02 -0.11095651462E+03 -0.88672834168E+02  0.22450939967E+03  0.17265852930E+03 0.  0.
        -24    2    3    3    0    0  0.42194329381E+02 -0.10644559490E+03 -0.12134314263E+03  0.18474187893E+03  0.79337112760E+02 0.  0.
          6    2    1    2  501    0 -0.20476404639E+02  0.11095651462E+03  0.10074093386E+03  0.22875629378E+03  0.17161024125E+03 0.  0.
         24    2    5    5    0    0  0.20029120626E+02  0.49037099317E+02 -0.49837984662E+01  0.99626434354E+02  0.84230549045E+02 0.  0.
          5    1    5    5  501    0 -0.40505525265E+02  0.61919415299E+02  0.10572473233E+03  0.12912985942E+03  0.47000000000E+01 0. -1.
        -11    1    6    6    0    0 -0.31407004645E+02  0.24417885067E+02 -0.13412543694E+02  0.41982488971E+02  0.00000000000E+00 0.  1.
         12    1    6    6    0    0  0.51436125271E+02  0.24619214250E+02  0.84287452279E+01  0.57643945383E+02  0.00000000000E+00 0. -1.
         -5    1    3    3    0  503 -0.21717924742E+02 -0.45109197154E+01  0.32670308458E+02  0.39767520749E+02  0.47000000000E+01 0.  1.
         13    1    4    4    0    0 -0.67078844761E+01  0.88292700208E+01 -0.22958509517E+02  0.25495977771E+02  0.00000000000E+00 0. -1.
        -14    1    4    4    0    0  0.48902213857E+02 -0.11527486492E+03 -0.98384633108E+02  0.15924590115E+03  0.00000000000E+00 0.  1.
</event>
<event>
12    1  0.8633375E-002  0.2756972E+03  0.7818608E-02  0.1098068E+00
         21   -1    0    0  503  502  0.00000000000E+00  0.00000000000E+00  0.70253756527E+03  0.70253756527E+03  0.00000000000E+00 0. -1.
         21   -1    0    0  501  503 -0.00000000000E+00 -0.00000000000E+00 -0.19183426389E+03  0.19183426389E+03  0.00000000000E+00 0. -1.
          6    2    1    2  501    0 -0.12326145324E+03 -0.17621202841E+03 -0.39968713945E+02  0.27854018254E+03  0.17246179399E+03 0.  0.
         24    2    3    3    0    0 -0.11065590295E+03 -0.20193660929E+03 -0.49509877605E+02  0.24798240507E+03  0.77594601717E+02 0.  0.
         -6    2    1    2    0  502  0.12326145324E+03  0.17621202841E+03  0.55067201533E+03  0.61583164661E+03  0.17252502338E+03 0.  0.
        -24    2    5    5    0    0  0.15483168869E+03  0.16561432602E+03  0.49219759233E+03  0.54837544448E+03  0.84001198810E+02 0.  0.
          5    1    3    3  501    0 -0.12605550295E+02  0.25724580886E+02  0.95411636605E+01  0.30557777471E+02  0.47000000000E+01 0. -1.
        -11    1    4    4    0    0  0.11543968838E+02 -0.29021296228E+02 -0.74304540300E+01  0.32104680319E+02  0.00000000000E+00 0.  1.
         12    1    4    4    0    0 -0.12219987179E+03 -0.17291531307E+03 -0.42079423575E+02  0.21587772475E+03  0.00000000000E+00 0. -1.
         -5    1    5    5    0  502 -0.31570235443E+02  0.10597702390E+02  0.58474422993E+02  0.67456202134E+02  0.47000000000E+01 0.  1.
         13    1    6    6    0    0  0.72616828339E+02  0.35092597326E+02  0.11148852419E+03  0.13760227168E+03  0.00000000000E+00 0. -1.
        -14    1    6    6    0    0  0.82214860347E+02  0.13052172869E+03  0.38070906815E+03  0.41077317280E+03  0.00000000000E+00 0.  1.
</event>
<event>
12    1  0.8633375E-002  0.1748192E+03  0.7818608E-02  0.1173116E+00
         21   -1    0    0  503  502  0.00000000000E+00  0.00000000000E+00  0.24760697669E+03  0.24760697669E+03  0.00000000000E+00 0.  1.
         21   -1    0    0  501  503 -0.00000000000E+00 -0.00000000000E+00 -0.12724871962E+03  0.12724871962E+03  0.00000000000E+00 0.  1.
          6    2    1    2  501    0 -0.16577960414E+02  0.31681270559E+02  0.25511100094E+02  0.17667078067E+03  0.17112339652E+03 0.  0.
         24    2    3    3    0    0  0.15846679770E+02  0.79994375632E+02  0.67176659737E+01  0.11534544676E+03  0.81297156527E+02 0.  0.
         -6    2    1    2    0  502  0.16577960414E+02 -0.31681270559E+02  0.94847156975E+02  0.19818491565E+03  0.17030192579E+03 0.  0.
        -24    2    5    5    0    0 -0.16789127672E+02  0.29921402112E+01 -0.10086374299E+02  0.82648151079E+02  0.80238109520E+02 0.  0.
          5    1    3    3  501    0 -0.32424640184E+02 -0.48313105073E+02  0.18793434120E+02  0.61325333908E+02  0.47000000000E+01 0. -1.
        -13    1    4    4    0    0  0.39612253473E+01  0.43841160054E+02 -0.36913770364E+02  0.57448803848E+02  0.00000000000E+00 0.  1.
         14    1    4    4    0    0  0.11885454423E+02  0.36153215579E+02  0.43631436338E+02  0.57896642911E+02  0.00000000000E+00 0. -1.
         -5    1    5    5    0  502  0.33367088086E+02 -0.34673410770E+02  0.10493353127E+03  0.11553676457E+03  0.47000000000E+01 0.  1.
         11    1    6    6    0    0  0.20901523619E+02 -0.48664660086E+01 -0.31862129985E+02  0.38415511297E+02  0.00000000000E+00 0. -1.
        -12    1    6    6    0    0 -0.37690651291E+02  0.78586062198E+01  0.21775755685E+02  0.44232639783E+02  0.00000000000E+00 0.  1.
</event>
<event>
12    1  0.8633375E-002  0.2850065E+03  0.7818608E-02  0.1093041E+00
         21   -1    0    0  501  502  0.00000000000E+00  0.00000000000E+00  0.89542609668E+03  0.89542609668E+03  0.00000000000E+00 0.  1.
         21   -1    0    0  502  503 -0.00000000000E+00 -0.00000000000E+00 -0.27569482177E+03  0.27569482177E+03  0.00000000000E+00 0.  1.
         -6    2    1    2    0  503 -0.22200630474E+03 -0.48030755985E+02 -0.17002471715E+03  0.33151194673E+03  0.17145848921E+03 0.  0.
        -24    2    3    3    0    0 -0.12068633697E+03  0.24395861090E+02 -0.14099828136E+03  0.20354329938E+03  0.79931279286E+02 0.  0.
          6    2    1    2  501    0  0.22200630474E+03  0.48030755985E+02  0.78975599206E+03  0.83960897172E+03  0.17214803381E+03 0.  0.
         24    2    5    5    0    0  0.14842949268E+03  0.76807597042E+02  0.67509638439E+03  0.70028715188E+03  0.81952703513E+02 0.  0.
          5    1    5    5  501    0  0.73576812061E+02 -0.28776841057E+02  0.11465960767E+03  0.13932181985E+03  0.47000000000E+01 0. -1.
        -11    1    6    6    0    0  0.12704591409E+03  0.81039581436E+02  0.45921135595E+03  0.48330440457E+03  0.00000000000E+00 0.  1.
         12    1    6    6    0    0  0.21383578593E+02 -0.42319843943E+01  0.21588502844E+03  0.21698274730E+03  0.00000000000E+00 0. -1.
         -5    1    3    3    0  503 -0.10131996777E+03 -0.72426617075E+02 -0.29026435788E+02  0.12796864735E+03  0.47000000000E+01 0.  1.
         11    1    4    4    0    0 -0.41185023568E+02  0.48530691833E+02 -0.64105097793E+02  0.90337687480E+02  0.00000000000E+00 0. -1.
        -12    1    4    4    0    0 -0.79501313402E+02 -0.24134830743E+02 -0.76893183565E+02  0.11320561190E+03  0.00000000000E+00 0.  1.
</event>
<event>
12    1  0.8633375E-002  0.1963010E+03  0.7818608E-02  0.1155006E+00
         21   -1    0    0  501  502  0.00000000000E+00  0.00000000000E+00  0.57382200820E+03  0.57382200820E+03  0.00000000000E+00 0. -1.
         21   -1    0    0  502  503 -0.00000000000E+00 -0.00000000000E+00 -0.69674598330E+02  0.69674598330E+02  0.00000000000E+00 0. -1.
         -6    2    1    2    0  503 -0.48694455281E+02 -0.57394511979E+02  0.15407838817E+03  0.24214586843E+03  0.17096546994E+03 0.  0.
        -24    2    3    3    0    0 -0.48937137817E+02 -0.84692543287E+02  0.17428735911E+03  0.20785689185E+03  0.57102833550E+02 0.  0.
          6    2    1    2  501    0  0.48694455281E+02  0.57394511979E+02  0.35006902170E+03  0.40135073811E+03  0.18129758698E+03 0.  0.
         24    2    5    5    0    0 -0.34496955675E+02  0.34858777780E+02  0.25862623567E+03  0.27560280258E+03  0.81634555636E+02 0.  0.
          5    1    5    5  501    0  0.83191410956E+02  0.22535734199E+02  0.91442786034E+02  0.12574793553E+03  0.47000000000E+01 0. -1.
        -11    1    6    6    0    0  0.11983415089E+02 -0.18549538623E+02  0.90922306661E+02  0.93565770819E+02  0.00000000000E+00 0.  1.
         12    1    6    6    0    0 -0.46480370764E+02  0.53408316403E+02  0.16770392900E+03  0.18203703176E+03  0.00000000000E+00 0. -1.
         -5    1    3    3    0  503  0.24268253565E+00  0.27298031308E+02 -0.20208970936E+02  0.34288976573E+02  0.47000000000E+01 0.  1.
         11    1    4    4    0    0  0.27651920360E+01 -0.48440218436E+02  0.58798759417E+02  0.76232507228E+02  0.00000000000E+00 0. -1.
        -12    1    4    4    0    0 -0.51702329853E+02 -0.36252324851E+02  0.11548859969E+03  0.13162438463E+03  0.00000000000E+00 0.  1.
</event>
<event>
12    1  0.8633375E-002  0.1944502E+03  0.7818608E-02  0.1154858E+00
         21   -1    0    0  503  502  0.00000000000E+00  0.00000000000E+00  0.22515881040E+03  0.22515881040E+03  0.00000000000E+00 0.  1.
         21   -1    0    0  501  503 -0.00000000000E+00 -0.00000000000E+00 -0.28698586566E+03  0.28698586566E+03  0.00000000000E+00 0.  1.
          6    2    1    2  501    0 -0.50090876339E+00 -0.92791173997E+02 -0.19672133124E+03  0.27548594036E+03  0.16906439097E+03 0.  0.
         24    2    3    3    0    0  0.15834625454E+02 -0.12699276708E+03 -0.17285611245E+03  0.23044998455E+03  0.82765098414E+02 0.  0.
         -6    2    1    2    0  502  0.50090876339E+00  0.92791173997E+02  0.13489427597E+03  0.23665873569E+03  0.17088135828E+03 0.  0.
        -24    2    5    5    0    0 -0.40325122828E+02  0.68328854109E+00  0.32354042916E+02  0.92828221496E+02  0.77095474568E+02 0.  0.
          5    1    3    3  501    0 -0.16335534218E+02  0.34201593087E+02 -0.23865218792E+02  0.45035955811E+02  0.47000000000E+01 0. -1.
        -13    1    4    4    0    0  0.39935306548E+02 -0.30154468001E+02 -0.78622530765E+02  0.93196689820E+02  0.00000000000E+00 0.  1.
         14    1    4    4    0    0 -0.24100681094E+02 -0.96838299083E+02 -0.94233581680E+02  0.13725329473E+03  0.00000000000E+00 0. -1.
         -5    1    5    5    0  502  0.40826031591E+02  0.92107885456E+02  0.10254023306E+03  0.14383051420E+03  0.47000000000E+01 0.  1.
         11    1    6    6    0    0  0.33589421018E+01  0.14113888777E+02 -0.19114825733E+02  0.23997102143E+02  0.00000000000E+00 0. -1.
        -12    1    6    6    0    0 -0.43684064929E+02 -0.13430600236E+02  0.51468868649E+02  0.68831119353E+02  0.00000000000E+00 0.  1.
</event>
<event>
12    1  0.8633375E-002  0.3310046E+03  0.7818608E-02  0.1070703E+00
         21   -1    0    0  501  502  0.00000000000E+00  0.00000000000E+00  0.22089484189E+04  0.22089484189E+04  0.00000000000E+00 0. -1.
         21   -1    0    0  502  503 -0.00000000000E+00 -0.00000000000E+00 -0.61674078124E+02  0.61674078124E+02  0.00000000000E+00 0. -1.
         -6    2    1    2    0  503 -0.10148176493E+03 -0.26407421740E+03  0.15763679521E+04  0.16107451651E+04  0.17184389941E+03 0.  0.
        -24    2    3    3    0    0 -0.53246293702E+02 -0.26388192968E+03  0.12843917305E+04  0.13147740489E+04  0.80621596154E+02 0.  0.
          6    2    1    2  501    0  0.10148176493E+03  0.26407421740E+03  0.57090638873E+03  0.65987733192E+03  0.17166900589E+03 0.  0.
         24    2    5    5    0    0  0.43545857566E+02  0.18021180970E+03  0.49025657218E+03  0.52981597833E+03  0.77336448505E+02 0.  0.
          5    1    5    5  501    0  0.57935907363E+02  0.83862407696E+02  0.80649816549E+02  0.13006135358E+03  0.47000000000E+01 0. -1.
        -11    1    6    6    0    0 -0.21257525238E+02  0.57221216126E+02  0.12831655347E+03  0.14209605149E+03  0.00000000000E+00 0.  1.
         12    1    6    6    0    0  0.64803382805E+02  0.12299059357E+03  0.36194001870E+03  0.38771992684E+03  0.00000000000E+00 0. -1.
         -5    1    3    3    0  503 -0.48235471227E+02 -0.19228771295E+00  0.29197622159E+03  0.29597111622E+03  0.47000000000E+01 0.  1.
         13    1    4    4    0    0 -0.47988293313E+02 -0.10231688710E+03  0.67043354812E+03  0.67989172970E+03  0.00000000000E+00 0. -1.
        -14    1    4    4    0    0 -0.52580003884E+01 -0.16156504259E+03  0.61395818236E+03  0.63488231921E+03  0.00000000000E+00 0.  1.
</event>
<event>
12    1  0.8633375E-002  0.1924807E+03  0.7818608E-02  0.1156713E+00
         21   -1    0    0  503  502  0.00000000000E+00  0.00000000000E+00  0.89862015756E+02  0.89862015756E+02  0.00000000000E+00 0. -1.
         21   -1    0    0  501  503 -0.00000000000E+00 -0.00000000000E+00 -0.40801957785E+03  0.40801957785E+03  0.00000000000E+00 0. -1.
          6    2    1    2  501    0  0.67599285115E+02 -0.54482738649E+02 -0.16594861346E+03  0.25414125886E+03  0.17178709203E+03 0.  0.
         24    2    3    3    0    0  0.67957371283E+02 -0.95791738518E+02 -0.93154913597E+02  0.17031062940E+03  0.80830755776E+02 0.  0.
         -6    2    1    2    0  502 -0.67599285115E+02  0.54482738649E+02 -0.15220894864E+03  0.24374033475E+03  0.16942182439E+03 0.  0.
        -24    2    5    5    0    0 -0.83537404089E+02  0.27484475052E+02 -0.38821610106E+02  0.12600457802E+03  0.81462519110E+02 0.  0.
          5    1    3    3  501    0 -0.35808616896E+00  0.41308999869E+02 -0.72793699859E+02  0.83830629457E+02  0.47000000000E+01 0. -1.
        -11    1    4    4    0    0 -0.97135396071E+01 -0.93672714921E+01  0.84783645548E+01  0.15936790531E+02  0.00000000000E+00 0.  1.
         12    1    4    4    0    0  0.77670910891E+02 -0.86424467026E+02 -0.10163327815E+03  0.15437383887E+03  0.00000000000E+00 0. -1.
         -5    1    5    5    0  502  0.15938118974E+02  0.26998263596E+02 -0.11338733853E+03  0.11773575673E+03  0.47000000000E+01 0.  1.
         13    1    6    6    0    0 -0.72766523378E+02  0.53720666375E+02 -0.22204167205E+02  0.93133785285E+02  0.00000000000E+00 0. -1.
        -14    1    6    6    0    0 -0.10770880711E+02 -0.26236191322E+02 -0.16617442901E+02  0.32870792734E+02  0.00000000000E+00 0.  1.
</event>
<event>
12    1  0.8633375E-002  0.2607920E+03  0.7818608E-02  0.1106751E+00
         21   -1    0    0  501  502  0.00000000000E+00  0.00000000000E+00  0.72369270210E+02  0.72369270210E+02  0.00000000000E+00 0.  1.
         21   -1    0    0  502  503 -0.00000000000E+00 -0.00000000000E+00 -0.93889024645E+03  0.93889024645E+03  0.00000000000E+00 0. -1.
         -6    2    1    2    0  503  0.12445381417E+03 -0.14926272475E+03 -0.44998163341E+03  0.51981521455E+03  0.17307880867E+03 0.  0.
        -24    2    3    3    0    0  0.88048350536E+02 -0.67191451823E+02 -0.13565333324E+03  0.19288185450E+03  0.80835510443E+02 0.  0.
          6    2    1    2  501    0 -0.12445381417E+03  0.14926272475E+03 -0.41653934283E+03  0.49144430211E+03  0.17390907133E+03 0.  0.
         24    2    5    5    0    0 -0.78419467662E+02  0.87119710367E+02 -0.12458926355E+03  0.18938825750E+03  0.81277122507E+02 0.  0.
          5    1    5    5  501    0 -0.46034346503E+02  0.62143014386E+02 -0.29195007928E+03  0.30205604461E+03  0.47000000000E+01 0. -1.
        -11    1    6    6    0    0 -0.32334997377E+02  0.74498201779E+02 -0.11478713927E+03  0.14061159791E+03  0.00000000000E+00 0.  1.
         12    1    6    6    0    0 -0.46084470285E+02  0.12621508588E+02 -0.98021242789E+01  0.48776659591E+02  0.00000000000E+00 0. -1.
         -5    1    3    3    0  503  0.36405463630E+02 -0.82071272930E+02 -0.31432830017E+03  0.32693336004E+03  0.47000000000E+01 0.  1.
         11    1    4    4    0    0  0.93591143855E+02 -0.28365231086E+02 -0.10017261219E+03  0.13999443123E+03  0.00000000000E+00 0. -1.
        -12    1    4    4    0    0 -0.55427933191E+01 -0.38826220737E+02 -0.35480721044E+02  0.52887423272E+02  0.00000000000E+00 0.  1.
</event>
<event>
12    1  0.8633375E-002  0.1860305E+03  0.7818608E-02  0.1162436E+00
         21   -1    0    0  501  502  0.00000000000E+00  0.00000000000E+00  0.19522584681E+03  0.19522584681E+03  0.00000000000E+00 0.  1.
         21   -1    0    0  502  503 -0.00000000000E+00 -0.00000000000E+00 -0.20651732915E+03  0.20651732915E+03  0.00000000000E+00 0.  1.
         -6    2    1    2    0  503 -0.49962068591E+02  0.52552591730E+02 -0.83023629118E+02  0.20236203991E+03  0.16970412195E+03 0.  0.
        -24    2    3    3    0    0 -0.48410453412E+02  0.95818202810E+02 -0.85861772417E+02  0.15872185580E+03  0.79345343627E+02 0.  0.
          6    2    1    2  501    0  0.49962068591E+02 -0.52552591730E+02  0.71732146785E+02  0.19938113606E+03  0.17131652967E+03 0.  0.
         24    2    5    5    0    0  0.98158933712E+02 -0.13559751061E+02  0.38580426689E+02  0.12892188559E+03  0.72892798987E+02 0.  0.
          5    1    5    5  501    0 -0.48196865121E+02 -0.38992840669E+02  0.33151720096E+02  0.70459250467E+02  0.47000000000E+01 0. -1.
        -11    1    6    6    0    0  0.15644559739E+02 -0.10117073631E+02  0.42332096265E+02  0.46250554617E+02  0.00000000000E+00 0.  1.
         12    1    6    6    0    0  0.82514373974E+02 -0.34426774299E+01 -0.37516695760E+01  0.82671330972E+02  0.00000000000E+00 0. -1.
         -5    1    3    3    0  503 -0.15516151790E+01 -0.43265611080E+02  0.28381432994E+01  0.43640184111E+02  0.47000000000E+01 0.  1.
         13    1    4    4    0    0  0.15483767122E+02  0.16494452143E+02  0.39008445375E+01  0.22957146684E+02  0.00000000000E+00 0. -1.
        -14    1    4    4    0    0 -0.63894220534E+02  0.79323750667E+02 -0.89762616955E+02  0.13576470911E+03  0.00000000000E+00 0.  1.
</event>
<event>
12    1  0.8633375E-002  0.2050183E+03  0.7818608E-02  0.1145685E+00
         21   -1    0    0  503  502  0.00000000000E+00  0.00000000000E+00  0.19660328953E+03  0.19660328953E+03  0.00000000000E+00 0. -1.
         21   -1    0    0  501  503 -0.00000000000E+00 -0.00000000000E+00 -0.11954999675E+04  0.11954999675E+04  0.00000000000E+00 0. -1.
          6    2    1    2  501    0  0.10862172504E+03  0.20925285599E+02 -0.11302629628E+04  0.11486087019E+04  0.17196231616E+03 0.  0.
         24    2    3    3    0    0  0.11305725799E+03  0.68956824677E+02 -0.79036136596E+03  0.80526938248E+03  0.79061383099E+02 0.  0.
         -6    2    1    2    0  502 -0.10862172504E+03 -0.20925285599E+02  0.13136628485E+03  0.24349455514E+03  0.17261503659E+03 0.  0.
        -24    2    5    5    0    0 -0.13134688659E+03 -0.54261963109E+02  0.11939479542E+03  0.20114867465E+03  0.77519719321E+02 0.  0.
          5    1    3    3  501    0 -0.44355329538E+01 -0.48031539077E+02 -0.33990159684E+03  0.34333931938E+03  0.47000000000E+01 0. -1.
        -13    1    4    4    0    0  0.79775865401E+02  0.18458007777E+02 -0.29240611121E+03  0.30365477211E+03  0.00000000000E+00 0.  1.
         14    1    4    4    0    0  0.33281392592E+02  0.50498816900E+02 -0.49795525475E+03  0.50161461037E+03  0.00000000000E+00 0. -1.
         -5    1    5    5    0  502  0.22725161551E+02  0.33336677510E+02  0.11971489430E+02  0.42345880485E+02  0.47000000000E+01 0.  1.
         13    1    6    6    0    0 -0.12868450410E+03 -0.27049089335E+02  0.82528058137E+02  0.15524894592E+03  0.00000000000E+00 0. -1.
        -14    1    6    6    0    0 -0.26623824884E+01 -0.27212873775E+02  0.36866737288E+02  0.45899728734E+02  0.00000000000E+00 0.  1.
</event>
<event>
12    1  0.8633375E-002  0.1963226E+03  0.7818608E-02  0.1153062E+00
         21   -1    0    0  501  502  0.00000000000E+00  0.00000000000E+00  0.73478034879E+02  0.73478034879E+02  0.00000000000E+00 0.  1.
         21   -1    0    0  502  503 -0.00000000000E+00 -0.00000000000E+00 -0.52230652756E+03  0.52230652756E+03  0.00000000000E+00 0.  1.
         -6    2    1    2    0  503 -0.70912457954E+02 -0.60225255904E+02 -0.22310039847E+03  0.29718070169E+03  0.17287834890E+03 0.  0.
        -24    2    3    3    0    0 -0.32514763190E+02 -0.10306415914E+03 -0.13535004279E+03  0.19214847085E+03  0.83198377635E+02 0.  0.
          6    2    1    2  501    0  0.70912457954E+02  0.60225255904E+02 -0.22572809421E+03  0.29860386075E+03  0.17191694215E+03 0.  0.
         24    2    5    5    0    0  0.86995517399E+02  0.63974744259E+01 -0.20859685789E+03  0.23968303151E+03  0.79537153253E+02 0.  0.
          5    1    5    5  501    0 -0.16083059445E+02  0.53827781478E+02 -0.17131236319E+02  0.58920829235E+02  0.47000000000E+01 0. -1.
        -11    1    6    6    0    0  0.12925385784E+02  0.34595201585E+02 -0.87279671086E+02  0.94771485982E+02  0.00000000000E+00 0.  1.
         12    1    6    6    0    0  0.74070131615E+02 -0.28197727159E+02 -0.12131718680E+03  0.14491154553E+03  0.00000000000E+00 0. -1.
         -5    1    3    3    0  503 -0.38397694764E+02  0.42838903235E+02 -0.87750355683E+02  0.10503223084E+03  0.47000000000E+01 0.  1.
         11    1    4    4    0    0  0.16677480586E+02 -0.17924738492E+01 -0.91895847110E+00  0.16798684647E+02  0.00000000000E+00 0. -1.
        -12    1    4    4    0    0 -0.49192243776E+02 -0.10127168529E+03 -0.13443108432E+03  0.17534978620E+03  0.00000000000E+00 0.  1.
</event>
<event>
12    1  0.8633375E-002  0.1731572E+03  0.7818608E-02  0.1174770E+00
         21   -1    0    0  501  502  0.00000000000E+00  0.00000000000E+00  0.70663538235E+02  0.70663538235E+02  0.00000000000E+00 0. -1.
         21   -1    0    0  502  503 -0.00000000000E+00 -0.00000000000E+00 -0.47443325335E+03  0.47443325335E+03  0.00000000000E+00 0. -1.
         -6    2    1    2    0  503 -0.56637552132E+01 -0.12834719041E+02 -0.29158435474E+03  0.33877431667E+03  0.17190053393E+03 0.  0.
        -24    2    3    3    0    0 -0.11869346328E+01 -0.60101366440E+02 -0.97261864875E+02  0.13868059376E+03  0.78478364307E+02 0.  0.
          6    2    1    2  501    0  0.56637552132E+01  0.12834719041E+02 -0.11218536037E+03  0.20632247492E+03  0.17258794986E+03 0.  0.
         24    2    5    5    0    0  0.29748097518E+01  0.47343180469E+02 -0.28560705894E+01  0.91548575698E+02  0.78248056481E+02 0.  0.
          5    1    5    5  501    0  0.26889454613E+01 -0.34508461428E+02 -0.10932928978E+03  0.11477389922E+03  0.47000000000E+01 0. -1.
        -11    1    6    6    0    0 -0.37310288849E+02  0.22692427856E+02 -0.66285401285E+01  0.44169463210E+02  0.00000000000E+00 0.  1.
         12    1    6    6    0    0  0.40285098601E+02  0.24650752613E+02  0.37724695391E+01  0.47379112488E+02  0.00000000000E+00 0. -1.
         -5    1    3    3    0  503 -0.44768205803E+01  0.47266647398E+02 -0.19432248987E+03  0.20009372291E+03  0.47000000000E+01 0.  1.
         11    1    4    4    0    0 -0.25250785214E+02 -0.33750565691E+02 -0.93790621193E+02  0.10282695883E+03  0.00000000000E+00 0. -1.
        -12    1    4    4    0    0  0.24063850581E+02 -0.26350800748E+02 -0.34712436824E+01  0.35853634928E+02  0.00000000000E+00 0.  1.
</event>
<event>
12    1  0.8633375E-002  0.2414299E+03  0.7818608E-02  0.1118886E+00
         21   -1    0    0  503  502  0.00000000000E+00  0.00000000000E+00  0.45769543351E+03  0.45769543351E+03  0.00000000000E+00 0. -1.
         21   -1    0    0  501  503 -0.00000000000E+00 -0.00000000000E+00 -0.20136896770E+03  0.20136896770E+03  0.00000000000E+00 0.  1.
          6    2    1    2  501    0 -0.15739479698E+03 -0.61729788370E+02 -0.71848196701E+02  0.25164935434E+03  0.17199286404E+03 0.  0.
         24    2    3    3    0    0 -0.13971900767E+03 -0.74182381128E+02 -0.10885729025E+03  0.20853017532E+03  0.81304966652E+02 0.  0.
         -6    2    1    2    0  502  0.15739479698E+03  0.61729788370E+02  0.32817466251E+03  0.40741504687E+03  0.17235057997E+03 0.  0.
        -24    2    5    5    0    0  0.10657426500E+03  0.10331619052E+03  0.18571782406E+03  0.25048131520E+03  0.78850934734E+02 0.  0.
          5    1    3    3  501    0 -0.17675789312E+02  0.12452592758E+02  0.37009093551E+02  0.43119179024E+02  0.47000000000E+01 0. -1.
        -11    1    4    4    0    0 -0.97500098225E+02 -0.77484435603E+01 -0.72930693005E+02  0.12200489135E+03  0.00000000000E+00 0.  1.
         12    1    4    4    0    0 -0.42218909447E+02 -0.66433937568E+02 -0.35926597247E+02  0.86525283966E+02  0.00000000000E+00 0. -1.
         -5    1    5    5    0  502  0.50820531983E+02 -0.41586402148E+02  0.14245683845E+03  0.15693373167E+03  0.47000000000E+01 0.  1.
         11    1    6    6    0    0  0.24843624852E+02  0.81370034622E+01  0.87002470820E+02  0.90845178463E+02  0.00000000000E+00 0. -1.
        -12    1    6    6    0    0  0.81730640149E+02  0.95179187056E+02  0.98715353236E+02  0.15963613674E+03  0.00000000000E+00 0.  1.
</event>
<event>
12    1  0.8633375E-002  0.2532692E+03  0.7818608E-02  0.1111300E+00
         21   -1    0    0  503  502  0.00000000000E+00  0.00000000000E+00  0.20164956896E+03  0.20164956896E+03  0.00000000000E+00 0.  1.
         21   -1    0    0  501  503 -0.00000000000E+00 -0.00000000000E+00 -0.32066520014E+03  0.32066520014E+03  0.00000000000E+00 0.  1.
          6    2    1    2  501    0 -0.18549059845E+03  0.88902540935E+00 -0.84397989180E+02  0.26669073312E+03  0.17202724806E+03 0.  0.
         24    2    3    3    0    0 -0.16542963976E+03  0.30320952419E+01 -0.55918569464E+01  0.18520741403E+03  0.83032271052E+02 0.  0.
         -6    2    1    2    0  502  0.18549059845E+03 -0.88902540935E+00 -0.34617642002E+02  0.25562403597E+03  0.17244626453E+03 0.  0.
        -24    2    5    5    0    0  0.18936794963E+03 -0.41570920811E+02 -0.16852497363E+02  0.21081621490E+03  0.81062370985E+02 0.  0.
          5    1    3    3  501    0 -0.20060958691E+02 -0.21430698325E+01 -0.78806132234E+02  0.81483319088E+02  0.47000000000E+01 0. -1.
        -11    1    4    4    0    0 -0.28858186502E+02 -0.22083805624E+02 -0.26235625538E+02  0.44819610065E+02  0.00000000000E+00 0.  1.
         12    1    4    4    0    0 -0.13657145326E+03  0.25115900866E+02  0.20643768591E+02  0.14038780397E+03  0.00000000000E+00 0. -1.
         -5    1    5    5    0  502 -0.38773511846E+01  0.40681895402E+02 -0.17765144638E+02  0.44807821077E+02  0.47000000000E+01 0.  1.
         11    1    6    6    0    0 -0.15533669882E+01 -0.60633420277E+00 -0.15454911998E+02  0.15544609838E+02  0.00000000000E+00 0. -1.
        -12    1    6    6    0    0  0.19092131662E+03 -0.40964586608E+02 -0.13975853656E+01  0.19527160506E+03  0.00000000000E+00 0.  1.
</event>
<event>
12    1  0.8633375E-002  0.1785857E+03  0.7818608E-02  0.1169478E+00
         21   -1    0    0  501  502  0.00000000000E+00  0.00000000000E+00  0.15947551848E+03  0.15947551848E+03  0.00000000000E+00 0. -1.
         21   -1    0    0  502  503 -0.00000000000E+00 -0.00000000000E+00 -0.45967151949E+03  0.45967151949E+03  0.00000000000E+00 0. -1.
         -6    2    1    2    0  503 -0.17178822501E+02 -0.42589501647E+02 -0.38361230555E+03  0.42314447516E+03  0.17258003448E+03 0.  0.
        -24    2    3    3    0    0  0.33436545576E+02 -0.61174419255E+02 -0.14576165208E+03  0.17921346442E+03  0.77528668632E+02 0.  0.
          6    2    1    2  501    0  0.17178822501E+02  0.42589501647E+02  0.83416304543E+02  0.19600256280E+03  0.17131767909E+03 0.  0.
         24    2    5    5    0    0  0.70294479519E+02 -0.47476497568E+01  0.45648157528E+02  0.11531426221E+03  0.79055491611E+02 0.  0.
          5    1    5    5  501    0 -0.53115657018E+02  0.47337151404E+02  0.37768147015E+02  0.80688300592E+02  0.47000000000E+01 0. -1.
        -13    1    6    6    0    0 -0.48212769362E+01 -0.14525944268E+02  0.35790930157E+02  0.38926063887E+02  0.00000000000E+00 0.  1.
         14    1    6    6    0    0  0.75115756455E+02  0.97782945112E+01  0.98572273710E+01  0.76388198321E+02  0.00000000000E+00 0. -1.
         -5    1    3    3    0  503 -0.50615368077E+02  0.18584917608E+02 -0.23785065347E+03  0.24393101075E+03  0.47000000000E+01 0.  1.
         11    1    4    4    0    0 -0.10141445158E+02 -0.39733186820E+02 -0.22601353418E+02  0.46823030883E+02  0.00000000000E+00 0. -1.
        -12    1    4    4    0    0  0.43577990734E+02 -0.21441232436E+02 -0.12316029866E+03  0.13239043353E+03  0.00000000000E+00 0.  1.
</event>
<event>
12    1  0.8633375E-002  0.2308374E+03  0.7818608E-02  0.1126268E+00
         21   -1    0    0  501  502  0.00000000000E+00  0.00000000000E+00  0.92945803429E+03  0.92945803429E+03  0.00000000000E+00 0.  1.
         21   -1    0    0  502  503 -0.00000000000E+00 -0.00000000000E+00 -0.60144462352E+03  0.60144462352E+03  0.00000000000E+00 0.  1.
         -6    2    1    2    0  503 -0.10681116391E+03  0.11179481329E+03 -0.56421200998E+03  0.60960733001E+03  0.17140361600E+03 0.  0.
        -24    2    3    3    0    0 -0.35170720042E+02  0.10752387891E+02 -0.12202047788E+03  0.15037169769E+03  0.79812637162E+02 0.  0.
          6    2    1    2  501    0  0.10681116391E+03 -0.11179481329E+03  0.89222542074E+03  0.92129532781E+03  0.16974149346E+03 0.  0.
         24    2    5    5    0    0  0.39685879887E+02 -0.86948070710E+02  0.30450365020E+03  0.32921245021E+03  0.80767743097E+02 0.  0.
          5    1    5    5  501    0  0.67125284026E+02 -0.24846742579E+02  0.58772177054E+03  0.59208287759E+03  0.47000000000E+01 0. -1.
        -11    1    6    6    0    0  0.31542119491E+02 -0.24550973793E+01  0.14622755642E+03  0.14961093229E+03  0.00000000000E+00 0.  1.
         12    1    6    6    0    0  0.81437603961E+01 -0.84492973330E+02  0.15827609379E+03  0.17960151792E+03  0.00000000000E+00 0. -1.
         -5    1    3    3    0  503 -0.71640443871E+02  0.10104242540E+03 -0.44219153210E+03  0.45923563232E+03  0.47000000000E+01 0.  1.
         11    1    4    4    0    0 -0.52848540241E+02 -0.15306250925E+02 -0.64355142708E+02  0.84668966664E+02  0.00000000000E+00 0. -1.
        -12    1    4    4    0    0  0.17677820199E+02  0.26058638816E+02 -0.57665335169E+02  0.65702731024E+02  0.00000000000E+00 0.  1.
</event>
<event>
12    1  0.8633375E-002  0.2047837E+03  0.7818608E-02  0.1145875E+00
         21   -1    0    0  501  502  0.00000000000E+00  0.00000000000E+00  0.91962082662E+02  0.91962082662E+02  0.00000000000E+00 0.  1.
         21   -1    0    0  502  503 -0.00000000000E+00 -0.00000000000E+00 -0.46376391363E+03  0.46376391363E+03  0.00000000000E+00 0. -1.
         -6    2    1    2    0  503 -0.10832813855E+03  0.11108738683E+02 -0.22424966776E+03  0.30332151219E+03  0.17279362428E+03 0.  0.
        -24    2    3    3    0    0 -0.13707607328E+02  0.40706685337E+02 -0.91105748475E+02  0.13725382534E+03  0.93238524411E+02 0.  0.
          6    2    1    2  501    0  0.10832813855E+03 -0.11108738683E+02 -0.14755216321E+03  0.25240448410E+03  0.17343008115E+03 0.  0.
         24    2    5    5    0    0  0.22688946627E+02  0.16598442900E+02 -0.13774185264E+03  0.16173976495E+03  0.79978978443E+02 0.  0.
          5    1    5    5  501    0  0.85639191923E+02 -0.27707181584E+02 -0.98103105688E+01  0.90664719147E+02  0.47000000000E+01 0. -1.
        -13    1    6    6    0    0 -0.26114703496E+02 -0.11061940262E+02 -0.39813604604E+02  0.48882178477E+02  0.00000000000E+00 0.  1.
         14    1    6    6    0    0  0.48803650123E+02  0.27660383162E+02 -0.97928248032E+02  0.11285758647E+03  0.00000000000E+00 0. -1.
         -5    1    3    3    0  503 -0.94620531222E+02 -0.29597946654E+02 -0.13314391928E+03  0.16606768685E+03  0.47000000000E+01 0.  1.
         11    1    4    4    0    0 -0.61812839948E+01 -0.17075844198E+02 -0.74473925651E+02  0.76656104315E+02  0.00000000000E+00 0. -1.
        -12    1    4    4    0    0 -0.75263233328E+01  0.57782529535E+02 -0.16631822824E+02  0.60597721020E+02  0.00000000000E+00 0.  1.
</event>
<event>
12    1  0.8633375E-002  0.2059652E+03  0.7818608E-02  0.1144925E+00
         21   -1    0    0  503  502  0.00000000000E+00  0.00000000000E+00  0.50946753290E+03  0.50946753290E+03  0.00000000000E+00 0. -1.
         21   -1    0    0  501  503 -0.00000000000E+00 -0.00000000000E+00 -0.89124238667E+02  0.89124238667E+02  0.00000000000E+00 0.  1.
          6    2    1    2  501    0 -0.10146690587E+03  0.49460192526E+02  0.13157028586E+03  0.24389259415E+03  0.17155469603E+03 0.  0.
         24    2    3    3    0    0 -0.76483604302E+02  0.21640181831E+00  0.14864863860E+03  0.18590228106E+03  0.81323131936E+02 0.  0.
         -6    2    1    2    0  502  0.10146690587E+03 -0.49460192526E+02  0.28877300837E+03  0.35469917741E+03  0.17227829945E+03 0.  0.
        -24    2    5    5    0    0  0.11951289542E+03 -0.20661073461E+01  0.15468915072E+03  0.21126826049E+03  0.80112068788E+02 0.  0.
          5    1    3    3  501    0 -0.24983301569E+02  0.49243790708E+02 -0.17078352740E+02  0.57990313095E+02  0.47000000000E+01 0. -1.
        -13    1    4    4    0    0 -0.12477620797E+02 -0.14380395757E+02 -0.42482539737E+01  0.19507292603E+02  0.00000000000E+00 0.  1.
         14    1    4    4    0    0 -0.64005983505E+02  0.14596797575E+02  0.15289689257E+03  0.16639498845E+03  0.00000000000E+00 0. -1.
         -5    1    5    5    0  502 -0.18045989549E+02 -0.47394085180E+02  0.13408385765E+03  0.14343091693E+03  0.47000000000E+01 0.  1.
         11    1    6    6    0    0  0.91597001057E+02  0.44800778549E+01  0.15771147106E+03  0.18243626231E+03  0.00000000000E+00 0. -1.
        -12    1    6    6    0    0  0.27915894362E+02 -0.65461852009E+01 -0.30223203368E+01  0.28831998178E+02  0.00000000000E+00 0.  1.
</event>
<event>
12    1  0.8633375E-002  0.1873543E+03  0.7818608E-02  0.1161173E+00
         21   -1    0    0  503  502  0.00000000000E+00  0.00000000000E+00  0.48032200432E+03  0.48032200432E+03  0.00000000000E+00 0.  1.
         21   -1    0    0  501  503 -0.00000000000E+00 -0.00000000000E+00 -0.80473422909E+02  0.80473422909E+02  0.00000000000E+00 0.  1.
          6    2    1    2  501    0 -0.14513043382E+02  0.67311575628E+02  0.11140046860E+03  0.21684203134E+03  0.17282628709E+03 0.  0.
         24    2    3    3    0    0 -0.33738327138E+02  0.80036280244E+02  0.13847858368E+03  0.18096942396E+03  0.77650070165E+02 0.  0.
         -6    2    1    2    0  502  0.14513043382E+02 -0.67311575628E+02  0.28844811281E+03  0.34395339589E+03  0.17424163715E+03 0.  0.
        -24    2    5    5    0    0  0.56699468916E+02  0.72759321031E+01  0.12069397361E+03  0.15552162567E+03  0.79700513312E+02 0.  0.
          5    1    3    3  501    0  0.19225283756E+02 -0.12724704616E+02 -0.27078115087E+02  0.35872607373E+02  0.47000000000E+01 0. -1.
        -11    1    4    4    0    0  0.18778673681E+02  0.23869604217E+02  0.11404816371E+02  0.32441738966E+02  0.00000000000E+00 0.  1.
         12    1    4    4    0    0 -0.52517000820E+02  0.56166676027E+02  0.12707376731E+03  0.14852768500E+03  0.00000000000E+00 0. -1.
         -5    1    5    5    0  502 -0.42186425533E+02 -0.74587507731E+02  0.16775413920E+03  0.18843177022E+03  0.47000000000E+01 0.  1.
         13    1    6    6    0    0  0.34148719202E+01 -0.43454488381E+01 -0.11368806632E+02  0.12640966738E+02  0.00000000000E+00 0. -1.
        -14    1    6    6    0    0  0.53284596995E+02  0.11621380941E+02  0.13206278024E+03  0.14288065893E+03  0.00000000000E+00 0.  1.
</event>
<event>
12    1  0.8633375E-002  0.1819446E+03  0.7818608E-02  0.1167552E+00
         21   -1    0    0  501  502  0.00000000000E+00  0.00000000000E+00  0.17421302821E+04  0.17421302821E+04  0.00000000000E+00 0. -1.
         21   -1    0    0  502  503 -0.00000000000E+00 -0.00000000000E+00 -0.19824960824E+02  0.19824960824E+02  0.00000000000E+00 0. -1.
         -6    2    1    2    0  503  0.24593449232E+02 -0.27249021559E+02  0.11191321688E+04  0.11338256682E+04  0.17820350111E+03 0.  0.
        -24    2    3    3    0    0 -0.17242349875E+02 -0.41388059297E+02  0.42267909829E+03  0.43595811929E+03  0.96910224197E+02 0.  0.
          6    2    1    2  501    0 -0.24593449232E+02  0.27249021559E+02  0.60317315247E+03  0.62812957467E+03  0.17141051250E+03 0.  0.
         24    2    5    5    0    0  0.16753804531E+02 -0.14039325680E+02  0.51951102776E+03  0.52597398685E+03  0.79240988455E+02 0.  0.
          5    1    5    5  501    0 -0.41347253763E+02  0.41288347239E+02  0.83662124709E+02  0.10215558782E+03  0.47000000000E+01 0. -1.
        -11    1    6    6    0    0 -0.31963577493E+02 -0.77161593167E+01  0.19089884932E+03  0.19371004123E+03  0.00000000000E+00 0.  1.
         12    1    6    6    0    0  0.48717382024E+02 -0.63231663636E+01  0.32861217843E+03  0.33226394562E+03  0.00000000000E+00 0. -1.
         -5    1    3    3    0  503  0.41835799107E+02  0.14139037739E+02  0.69645307050E+03  0.69786754895E+03  0.47000000000E+01 0.  1.
         13    1    4    4    0    0 -0.32572940935E+02 -0.68082671599E+02  0.31891689376E+03  0.32772584850E+03  0.00000000000E+00 0. -1.
        -14    1    4    4    0    0  0.15330591061E+02  0.26694612302E+02  0.10376220454E+03  0.10823227078E+03  0.00000000000E+00 0.  1.
</event>
<event>
12    1  0.8633375E-002  0.2240762E+03  0.7818608E-02  0.1130890E+00
         21   -1    0    0  503  502  0.00000000000E+00  0.00000000000E+00  0.11430307112E+03  0.11430307112E+03  0.00000000000E+00 0. -1.
         21   -1    0    0  501  503 -0.00000000000E+00 -0.00000000000E+00 -0.22313760633E+04  0.22313760633E+04  0.00000000000E+00 0.  1.
          6    2    1    2  501    0  0.99415934521E+02 -0.10453375880E+03 -0.21096684780E+04  0.21215351136E+04  0.17146228832E+03 0.  0.
         24    2    3    3    0    0  0.30196808925E+02 -0.11645384527E+03 -0.10831499540E+04  0.10926056963E+04  0.78102747689E+02 0.  0.
         -6    2    1    2    0  502 -0.99415934521E+02  0.10453375880E+03 -0.74045142294E+01  0.22414402088E+03  0.17139101640E+03 0.  0.
        -24    2    5    5    0    0 -0.39321973512E+02  0.10009863645E+03  0.46134926584E+02  0.14340049989E+03  0.82881344683E+02 0.  0.
          5    1    3    3  501    0  0.69219125596E+02  0.11920086466E+02 -0.10265185239E+04  0.10289294173E+04  0.47000000000E+01 0. -1.
        -11    1    4    4    0    0 -0.35383046303E+01 -0.30287254948E+02 -0.59386532295E+03  0.59464767654E+03  0.00000000000E+00 0.  1.
         12    1    4    4    0    0  0.33735113556E+02 -0.86166590317E+02 -0.48928463110E+03  0.49795801972E+03  0.00000000000E+00 0. -1.
         -5    1    5    5    0  502 -0.60093961009E+02  0.44351223463E+01 -0.53539440814E+02  0.80743520995E+02  0.47000000000E+01 0.  1.
         11    1    6    6    0    0 -0.42667920476E+02  0.11154812187E+03  0.29655185003E+02  0.12305675490E+03  0.00000000000E+00 0. -1.
        -12    1    6    6    0    0  0.33459469641E+01 -0.11449485415E+02  0.16479741581E+02  0.20343744983E+02  0.00000000000E+00 0.  1.
</event>
<event>
12    1  0.8633375E-002  0.2059442E+03  0.7818608E-02  0.1144840E+00
         21   -1    0    0  501  502  0.00000000000E+00  0.00000000000E+00  0.23686585830E+03  0.23686585830E+03  0.00000000000E+00 0. -1.
         21   -1    0    0  502  503 -0.00000000000E+00 -0.00000000000E+00 -0.34577268687E+03  0.34577268687E+03  0.00000000000E+00 0. -1.
         -6    2    1    2    0  503 -0.76337047291E+02  0.81771156455E+02 -0.25679938048E+03  0.32917918358E+03  0.17291369602E+03 0.  0.
        -24    2    3    3    0    0 -0.16480815023E+02  0.26692157179E+02 -0.33469320386E+02  0.91450618946E+02  0.79113410871E+02 0.  0.
          6    2    1    2  501    0  0.76337047291E+02 -0.81771156455E+02  0.14789255191E+03  0.25345936160E+03  0.17278765655E+03 0.  0.
         24    2    5    5    0    0  0.44209075718E+02 -0.51468214198E+01  0.14301464445E+03  0.17009642464E+03  0.80614347372E+02 0.  0.
          5    1    5    5  501    0  0.32127971574E+02 -0.76624335036E+02  0.48779074595E+01  0.83362936958E+02  0.47000000000E+01 0. -1.
        -11    1    6    6    0    0 -0.19414014495E+02  0.76562403341E+00  0.71960668669E+02  0.74537426668E+02  0.00000000000E+00 0.  1.
         12    1    6    6    0    0  0.63623090213E+02 -0.59124454532E+01  0.71053975780E+02  0.95558997973E+02  0.00000000000E+00 0. -1.
         -5    1    3    3    0  503 -0.59856232269E+02  0.55078999276E+02 -0.22333006009E+03  0.23772856463E+03  0.47000000000E+01 0.  1.
         11    1    4    4    0    0  0.13171438733E+02 -0.17873305333E+02 -0.30651315475E+02  0.37847654910E+02  0.00000000000E+00 0. -1.
        -12    1    4    4    0    0 -0.29652253756E+02  0.44565462512E+02 -0.28180049113E+01  0.53602964036E+02  0.00000000000E+00 0.  1.
</event>
<event>
12    1  0.8633375E-002  0.2362738E+03  0.7818608E-02  0.1122424E+00
         21   -1    0    0  503  502  0.00000000000E+00  0.00000000000E+00  0.56989825196E+03  0.56989825196E+03  0.00000000000E+00 0.  1.
         21   -1    0    0  501  503 -0.00000000000E+00 -0.00000000000E+00 -0.99966260988E+02  0.99966260988E+02  0.00000000000E+00 0. -1.
          6    2    1    2  501    0  0.11548110592E+03  0.11415700788E+03  0.18370229611E+03  0.29871395721E+03  0.17063348547E+03 0.  0.
         24    2    3    3    0    0  0.14019218906E+03  0.54120741313E+02  0.14092966735E+03  0.22082571224E+03  0.79497921580E+02 0.  0.
         -6    2    1    2    0  502 -0.11548110592E+03 -0.11415700788E+03  0.28622969486E+03  0.37115055573E+03  0.17163213140E+03 0.  0.
        -24    2    5    5    0    0 -0.15068190896E+02 -0.15744270930E+02  0.50200517196E+02  0.96378499281E+02  0.79333415109E+02 0.  0.
          5    1    3    3  501    0 -0.24711083140E+02  0.60036266569E+02  0.42772628761E+02  0.77888244971E+02  0.47000000000E+01 0. -1.
        -13    1    4    4    0    0  0.47768441139E+02  0.16946897794E+02  0.10194475323E+03  0.11384969928E+03  0.00000000000E+00 0.  1.
         14    1    4    4    0    0  0.92423747917E+02  0.37173843520E+02  0.38984914112E+02  0.10697601296E+03  0.00000000000E+00 0. -1.
         -5    1    5    5    0  502 -0.10041291502E+03 -0.98412736952E+02  0.23602917766E+03  0.27477205645E+03  0.47000000000E+01 0.  1.
         11    1    6    6    0    0 -0.44980851166E+02 -0.29811597423E+01  0.12895315134E+02  0.46887668287E+02  0.00000000000E+00 0. -1.
        -12    1    6    6    0    0  0.29912660269E+02 -0.12763111188E+02  0.37305202062E+02  0.49490830994E+02  0.00000000000E+00 0.  1.
</event>
<event>
12    1  0.8633375E-002  0.2405517E+03  0.7818608E-02  0.1119489E+00
         21   -1    0    0  501  502  0.00000000000E+00  0.00000000000E+00  0.11528251827E+03  0.11528251827E+03  0.00000000000E+00 0. -1.
         21   -1    0    0  502  503 -0.00000000000E+00 -0.00000000000E+00 -0.95532345382E+03  0.95532345382E+03  0.00000000000E+00 0. -1.
         -6    2    1    2    0  503 -0.10250415550E+03 -0.13316377033E+03 -0.78893853869E+03  0.82468615682E+03  0.17159122294E+03 0.  0.
        -24    2    3    3    0    0 -0.10070146115E+03 -0.75255456702E+02 -0.32965821651E+03  0.36174217874E+03  0.79866739796E+02 0.  0.
          6    2    1    2  501    0  0.10250415550E+03  0.13316377033E+03 -0.51102396858E+02  0.24591981527E+03  0.17212033277E+03 0.  0.
         24    2    5    5    0    0  0.19970621036E+02  0.66602430747E+02  0.28734860728E+02  0.11311065167E+03  0.84460747174E+02 0.  0.
          5    1    5    5  501    0  0.82533534461E+02  0.66561339583E+02 -0.79837257586E+02  0.13280916360E+03  0.47000000000E+01 0. -1.
        -11    1    6    6    0    0  0.22617191754E+02 -0.14237532853E+02  0.16227049679E+02  0.31265985445E+02  0.00000000000E+00 0.  1.
         12    1    6    6    0    0 -0.26465707179E+01  0.80839963601E+02  0.12507811049E+02  0.81844666220E+02  0.00000000000E+00 0. -1.
         -5    1    3    3    0  503 -0.18026943424E+01 -0.57908313628E+02 -0.45928032218E+03  0.46294397808E+03  0.47000000000E+01 0.  1.
         11    1    4    4    0    0 -0.72640491857E+02 -0.12454028423E+02 -0.22266820461E+03  0.23454823219E+03  0.00000000000E+00 0. -1.
        -12    1    4    4    0    0 -0.28060969297E+02 -0.62801428279E+02 -0.10699001190E+03  0.12719394655E+03  0.00000000000E+00 0.  1.
</event>
<event>
12    1  0.8633375E-002  0.1829329E+03  0.7818608E-02  0.1165455E+00
         21   -1    0    0  501  502  0.00000000000E+00  0.00000000000E+00  0.10571307990E+03  0.10571307990E+03  0.00000000000E+00 0.  1.
         21   -1    0    0  502  503 -0.00000000000E+00 -0.00000000000E+00 -0.14282433040E+04  0.14282433040E+04  0.00000000000E+00 0.  1.
         -6    2    1    2    0  503  0.94578871182E+01 -0.58978765178E+02 -0.13381709226E+04  0.13503561004E+04  0.17085734777E+03 0.  0.
        -24    2    3    3    0    0 -0.25684699400E+02 -0.63735992108E+01 -0.35992869444E+03  0.37005907810E+03  0.81821327619E+02 0.  0.
          6    2    1    2  501    0 -0.94578871182E+01  0.58978765178E+02  0.15640698546E+02  0.18360028350E+03  0.17290600417E+03 0.  0.
         24    2    5    5    0    0  0.18544142487E+02  0.86973330375E+02 -0.28666699177E+02  0.12399286084E+03  0.81511989797E+02 0.  0.
          5    1    5    5  501    0 -0.28002029606E+02 -0.27994565196E+02  0.44307397723E+02  0.59607422655E+02  0.47000000000E+01 0. -1.
        -11    1    6    6    0    0  0.23661225795E+02  0.42798005017E+02  0.24485512636E+02  0.54690613167E+02  0.00000000000E+00 0.  1.
         12    1    6    6    0    0 -0.51170833077E+01  0.44175325357E+02 -0.53152211813E+02  0.69302247673E+02  0.00000000000E+00 0. -1.
         -5    1    3    3    0  503  0.35142586518E+02 -0.52605165967E+02 -0.97824222817E+03  0.98029702226E+03  0.47000000000E+01 0.  1.
         11    1    4    4    0    0 -0.25799615436E+02  0.29213549992E+02 -0.27822244985E+03  0.28093910952E+03  0.00000000000E+00 0. -1.
        -12    1    4    4    0    0  0.11491603621E+00 -0.35587149202E+02 -0.81706244589E+02  0.89119968576E+02  0.00000000000E+00 0.  1.
</event>
<event>
12    1  0.8633375E-002  0.1792630E+03  0.7818608E-02  0.1168780E+00
         21   -1    0    0  503  502  0.00000000000E+00  0.00000000000E+00  0.54028365706E+02  0.54028365706E+02  0.00000000000E+00 0. -1.
         21   -1    0    0  501  503 -0.00000000000E+00 -0.00000000000E+00 -0.62327987744E+03  0.62327987744E+03  0.00000000000E+00 0. -1.
          6    2    1    2  501    0  0.44069491103E+02 -0.17485399980E+02 -0.20864513992E+03  0.27507821914E+03  0.17287964882E+03 0.  0.
         24    2    3    3    0    0 -0.22460677050E+02  0.46397509365E+01 -0.40481857655E+02  0.92823548200E+02  0.80320738286E+02 0.  0.
         -6    2    1    2    0  502 -0.44069491103E+02  0.17485399980E+02 -0.36060637181E+03  0.40223002400E+03  0.17176780129E+03 0.  0.
        -24    2    5    5    0    0 -0.13899048535E+02  0.75251444645E+02 -0.25185937836E+03  0.27536328248E+03  0.80844464231E+02 0.  0.
          5    1    3    3  501    0  0.66530168153E+02 -0.22125150916E+02 -0.16816328227E+03  0.18225467094E+03  0.47000000000E+01 0. -1.
        -11    1    4    4    0    0 -0.16917224784E+02  0.42217808327E+02 -0.20231164104E+02  0.49777864914E+02  0.00000000000E+00 0.  1.
         12    1    4    4    0    0 -0.55434522665E+01 -0.37578057391E+02 -0.20250693550E+02  0.43045683286E+02  0.00000000000E+00 0. -1.
         -5    1    5    5    0  502 -0.30170442568E+02 -0.57766044666E+02 -0.10874699345E+03  0.12686674152E+03  0.47000000000E+01 0.  1.
         13    1    6    6    0    0  0.12319964111E+02  0.43860273997E+00 -0.11060408262E+01  0.12377286228E+02  0.00000000000E+00 0. -1.
        -14    1    6    6    0    0 -0.26219012647E+02  0.74812841905E+02 -0.25075333754E+03  0.26298599625E+03  0.00000000000E+00 0.  1.
</event>
<event>
12    1  0.8633375E-002  0.2030245E+03  0.7818608E-02  0.1148308E+00
         21   -1    0    0  501  502  0.00000000000E+00  0.00000000000E+00  0.25398296808E+03  0.25398296808E+03  0.00000000000E+00 0. -1.
         21   -1    0    0  502  503 -0.00000000000E+00 -0.00000000000E+00 -0.16208726370E+03  0.16208726370E+03  0.00000000000E+00 0. -1.
         -6    2    1    2    0  503 -0.50176536230E+02  0.90782612698E+02  0.77829092460E+02  0.21255900122E+03  0.16841850792E+03 0.  0.
        -24    2    3    3    0    0 -0.13797105574E+02  0.25335586652E+02  0.10211922897E+03  0.13369914499E+03  0.81331865668E+02 0.  0.
          6    2    1    2  501    0  0.50176536230E+02 -0.90782612698E+02  0.14066611925E+02  0.20351123056E+03  0.17452731544E+03 0.  0.
         24    2    5    5    0    0  0.49758622471E+02 -0.86544771380E+02 -0.51260180730E+02  0.13787729277E+03  0.80103831177E+02 0.  0.
          5    1    5    5  501    0  0.41791375963E+00 -0.42378413179E+01  0.65326792655E+02  0.65633937788E+02  0.47000000000E+01 0. -1.
        -11    1    6    6    0    0 -0.14178900148E+02 -0.87376686007E+01  0.10549284175E+02  0.19714853755E+02  0.00000000000E+00 0.  1.
         12    1    6    6    0    0  0.63937522619E+02 -0.77807102779E+02 -0.61809464905E+02  0.11816243901E+03  0.00000000000E+00 0. -1.
         -5    1    3    3    0  503 -0.36379430657E+02  0.65447026046E+02 -0.24290136509E+02  0.78859856231E+02  0.47000000000E+01 0.  1.
         11    1    4    4    0    0 -0.33904705269E+02  0.14017344921E+02  0.90165924030E+01  0.37779808583E+02  0.00000000000E+00 0. -1.
        -12    1    4    4    0    0  0.20107599696E+02  0.11318241731E+02  0.93102636566E+02  0.95919336408E+02  0.00000000000E+00 0.  1.
</event>
<event>
12    1  0.8633375E-002  0.1899935E+03  0.7818608E-02  0.1158585E+00
         21   -1    0    0  501  502  0.00000000000E+00  0.00000000000E+00  0.38360811881E+02  0.38360811881E+02  0.00000000000E+00 0. -1.
         21   -1    0    0  502  503 -0.00000000000E+00 -0.00000000000E+00 -0.93848982251E+03  0.93848982251E+03  0.00000000000E+00 0. -1.
         -6    2    1    2    0  503 -0.54558494203E+01  0.79535995277E+02 -0.44661919854E+03  0.48535168029E+03  0.17245812307E+03 0.  0.
        -24    2    3    3    0    0  0.48117329319E+02  0.49533605126E+02 -0.38074143806E+03  0.39517297870E+03  0.80179704509E+02 0.  0.
          6    2    1    2  501    0  0.54558494203E+01 -0.79535995277E+02 -0.45350981209E+03  0.49149895410E+03  0.17188464558E+03 0.  0.
         24    2    5    5    0    0 -0.31683263764E+02 -0.43319537526E+02 -0.42107493149E+03  0.43013889364E+03  0.69533864845E+02 0.  0.
          5    1    5    5  501    0  0.37139113185E+02 -0.36216457752E+02 -0.32434880594E+02  0.61360060458E+02  0.47000000000E+01 0. -1.
        -11    1    6    6    0    0  0.75184020991E+01  0.12396699784E+02 -0.14743656062E+03  0.14814770988E+03  0.00000000000E+00 0.  1.
         12    1    6    6    0    0 -0.39201665864E+02 -0.55716237310E+02 -0.27363837087E+03  0.28199118376E+03  0.00000000000E+00 0. -1.
         -5    1    3    3    0  503 -0.53573178739E+02  0.30002390151E+02 -0.65877760475E+02  0.90178701589E+02  0.47000000000E+01 0.  1.
         13    1    4    4    0    0  0.10030927430E+02  0.56103334953E+02 -0.13693120796E+03  0.14831843921E+03  0.00000000000E+00 0. -1.
        -14    1    4    4    0    0  0.38086401889E+02 -0.65697298271E+01 -0.24381023011E+03  0.24685453948E+03  0.00000000000E+00 0.  1.
</event>
<event>
12    1  0.8633375E-002  0.2441757E+03  0.7818608E-02  0.1117206E+00
         21   -1    0    0  501  502  0.00000000000E+00  0.00000000000E+00  0.21323067888E+03  0.21323067888E+03  0.00000000000E+00 0. -1.
         21   -1    0    0  502  503 -0.00000000000E+00 -0.00000000000E+00 -0.34968350178E+03  0.34968350178E+03  0.00000000000E+00 0.  1.
         -6    2    1    2    0  503  0.12726984525E+03 -0.11657181969E+03 -0.19535835104E+03  0.31270859237E+03  0.17272861885E+03 0.  0.
        -24    2    3    3    0    0  0.44352597191E+02 -0.10333967972E+03 -0.18037375886E+03  0.22728618574E+03  0.80486489918E+02 0.  0.
          6    2    1    2  501    0 -0.12726984525E+03  0.11657181969E+03  0.58905528135E+02  0.25020558829E+03  0.17130782968E+03 0.  0.
         24    2    5    5    0    0 -0.70035013546E+02  0.14534656772E+03  0.41988932897E+02  0.18378214906E+03  0.77345199973E+02 0.  0.
          5    1    5    5  501    0 -0.57234831699E+02 -0.28774748027E+02  0.16916595238E+02  0.66423439222E+02  0.47000000000E+01 0. -1.
        -11    1    6    6    0    0 -0.27213488191E+02  0.44938048107E+02 -0.22329278074E+02  0.57084137608E+02  0.00000000000E+00 0.  1.
         12    1    6    6    0    0 -0.42821525355E+02  0.10040851961E+03  0.64318210971E+02  0.12669801146E+03  0.00000000000E+00 0. -1.
         -5    1    3    3    0  503  0.82917248054E+02 -0.13232139967E+02 -0.14984592184E+02  0.85422406639E+02  0.47000000000E+01 0.  1.
         13    1    4    4    0    0 -0.49869327357E+01  0.39608830043E+01 -0.53784015350E+02  0.54159748887E+02  0.00000000000E+00 0. -1.
        -14    1    4    4    0    0  0.49339529927E+02 -0.10730056273E+03 -0.12658974351E+03  0.17312643685E+03  0.00000000000E+00 0.  1.
</event>
<event>
12    1  0.8633375E-002  0.2222149E+03  0.7818608E-02  0.1132247E+00
         21   -1    0    0  501  502  0.00000000000E+00  0.00000000000E+00  0.88240365559E+02  0.88240365559E+02  0.00000000000E+00 0.  1.
         21   -1    0    0  502  503 -0.00000000000E+00 -0.00000000000E+00 -0.13382721192E+04  0.13382721192E+04  0.00000000000E+00 0. -1.
         -6    2    1    2    0  503  0.11473456137E+03 -0.81476695773E+02 -0.11690869827E+04  0.11900140129E+04  0.17194913874E+03 0.  0.
        -24    2    3    3    0    0  0.36809274774E+02  0.91001326888E+01 -0.32932896172E+03  0.34178519005E+03  0.83197451824E+02 0.  0.
          6    2    1    2  501    0 -0.11473456137E+03  0.81476695773E+02 -0.80944770905E+02  0.23649847180E+03  0.17197964908E+03 0.  0.
         24    2    5    5    0    0 -0.93927330617E+02  0.42232681680E+02  0.14448879078E+02  0.13116532435E+03  0.79935157264E+02 0.  0.
          5    1    5    5  501    0 -0.20807230753E+02  0.39244014093E+02 -0.95393649982E+02  0.10533314745E+03  0.47000000000E+01 0. -1.
        -13    1    6    6    0    0 -0.79177560466E+02 -0.38211178329E+01 -0.40905541705E+01  0.79375182874E+02  0.00000000000E+00 0.  1.
         14    1    6    6    0    0 -0.14749770151E+02  0.46053799513E+02  0.18539433248E+02  0.51790141478E+02  0.00000000000E+00 0. -1.
         -5    1    3    3    0  503  0.77925286596E+02 -0.90576828462E+02 -0.83975802100E+03  0.84822882289E+03  0.47000000000E+01 0.  1.
         13    1    4    4    0    0 -0.15636728447E+02 -0.17103641071E+02 -0.17790053389E+03  0.17940357235E+03  0.00000000000E+00 0. -1.
        -14    1    4    4    0    0  0.52446003221E+02  0.26203773759E+02 -0.15142842783E+03  0.16238161770E+03  0.00000000000E+00 0.  1.
</event>
<event>
12    1  0.8633375E-002  0.1896045E+03  0.7818608E-02  0.1158963E+00
         21   -1    0    0  503  502  0.00000000000E+00  0.00000000000E+00  0.29474899297E+03  0.29474899297E+03  0.00000000000E+00 0.  1.
         21   -1    0    0  501  503 -0.00000000000E+00 -0.00000000000E+00 -0.12157532745E+03  0.12157532745E+03  0.00000000000E+00 0.  1.
          6    2    1    2  501    0 -0.78343168460E+02 -0.12505820089E+02  0.83956124035E+02  0.20677806472E+03  0.17150652963E+03 0.  0.
         24    2    3    3    0    0 -0.42725427530E+02 -0.72871894934E+02  0.65974251823E+02  0.13426514043E+03  0.80862542636E+02 0.  0.
         -6    2    1    2    0  502  0.78343168460E+02  0.12505820089E+02  0.89217541484E+02  0.20954625569E+03  0.17220864086E+03 0.  0.
        -24    2    5    5    0    0  0.48409608630E+02 -0.15738797472E+02  0.12387573852E+03  0.15553646911E+03  0.79089788689E+02 0.  0.
          5    1    3    3  501    0 -0.35617740930E+02  0.60366074845E+02  0.17981872213E+02  0.72512924293E+02  0.47000000000E+01 0. -1.
        -13    1    4    4    0    0 -0.62635982765E+02 -0.42795309186E+02  0.62007765090E+02  0.97977894224E+02  0.00000000000E+00 0.  1.
         14    1    4    4    0    0  0.19910555235E+02 -0.30076585748E+02  0.39664867333E+01  0.36287246203E+02  0.00000000000E+00 0. -1.
         -5    1    5    5    0  502  0.29933559830E+02  0.28244617561E+02 -0.34658197037E+02  0.54009786586E+02  0.47000000000E+01 0.  1.
         13    1    6    6    0    0 -0.28265213708E+01  0.52207096348E+01  0.90916505840E+02  0.91110131524E+02  0.00000000000E+00 0. -1.
        -14    1    6    6    0    0  0.51236130001E+02 -0.20959507107E+02  0.32959232681E+02  0.64426337584E+02  0.00000000000E+00 0.  1.
</event>
<event>
12    1  0.8633375E-002  0.1800889E+03  0.7818608E-02  0.1168442E+00
         21   -1    0    0  501  502  0.00000000000E+00  0.00000000000E+00  0.15191937511E+03  0.15191937511E+03  0.00000000000E+00 0.  1.
         21   -1    0    0  502  503 -0.00000000000E+00 -0.00000000000E+00 -0.21663587690E+03  0.21663587690E+03  0.00000000000E+00 0. -1.
         -6    2    1    2    0  503  0.38643424533E+02 -0.32061171353E+02 -0.64407106484E+02  0.18846603716E+03  0.16985269744E+03 0.  0.
        -24    2    3    3    0    0 -0.99375947746E+01 -0.63176947049E+02 -0.78676654846E+02  0.12885046080E+03  0.79513161186E+02 0.  0.
          6    2    1    2  501    0 -0.38643424533E+02  0.32061171353E+02 -0.30939530606E+00  0.18008921485E+03  0.17294738105E+03 0.  0.
         24    2    5    5    0    0 -0.57581796752E+02 -0.11218348073E+02 -0.50513963589E+02  0.11099241738E+03  0.79537045130E+02 0.  0.
          5    1    5    5  501    0  0.18938372220E+02  0.43279519426E+02  0.50204568283E+02  0.69096797469E+02  0.47000000000E+01 0. -1.
        -11    1    6    6    0    0 -0.11465554026E+02  0.32117533196E+02 -0.88721691682E+01  0.35237909324E+02  0.00000000000E+00 0.  1.
         12    1    6    6    0    0 -0.46116242726E+02 -0.43335881269E+02 -0.41641794421E+02  0.75754508058E+02  0.00000000000E+00 0. -1.
         -5    1    3    3    0  503  0.48581019307E+02  0.31115775696E+02  0.14269548362E+02  0.59615576359E+02  0.47000000000E+01 0.  1.
         13    1    4    4    0    0  0.22484555077E+02  0.79696141229E+01 -0.18512090971E+02  0.30195487716E+02  0.00000000000E+00 0. -1.
        -14    1    4    4    0    0 -0.32422149852E+02 -0.71146561172E+02 -0.60164563875E+02  0.98654973082E+02  0.00000000000E+00 0.  1.
</event>
<event>
12    1  0.8633375E-002  0.1947903E+03  0.7818608E-02  0.1154330E+00
         21   -1    0    0  501  502  0.00000000000E+00  0.00000000000E+00  0.27625365402E+02  0.27625365402E+02  0.00000000000E+00 0.  1.
         21   -1    0    0  502  503 -0.00000000000E+00 -0.00000000000E+00 -0.17932903776E+04  0.17932903776E+04  0.00000000000E+00 0. -1.
         -6    2    1    2    0  503 -0.65912173903E+02 -0.66080107939E+02 -0.13244065673E+04  0.13385753467E+04  0.17035318539E+03 0.  0.
        -24    2    3    3    0    0 -0.10897843142E+03 -0.45613672564E+02 -0.87401516516E+03  0.88564258934E+03  0.80643545746E+02 0.  0.
          6    2    1    2  501    0  0.65912173903E+02  0.66080107939E+02 -0.44125844482E+03  0.48234039629E+03  0.17097440579E+03 0.  0.
         24    2    5    5    0    0  0.91563523479E+01  0.62738526477E+02 -0.12773734585E+03  0.16367135332E+03  0.80321360055E+02 0.  0.
          5    1    5    5  501    0  0.56755821555E+02  0.33415814615E+01 -0.31352109897E+03  0.31866904297E+03  0.47000000000E+01 0. -1.
        -13    1    6    6    0    0  0.25423702731E+02  0.36068441342E+02 -0.12470784182E+03  0.13228508205E+03  0.00000000000E+00 0.  1.
         14    1    6    6    0    0 -0.16267350383E+02  0.26670085135E+02 -0.30295040249E+01  0.31386271270E+02  0.00000000000E+00 0. -1.
         -5    1    3    3    0  503  0.43066257518E+02 -0.20466435374E+02 -0.45039140217E+03  0.45293275733E+03  0.47000000000E+01 0.  1.
         11    1    4    4    0    0 -0.36768391675E+02  0.17135495410E+02 -0.40126781343E+03  0.40331302722E+03  0.00000000000E+00 0. -1.
        -12    1    4    4    0    0 -0.72210039746E+02 -0.62749167974E+02 -0.47274735174E+03  0.48232956212E+03  0.00000000000E+00 0.  1.
</event>
<event>
12    1  0.8633375E-002  0.3754050E+03  0.7818608E-02  0.1052789E+00
         21   -1    0    0  503  502  0.00000000000E+00  0.00000000000E+00  0.53022177652E+02  0.53022177652E+02  0.00000000000E+00 0.  1.
         21   -1    0    0  501  503 -0.00000000000E+00 -0.00000000000E+00 -0.29855174155E+04  0.29855174155E+04  0.00000000000E+00 0. -1.
          6    2    1    2  501    0 -0.29893733507E+03 -0.14408627555E+03 -0.19751053642E+04  0.20101795891E+04  0.17221032321E+03 0.  0.
         24    2    3    3    0    0 -0.22389351612E+03 -0.48840489952E+02 -0.10604985887E+04  0.10875577932E+04  0.74906587343E+02 0.  0.
         -6    2    1    2    0  502  0.29893733507E+03  0.14408627555E+03 -0.95738987359E+03  0.10283600041E+04  0.17551222970E+03 0.  0.
        -24    2    5    5    0    0  0.17867364132E+03  0.57828962743E+02 -0.72260573718E+03  0.75078233787E+03  0.79035488411E+02 0.  0.
          5    1    3    3  501    0 -0.75043818957E+02 -0.95245785600E+02 -0.91460677550E+03  0.92262179588E+03  0.47000000000E+01 0. -1.
        -11    1    4    4    0    0 -0.18954550725E+03 -0.33676179902E+02 -0.98004610979E+03  0.99877523083E+03  0.00000000000E+00 0.  1.
         12    1    4    4    0    0 -0.34348008869E+02 -0.15164310050E+02 -0.80452478956E+02  0.88782562379E+02  0.00000000000E+00 0. -1.
         -5    1    5    5    0  502  0.12026369375E+03  0.86257312808E+02 -0.23478413642E+03  0.27757766618E+03  0.47000000000E+01 0.  1.
         13    1    6    6    0    0  0.12988418193E+03  0.19589959114E+02 -0.36663717944E+03  0.38945665813E+03  0.00000000000E+00 0. -1.
        -14    1    6    6    0    0  0.48789459393E+02  0.38239003629E+02 -0.35596855774E+03  0.36132567975E+03  0.00000000000E+00 0.  1.
</event>
<event>
12    1  0.8633375E-002  0.2022049E+03  0.7818608E-02  0.1151341E+00
         21   -1    0    0  503  502  0.00000000000E+00  0.00000000000E+00  0.21955679895E+02  0.21955679895E+02  0.00000000000E+00 0.  1.
         21   -1    0    0  501  503 -0.00000000000E+00 -0.00000000000E+00 -0.18243360089E+04  0.18243360089E+04  0.00000000000E+00 0.  1.
          6    2    1    2  501    0  0.41325024275E+01 -0.73436283050E+02 -0.11576414650E+04  0.11751683182E+04  0.18835299128E+03 0.  0.
         24    2    3    3    0    0 -0.59595148717E+02 -0.90605784272E+02 -0.70558404779E+03  0.71829415197E+03  0.79603080157E+02 0.  0.
         -6    2    1    2    0  502 -0.41325024275E+01  0.73436283050E+02 -0.64473886400E+03  0.67112337061E+03  0.17119699350E+03 0.  0.
        -24    2    5    5    0    0  0.40213467535E+02  0.89525819938E+02 -0.33559174150E+03  0.35836232508E+03  0.78547715872E+02 0.  0.
          5    1    3    3  501    0  0.63727651145E+02  0.17169501223E+02 -0.45205741723E+03  0.45687416622E+03  0.47000000000E+01 0. -1.
        -11    1    4    4    0    0 -0.15088451125E+02 -0.18158949285E+02 -0.34260404644E+02  0.41607500801E+02  0.00000000000E+00 0.  1.
         12    1    4    4    0    0 -0.44506697593E+02 -0.72446834987E+02 -0.67132364314E+03  0.67668665117E+03  0.00000000000E+00 0. -1.
         -5    1    5    5    0  502 -0.44345969963E+02 -0.16089536888E+02 -0.30914712251E+03  0.31276104553E+03  0.47000000000E+01 0.  1.
         11    1    6    6    0    0 -0.65595118009E+01 -0.12043115672E+02 -0.31187564725E+02  0.34069458810E+02  0.00000000000E+00 0. -1.
        -12    1    6    6    0    0  0.46772979336E+02  0.10156893561E+03 -0.30440417677E+03  0.32429286627E+03  0.00000000000E+00 0.  1.
</event>
<event>
12    1  0.8633375E-002  0.1988784E+03  0.7818608E-02  0.1150961E+00
         21   -1    0    0  501  502  0.00000000000E+00  0.00000000000E+00  0.13625312898E+03  0.13625312898E+03  0.00000000000E+00 0. -1.
         21   -1    0    0  502  503 -0.00000000000E+00 -0.00000000000E+00 -0.36794897295E+03  0.36794897295E+03  0.00000000000E+00 0. -1.
         -6    2    1    2    0  503  0.48961311039E+02  0.84249276342E+02 -0.23333963782E+03  0.30659418798E+03  0.17337087120E+03 0.  0.
        -24    2    3    3    0    0  0.62402462670E+02  0.10416285995E+03 -0.11214574514E+03  0.18295250814E+03  0.78428205013E+02 0.  0.
          6    2    1    2  501    0 -0.48961311039E+02 -0.84249276342E+02  0.16437938465E+01  0.19760791395E+03  0.17190414496E+03 0.  0.
         24    2    5    5    0    0 -0.41515279569E+02  0.12877614667E+02  0.19259141725E+02  0.98504600070E+02  0.86272187278E+02 0.  0.
          5    1    5    5  501    0 -0.74460314698E+01 -0.97126891008E+02 -0.17615347879E+02  0.99103313883E+02  0.47000000000E+01 0. -1.
        -11    1    6    6    0    0 -0.55809762129E+02 -0.20989474221E+02  0.86974107818E+01  0.60257219744E+02  0.00000000000E+00 0.  1.
         12    1    6    6    0    0  0.14294482559E+02  0.33867088887E+02  0.10561730944E+02  0.38247380327E+02  0.00000000000E+00 0. -1.
         -5    1    3    3    0  503 -0.13441151631E+02 -0.19913583611E+02 -0.12119389268E+03  0.12364167984E+03  0.47000000000E+01 0.  1.
         13    1    4    4    0    0  0.76969607406E+02  0.59064278692E+02 -0.79056730285E+02  0.12515141264E+03  0.00000000000E+00 0. -1.
        -14    1    4    4    0    0 -0.14567144736E+02  0.45098581261E+02 -0.33089014853E+02  0.57801095504E+02  0.00000000000E+00 0.  1.
</event>
<event>
12    1  0.8633375E-002  0.2059100E+03  0.7818608E-02  0.1144991E+00
         21   -1    0    0  501  502  0.00000000000E+00  0.00000000000E+00  0.72456948051E+02  0.72456948051E+02  0.00000000000E+00 0. -1.
         21   -1    0    0  502  503 -0.00000000000E+00 -0.00000000000E+00 -0.84730003915E+03  0.84730003915E+03  0.00000000000E+00 0.  1.
         -6    2    1    2    0  503  0.96377924636E+02  0.57086043366E+02 -0.64373617431E+03  0.67565054387E+03  0.17192985378E+03 0.  0.
        -24    2    3    3    0    0  0.93323139873E+02 -0.58412479474E+01 -0.27222432867E+03  0.29880532744E+03  0.80219760481E+02 0.  0.
          6    2    1    2  501    0 -0.96377924636E+02 -0.57086043366E+02 -0.13110691679E+03  0.24410644333E+03  0.17277560979E+03 0.  0.
         24    2    5    5    0    0 -0.24416965658E+01  0.26527561232E+02 -0.48013524310E+02  0.93302425836E+02  0.75434546218E+02 0.  0.
          5    1    5    5  501    0 -0.93936228071E+02 -0.83613604598E+02 -0.83093392482E+02  0.15080401749E+03  0.47000000000E+01 0. -1.
        -11    1    6    6    0    0 -0.13056242198E+02  0.16962979443E+00 -0.60768883432E+02  0.62155863988E+02  0.00000000000E+00 0.  1.
         12    1    6    6    0    0  0.10614545632E+02  0.26357931437E+02  0.12755359121E+02  0.31146561848E+02  0.00000000000E+00 0. -1.
         -5    1    3    3    0  503  0.30547847635E+01  0.62927291314E+02 -0.37151184563E+03  0.37684521643E+03  0.47000000000E+01 0.  1.
         11    1    4    4    0    0 -0.71517352370E+01 -0.17859606566E+02 -0.71137818935E+02  0.73693297840E+02  0.00000000000E+00 0. -1.
        -12    1    4    4    0    0  0.10047487511E+03  0.12018358619E+02 -0.20108650974E+03  0.22511202960E+03  0.00000000000E+00 0.  1.
</event>
<event>
12    1  0.8633375E-002  0.2215915E+03  0.7818608E-02  0.1134335E+00
         21   -1    0    0  503  502  0.00000000000E+00  0.00000000000E+00  0.98933173546E+02  0.98933173546E+02  0.00000000000E+00 0.  1.
         21   -1    0    0  501  503 -0.00000000000E+00 -0.00000000000E+00 -0.57626498725E+03  0.57626498725E+03  0.00000000000E+00 0.  1.
          6    2    1    2  501    0  0.29927740937E+02 -0.12667715409E+03 -0.38261249078E+03  0.44214828763E+03  0.17933214746E+03 0.  0.
         24    2    3    3    0    0  0.49990007753E+02 -0.26289862376E+02 -0.28016526761E+03  0.29724271003E+03  0.81673090730E+02 0.  0.
         -6    2    1    2    0  502 -0.29927740937E+02  0.12667715409E+03 -0.94719322922E+02  0.23304987316E+03  0.16851623720E+03 0.  0.
        -24    2    5    5    0    0 -0.38655570498E+01 -0.18217543444E+01 -0.49345385730E+02  0.94225916028E+02  0.80157936839E+02 0.  0.
          5    1    3    3  501    0 -0.20062266816E+02 -0.10038729171E+03 -0.10244722317E+03  0.14490557761E+03  0.47000000000E+01 0. -1.
        -13    1    4    4    0    0  0.58910676254E+02 -0.32869169978E+02 -0.12812923565E+03  0.14480314617E+03  0.00000000000E+00 0.  1.
         14    1    4    4    0    0 -0.89206685011E+01  0.65793076016E+01 -0.15203603196E+03  0.15243956386E+03  0.00000000000E+00 0. -1.
         -5    1    5    5    0  502 -0.26062183887E+02  0.12849890843E+03 -0.45373937192E+02  0.13882395713E+03  0.47000000000E+01 0.  1.
         11    1    6    6    0    0  0.35640830929E+02  0.52650289219E+00 -0.39968803130E+02  0.53554189922E+02  0.00000000000E+00 0. -1.
        -12    1    6    6    0    0 -0.39506387979E+02 -0.23482572365E+01 -0.93765826006E+01  0.40671726106E+02  0.00000000000E+00 0.  1.
</event>
<event>
12    1  0.8633375E-002  0.2233469E+03  0.7818608E-02  0.1131802E+00
         21   -1    0    0  501  502  0.00000000000E+00  0.00000000000E+00  0.40254059997E+03  0.40254059997E+03  0.00000000000E+00 0.  1.
         21   -1    0    0  502  503 -0.00000000000E+00 -0.00000000000E+00 -0.18271723262E+03  0.18271723262E+03  0.00000000000E+00 0.  1.
         -6    2    1    2    0  503 -0.13344338208E+03  0.39988720792E+02 -0.57380412719E+02  0.23059994405E+03  0.17457831601E+03 0.  0.
        -24    2    3    3    0    0 -0.53750061498E+02  0.79975719180E+02  0.16987460151E+02  0.11439901505E+03  0.59273738475E+02 0.  0.
          6    2    1    2  501    0  0.13344338208E+03 -0.39988720792E+02  0.27720378007E+03  0.35465788854E+03  0.17185472996E+03 0.  0.
         24    2    5    5    0    0  0.10227984021E+03 -0.73677459388E+02  0.98525274230E+02  0.17012009865E+03  0.57828060367E+02 0.  0.
          5    1    5    5  501    0  0.31163541865E+02  0.33688738596E+02  0.17867850584E+03  0.18453778989E+03  0.47000000000E+01 0. -1.
        -13    1    6    6    0    0  0.10421822738E+03 -0.68518402506E+02  0.10396771835E+03  0.16237455730E+03  0.00000000000E+00 0.  1.
         14    1    6    6    0    0 -0.19383871690E+01 -0.51590568819E+01 -0.54424441191E+01  0.77455413444E+01  0.00000000000E+00 0. -1.
         -5    1    3    3    0  503 -0.79693320582E+02 -0.39986998388E+02 -0.74367872869E+02  0.11620092900E+03  0.47000000000E+01 0.  1.
         13    1    4    4    0    0 -0.22565386445E+01 -0.39488493539E+01  0.15257609109E+02  0.15921055668E+02  0.00000000000E+00 0. -1.
        -14    1    4    4    0    0 -0.51493522853E+02  0.83924568534E+02  0.17298510418E+01  0.98477959383E+02  0.00000000000E+00 0.  1.
</event>
<event>
12    1  0.8633375E-002  0.4106823E+03  0.7818608E-02  0.1040171E+00
         21   -1    0    0  501  502  0.00000000000E+00  0.00000000000E+00  0.48640569475E+03  0.48640569475E+03  0.00000000000E+00 0.  1.
         21   -1    0    0  502  503 -0.00000000000E+00 -0.00000000000E+00 -0.84899476907E+03  0.84899476907E+03  0.00000000000E+00 0.  1.
         -6    2    1    2    0  503  0.23864757313E+03  0.28647510110E+03 -0.69496839449E+03  0.80706723521E+03  0.17133535858E+03 0.  0.
        -24    2    3    3    0    0  0.10654107287E+03  0.55760423280E+02 -0.24850630721E+03  0.28742132177E+03  0.79971285313E+02 0.  0.
          6    2    1    2  501    0 -0.23864757313E+03 -0.28647510110E+03  0.33237932016E+03  0.52833322862E+03  0.17216079775E+03 0.  0.
         24    2    5    5    0    0 -0.21029421884E+03 -0.29104372238E+03  0.33686912645E+03  0.49888779841E+03  0.80486770534E+02 0.  0.
          5    1    5    5  501    0 -0.28353354283E+02  0.45686212866E+01 -0.44898062855E+01  0.29445430206E+02  0.47000000000E+01 0. -1.
        -13    1    6    6    0    0 -0.14766163273E+02 -0.93056925258E+01  0.46026123396E+02  0.49224379387E+02  0.00000000000E+00 0.  1.
         14    1    6    6    0    0 -0.19552805557E+03 -0.28173802986E+03  0.29084300305E+03  0.44966341902E+03  0.00000000000E+00 0. -1.
         -5    1    3    3    0  503  0.13210650025E+03  0.23071467782E+03 -0.44646208728E+03  0.51964591343E+03  0.47000000000E+01 0.  1.
         11    1    4    4    0    0  0.46538575336E+02 -0.17425595197E+02 -0.90208822806E+02  0.10299088345E+03  0.00000000000E+00 0. -1.
        -12    1    4    4    0    0  0.60002497537E+02  0.73186018478E+02 -0.15829748440E+03  0.18443043832E+03  0.00000000000E+00 0.  1.
</event>
<event>
12    1  0.8633375E-002  0.2039845E+03  0.7818608E-02  0.1146579E+00
         21   -1    0    0  501  502  0.00000000000E+00  0.00000000000E+00  0.11372413527E+04  0.11372413527E+04  0.00000000000E+00 0. -1.
         21   -1    0    0  502  503 -0.00000000000E+00 -0.00000000000E+00 -0.40837264278E+02  0.40837264278E+02  0.00000000000E+00 0. -1.
         -6    2    1    2    0  503  0.10236216315E+03  0.35030016354E+02  0.35606512971E+03  0.41035601186E+03  0.17292936530E+03 0.  0.
        -24    2    3    3    0    0  0.11477581357E+03  0.30425138309E+02  0.36588933651E+03  0.39321224746E+03  0.81496555530E+02 0.  0.
          6    2    1    2  501    0 -0.10236216315E+03 -0.35030016354E+02  0.74033895869E+03  0.76772260509E+03  0.17202066774E+03 0.  0.
         24    2    5    5    0    0 -0.84337807164E+02 -0.80461949478E+02  0.42364833113E+03  0.44724798591E+03  0.83461736161E+02 0.  0.
          5    1    5    5  501    0 -0.18024355987E+02  0.45431933124E+02  0.31669062756E+03  0.32047461918E+03  0.47000000000E+01 0. -1.
        -13    1    6    6    0    0 -0.19570671785E+02  0.10970138276E+02  0.27142496001E+02  0.35214630725E+02  0.00000000000E+00 0.  1.
         14    1    6    6    0    0 -0.64767135379E+02 -0.91432087754E+02  0.39650583513E+03  0.41203335519E+03  0.00000000000E+00 0. -1.
         -5    1    3    3    0  503 -0.12413650422E+02  0.46048780450E+01 -0.98242067950E+01  0.17143764398E+02  0.47000000000E+01 0.  1.
         11    1    4    4    0    0  0.86837418612E+02  0.16924121433E+02  0.14287004857E+03  0.16804467839E+03  0.00000000000E+00 0. -1.
        -12    1    4    4    0    0  0.27938394960E+02  0.13501016877E+02  0.22301928793E+03  0.22516756907E+03  0.00000000000E+00 0.  1.
</event>
<event>
12    1  0.8633375E-002  0.1920109E+03  0.7818608E-02  0.1156715E+00
         21   -1    0    0  501  502  0.00000000000E+00  0.00000000000E+00  0.10127279597E+03  0.10127279597E+03  0.00000000000E+00 0.  1.
         21   -1    0    0  502  503 -0.00000000000E+00 -0.00000000000E+00 -0.56968040699E+03  0.56968040699E+03  0.00000000000E+00 0.  1.
         -6    2    1    2    0  503  0.69937559138E+02 -0.49565296623E+02 -0.43589038213E+03  0.47620833925E+03  0.17154001379E+03 0.  0.
        -24    2    3    3    0    0  0.53321414310E+02  0.30609776358E+02 -0.15702159557E+03  0.18552977328E+03  0.77365261361E+02 0.  0.
          6    2    1    2  501    0 -0.69937559138E+02  0.49565296623E+02 -0.32517228881E+02  0.19474486370E+03  0.17181446667E+03 0.  0.
         24    2    5    5    0    0 -0.23609369759E+02  0.95320817562E+02 -0.59017522471E+01  0.12424420822E+03  0.75883674100E+02 0.  0.
          5    1    5    5  501    0 -0.46328189380E+02 -0.45755520939E+02 -0.26615476634E+02  0.70500655487E+02  0.47000000000E+01 0. -1.
        -13    1    6    6    0    0 -0.62765211977E+01 -0.12077265503E+02 -0.73052765562E+01  0.15447398679E+02  0.00000000000E+00 0.  1.
         14    1    6    6    0    0 -0.17332848561E+02  0.10739808307E+03  0.14035243091E+01  0.10879680954E+03  0.00000000000E+00 0. -1.
         -5    1    3    3    0  503  0.16616144828E+02 -0.80175072981E+02 -0.27886878657E+03  0.29067856598E+03  0.47000000000E+01 0.  1.
         13    1    4    4    0    0  0.68484855016E+02  0.46471233326E+01 -0.10506127185E+03  0.12549757752E+03  0.00000000000E+00 0. -1.
        -14    1    4    4    0    0 -0.15163440706E+02  0.25962653026E+02 -0.51960323720E+02  0.60032195756E+02  0.00000000000E+00 0.  1.
</event>
<event>
12    1  0.8633375E-002  0.1833733E+03  0.7818608E-02  0.1164647E+00
         21   -1    0    0  501  502  0.00000000000E+00  0.00000000000E+00  0.70054405544E+03  0.70054405544E+03  0.00000000000E+00 0. -1.
         21   -1    0    0  502  503 -0.00000000000E+00 -0.00000000000E+00 -0.53477010599E+02  0.53477010599E+02  0.00000000000E+00 0. -1.
         -6    2    1    2    0  503  0.54592522547E+02 -0.30753938619E+02  0.20226638550E+03  0.27301548222E+03  0.17233576116E+03 0.  0.
        -24    2    3    3    0    0 -0.57888373454E+01  0.24824989936E+02  0.61854009796E+02  0.11031129920E+03  0.87709027136E+02 0.  0.
          6    2    1    2  501    0 -0.54592522547E+02  0.30753938619E+02  0.44480065934E+03  0.48100558381E+03  0.17202498903E+03 0.  0.
         24    2    5    5    0    0 -0.55828513822E+02  0.54029782990E+02  0.15783915168E+03  0.19306064206E+03  0.79518383423E+02 0.  0.
          5    1    5    5  501    0  0.12359912744E+01 -0.23275844370E+02  0.28696150766E+03  0.28794494175E+03  0.47000000000E+01 0. -1.
        -13    1    6    6    0    0 -0.40212997615E+01  0.35000231912E+01 -0.94159369778E+01  0.10820392011E+02  0.00000000000E+00 0.  1.
         14    1    6    6    0    0 -0.51807214060E+02  0.50529759799E+02  0.16725508866E+03  0.18224025005E+03  0.00000000000E+00 0. -1.
         -5    1    3    3    0  503  0.60381359893E+02 -0.55578928555E+02  0.14041237570E+03  0.16270418302E+03  0.47000000000E+01 0.  1.
         13    1    4    4    0    0  0.34300029676E+02 -0.97462290829E+01  0.12077203357E+02  0.37647574398E+02  0.00000000000E+00 0. -1.
        -14    1    4    4    0    0 -0.40088867021E+02  0.34571219019E+02  0.49776806439E+02  0.72663724806E+02  0.00000000000E+00 0.  1.
</event>
<event>
12    1  0.8633375E-002  0.1820424E+03  0.7818608E-02  0.1165956E+00
         21   -1    0    0  503  502  0.00000000000E+00  0.00000000000E+00  0.78082789000E+02  0.78082789000E+02  0.00000000000E+00 0.  1.
         21   -1    0    0  501  503 -0.00000000000E+00 -0.00000000000E+00 -0.83006222056E+03  0.83006222056E+03  0.00000000000E+00 0.  1.
          6    2    1    2  501    0  0.21246552957E+01 -0.58274234544E+02 -0.69410818119E+03  0.71758317421E+03  0.17245012076E+03 0.  0.
         24    2    3    3    0    0  0.28359922778E+02  0.69717623288E+01 -0.18887043587E+03  0.20745319209E+03  0.80696311393E+02 0.  0.
         -6    2    1    2    0  502 -0.21246552957E+01  0.58274234544E+02 -0.57871250374E+02  0.19056183535E+03  0.17194281288E+03 0.  0.
        -24    2    5    5    0    0  0.25301905486E+02  0.60316564557E+02  0.22263834355E+02  0.10570837842E+03  0.80001928520E+02 0.  0.
          5    1    3    3  501    0 -0.26235267482E+02 -0.65245996872E+02 -0.50523774531E+03  0.51012998212E+03  0.47000000000E+01 0. -1.
        -11    1    4    4    0    0  0.83637801839E+01 -0.35311863635E+02 -0.10914941493E+03  0.11502380324E+03  0.00000000000E+00 0.  1.
         12    1    4    4    0    0  0.19996142594E+02  0.42283625964E+02 -0.79721020947E+02  0.92429388855E+02  0.00000000000E+00 0. -1.
         -5    1    5    5    0  502 -0.27426560781E+02 -0.20423300133E+01 -0.80135084729E+02  0.84853456928E+02  0.47000000000E+01 0.  1.
         11    1    6    6    0    0  0.28703717878E+01 -0.36050375709E+01 -0.23505392962E+02  0.23952845935E+02  0.00000000000E+00 0. -1.
        -12    1    6    6    0    0  0.22431533698E+02  0.63921602128E+02  0.45769227317E+02  0.81755532485E+02  0.00000000000E+00 0.  1.
</event>
<event>
12    1  0.8633375E-002  0.6828867E+03  0.7818608E-02  0.9746969E-01
         21   -1    0    0  503  502  0.00000000000E+00  0.00000000000E+00  0.88159232037E+03  0.88159232037E+03  0.00000000000E+00 0. -1.
         21   -1    0    0  501  503 -0.00000000000E+00 -0.00000000000E+00 -0.91701505851E+03  0.91701505851E+03  0.00000000000E+00 0.  1.
          6    2    1    2  501    0  0.37434299264E+03  0.54462128738E+03 -0.60273747006E+03  0.91083842915E+03  0.17201500925E+03 0.  0.
         24    2    3    3    0    0  0.34723040464E+03  0.45388243696E+03 -0.45489272117E+03  0.73520018965E+03  0.83747899053E+02 0.  0.
         -6    2    1    2    0  502 -0.37434299264E+03 -0.54462128738E+03  0.56731473192E+03  0.88776894972E+03  0.17187984244E+03 0.  0.
        -24    2    5    5    0    0 -0.15027254311E+03 -0.14322090311E+03  0.17604744254E+03  0.28407861804E+03  0.81325856264E+02 0.  0.
          5    1    3    3  501    0  0.27112587999E+02  0.90738850411E+02 -0.14784474889E+03  0.17563823950E+03  0.47000000000E+01 0. -1.
        -11    1    4    4    0    0  0.27013348448E+03  0.40210549064E+03 -0.39006800254E+03  0.62194370456E+03  0.00000000000E+00 0.  1.
         12    1    4    4    0    0  0.77096920155E+02  0.51776946321E+02 -0.64824718637E+02  0.11325648509E+03  0.00000000000E+00 0. -1.
         -5    1    5    5    0  502 -0.22407044953E+03 -0.40140038426E+03  0.39126728938E+03  0.60369033169E+03  0.47000000000E+01 0.  1.
         11    1    6    6    0    0 -0.85837013628E+02 -0.78336081127E+02  0.45739535471E+02  0.12488650696E+03  0.00000000000E+00 0. -1.
        -12    1    6    6    0    0 -0.64435529483E+02 -0.64884821988E+02  0.13030790707E+03  0.15919211108E+03  0.00000000000E+00 0.  1.
</event>
<event>
12    1  0.8633375E-002  0.1825176E+03  0.7818608E-02  0.1165597E+00
         21   -1    0    0  501  502  0.00000000000E+00  0.00000000000E+00  0.17871603186E+03  0.17871603186E+03  0.00000000000E+00 0.  1.
         21   -1    0    0  502  503 -0.00000000000E+00 -0.00000000000E+00 -0.61509770450E+03  0.61509770450E+03  0.00000000000E+00 0. -1.
         -6    2    1    2    0  503 -0.52470414430E+02 -0.29642957906E+02 -0.55004669435E+03  0.57953778208E+03  0.17228123969E+03 0.  0.
        -24    2    3    3    0    0 -0.85486635632E+02 -0.60704928210E+02 -0.45965558380E+03  0.47830755079E+03  0.80633766118E+02 0.  0.
          6    2    1    2  501    0  0.52470414430E+02  0.29642957906E+02  0.11366502171E+03  0.21427595428E+03  0.17135518106E+03 0.  0.
         24    2    5    5    0    0  0.95348423433E+02  0.14561166088E+02  0.11479212299E+03  0.16856660668E+03  0.77033239434E+02 0.  0.
          5    1    5    5  501    0 -0.42878009003E+02  0.15081791818E+02 -0.11271012798E+01  0.45709347598E+02  0.47000000000E+01 0. -1.
        -13    1    6    6    0    0  0.61961577581E+02  0.59606820655E+01  0.11853679796E+03  0.13388703932E+03  0.00000000000E+00 0.  1.
         14    1    6    6    0    0  0.33386845852E+02  0.86004840225E+01 -0.37446749737E+01  0.34679567356E+02  0.00000000000E+00 0. -1.
         -5    1    3    3    0  503  0.33016221203E+02  0.31061970304E+02 -0.90391110549E+02  0.10123023129E+03  0.47000000000E+01 0.  1.
         11    1    4    4    0    0 -0.56678724307E+02  0.32611544293E+01 -0.27444962776E+03  0.28026007760E+03  0.00000000000E+00 0. -1.
        -12    1    4    4    0    0 -0.28807911326E+02 -0.63966082640E+02 -0.18520595604E+03  0.19804747319E+03  0.00000000000E+00 0.  1.
</event>
<event>
12    1  0.8633375E-002  0.2368745E+03  0.7818608E-02  0.1121998E+00
         21   -1    0    0  503  502  0.00000000000E+00  0.00000000000E+00  0.25418959212E+03  0.25418959212E+03  0.00000000000E+00 0. -1.
         21   -1    0    0  501  503 -0.00000000000E+00 -0.00000000000E+00 -0.32322920064E+03  0.32322920064E+03  0.00000000000E+00 0.  1.
          6    2    1    2  501    0  0.11541733891E+03  0.11328721910E+03 -0.19751912457E+03  0.30794430607E+03  0.17222292222E+03 0.  0.
         24    2    3    3    0    0  0.50936910497E+02  0.13210110640E+03 -0.10717957779E+03  0.19527216348E+03  0.81231057936E+02 0.  0.
         -6    2    1    2    0  502 -0.11541733891E+03 -0.11328721910E+03  0.12847951605E+03  0.26947448668E+03  0.17307327002E+03 0.  0.
        -24    2    5    5    0    0 -0.18713332718E+01 -0.78131473426E+01  0.53424122089E+02  0.97216315987E+02  0.80822819262E+02 0.  0.
          5    1    3    3  501    0  0.64480428414E+02 -0.18813887299E+02 -0.90339546779E+02  0.11267214259E+03  0.47000000000E+01 0. -1.
        -13    1    4    4    0    0  0.22139838351E+02  0.47957114073E+02 -0.90499029688E+02  0.10478612316E+03  0.00000000000E+00 0.  1.
         14    1    4    4    0    0  0.28797072145E+02  0.84143992323E+02 -0.16680548104E+02  0.90486040323E+02  0.00000000000E+00 0. -1.
         -5    1    5    5    0  502 -0.11354600564E+03 -0.10547407176E+03  0.75055393961E+02  0.17225817070E+03  0.47000000000E+01 0.  1.
         11    1    6    6    0    0 -0.42502975061E+01  0.96183184004E+01  0.71337555399E+02  0.72108417594E+02  0.00000000000E+00 0. -1.
        -12    1    6    6    0    0  0.23789642343E+01 -0.17431465743E+02 -0.17913433309E+02  0.25107898393E+02  0.00000000000E+00 0.  1.
</event>
<event>
12    1  0.8633375E-002  0.2415900E+03  0.7818608E-02  0.1120160E+00
         21   -1    0    0  503  502  0.00000000000E+00  0.00000000000E+00  0.55558646236E+02  0.55558646236E+02  0.00000000000E+00 0. -1.
         21   -1    0    0  501  503 -0.00000000000E+00 -0.00000000000E+00 -0.10185489612E+04  0.10185489612E+04  0.00000000000E+00 0.  1.
          6    2    1    2  501    0  0.16576507011E+03  0.40732397546E+02 -0.45459580201E+03  0.51480392267E+03  0.17096358942E+03 0.  0.
         24    2    3    3    0    0  0.27667422253E+02 -0.25058286257E+02 -0.19080939865E+03  0.20983715232E+03  0.78930348508E+02 0.  0.
         -6    2    1    2    0  502 -0.16576507011E+03 -0.40732397546E+02 -0.50839451297E+03  0.55930368479E+03  0.15880316218E+03 0.  0.
        -24    2    5    5    0    0 -0.84492408730E+02 -0.29473490707E+02 -0.15281481445E+03  0.19435023505E+03  0.80074918439E+02 0.  0.
          5    1    3    3  501    0  0.13809764786E+03  0.65790683803E+02 -0.26378640337E+03  0.30496677035E+03  0.47000000000E+01 0. -1.
        -13    1    4    4    0    0  0.39501400767E+02 -0.40859455022E+02 -0.17658491284E+03  0.18550495188E+03  0.00000000000E+00 0.  1.
         14    1    4    4    0    0 -0.11833978514E+02  0.15801168764E+02 -0.14224485804E+02  0.24332200438E+02  0.00000000000E+00 0. -1.
         -5    1    5    5    0  502 -0.81272661381E+02 -0.11258906840E+02 -0.35557969852E+03  0.36495344973E+03  0.47000000000E+01 0.  1.
         11    1    6    6    0    0 -0.91706930319E+02 -0.41330032007E+02 -0.10868959817E+03  0.14809375870E+03  0.00000000000E+00 0. -1.
        -12    1    6    6    0    0  0.72145215897E+01  0.11856541300E+02 -0.44125216280E+02  0.46256476358E+02  0.00000000000E+00 0.  1.
</event>
<event>
12    1  0.8633375E-002  0.6238582E+03  0.7818608E-02  0.9857214E-01
         21   -1    0    0  503  502  0.00000000000E+00  0.00000000000E+00  0.41379845119E+03  0.41379845119E+03  0.00000000000E+00 0. -1.
         21   -1    0    0  501  503 -0.00000000000E+00 -0.00000000000E+00 -0.99056589006E+03  0.99056589006E+03  0.00000000000E+00 0. -1.
          6    2    1    2  501    0  0.50405180828E+03 -0.32452921931E+03 -0.13014134483E+03  0.63728783853E+03  0.17266030201E+03 0.  0.
         24    2    3    3    0    0  0.22789112330E+03 -0.22387698501E+03 -0.50835038832E+02  0.33280930666E+03  0.78246820591E+02 0.  0.
         -6    2    1    2    0  502 -0.50405180828E+03  0.32452921931E+03 -0.44662609405E+03  0.76707650272E+03  0.17188383730E+03 0.  0.
        -24    2    5    5    0    0 -0.12461130271E+03  0.12663626605E+03 -0.12758832215E+03  0.23327512757E+03  0.81078878574E+02 0.  0.
          5    1    3    3  501    0  0.27616068498E+03 -0.10065223430E+03 -0.79306305994E+02  0.30447853187E+03  0.47000000000E+01 0. -1.
        -13    1    4    4    0    0  0.13876356762E+03 -0.92579096544E+02 -0.21774840291E+01  0.16682613181E+03  0.00000000000E+00 0.  1.
         14    1    4    4    0    0  0.89127555678E+02 -0.13129788847E+03 -0.48657554803E+02  0.16598317486E+03  0.00000000000E+00 0. -1.
         -5    1    5    5    0  502 -0.37944050557E+03  0.19789295326E+03 -0.31903777190E+03  0.53380137515E+03  0.47000000000E+01 0.  1.
         11    1    6    6    0    0 -0.81107894449E+02  0.12810161888E+03 -0.10279586239E+03  0.18318161651E+03  0.00000000000E+00 0. -1.
        -12    1    6    6    0    0 -0.43503408261E+02 -0.14653528334E+01 -0.24792459763E+02  0.50093511060E+02  0.00000000000E+00 0.  1.
</event>
<event>
12    1  0.8633375E-002  0.2618190E+03  0.7818608E-02  0.1106098E+00
         21   -1    0    0  503  502  0.00000000000E+00  0.00000000000E+00  0.65636249526E+03  0.65636249526E+03  0.00000000000E+00 0.  1.
         21   -1    0    0  501  503 -0.00000000000E+00 -0.00000000000E+00 -0.10454477119E+03  0.10454477119E+03  0.00000000000E+00 0.  1.
          6    2    1    2  501    0 -0.74958822470E+02  0.18222672712E+03  0.29325257614E+03  0.39293288821E+03  0.17197027673E+03 0.  0.
         24    2    3    3    0    0  0.16832452833E+02  0.13084509603E+03  0.19693232081E+03  0.25022552391E+03  0.80166721383E+02 0.  0.
         -6    2    1    2    0  502  0.74958822470E+02 -0.18222672712E+03  0.25856514793E+03  0.36797437824E+03  0.17240592267E+03 0.  0.
        -24    2    5    5    0    0  0.64907032026E+02 -0.30831279246E+02  0.12997668220E+03  0.16903040711E+03  0.80708425999E+02 0.  0.
          5    1    3    3  501    0 -0.91791275303E+02  0.51381631093E+02  0.96320255337E+02  0.14270736429E+03  0.47000000000E+01 0. -1.
        -11    1    4    4    0    0 -0.61118898613E+01  0.63664066768E+02  0.33851393082E+02  0.72362873138E+02  0.00000000000E+00 0.  1.
         12    1    4    4    0    0  0.22944342694E+02  0.67181029259E+02  0.16308092772E+03  0.17786265078E+03  0.00000000000E+00 0. -1.
         -5    1    5    5    0  502  0.10051790445E+02 -0.15139544787E+03  0.12858846574E+03  0.19894397113E+03  0.47000000000E+01 0.  1.
         13    1    6    6    0    0  0.10950082240E+02 -0.32829590574E+01  0.10140671294E+03  0.10204902523E+03  0.00000000000E+00 0. -1.
        -14    1    6    6    0    0  0.53956949786E+02 -0.27548320189E+02  0.28569969256E+02  0.66981381881E+02  0.00000000000E+00 0.  1.
</event>
<event>
12    1  0.8633375E-002  0.2059492E+03  0.7818608E-02  0.1147818E+00
         21   -1    0    0  501  502  0.00000000000E+00  0.00000000000E+00  0.34147295721E+03  0.34147295721E+03  0.00000000000E+00 0.  1.
         21   -1    0    0  502  503 -0.00000000000E+00 -0.00000000000E+00 -0.12308315889E+03  0.12308315889E+03  0.00000000000E+00 0.  1.
         -6    2    1    2    0  503  0.19756946107E+02 -0.82485799001E+02  0.16944693647E+03  0.26669709141E+03  0.18767213521E+03 0.  0.
        -24    2    3    3    0    0  0.43323356466E+02  0.23254376293E+02  0.50847872668E+02  0.10599803011E+03  0.78945531859E+02 0.  0.
          6    2    1    2  501    0 -0.19756946107E+02  0.82485799001E+02  0.48942861846E+02  0.19785902469E+03  0.17192598980E+03 0.  0.
         24    2    5    5    0    0 -0.48076622958E+02 -0.10641196423E+02  0.11825715486E+02  0.93578566656E+02  0.78692463770E+02 0.  0.
          5    1    5    5  501    0  0.28319676851E+02  0.93126995424E+02  0.37117146360E+02  0.10428045803E+03  0.47000000000E+01 0. -1.
        -11    1    6    6    0    0 -0.15271274760E+02  0.32057210506E+02  0.17219075585E+02  0.39463567277E+02  0.00000000000E+00 0.  1.
         12    1    6    6    0    0 -0.32805348198E+02 -0.42698406929E+02 -0.53933600988E+01  0.54114999379E+02  0.00000000000E+00 0. -1.
         -5    1    3    3    0  503 -0.23566410359E+02 -0.10574017529E+03  0.11859906380E+03  0.16069906130E+03  0.47000000000E+01 0.  1.
         13    1    4    4    0    0  0.22898745979E+02  0.52388213590E+02  0.35099877363E+02  0.67088589801E+02  0.00000000000E+00 0. -1.
        -14    1    4    4    0    0  0.20424610487E+02 -0.29133837297E+02  0.15747995305E+02  0.38909440311E+02  0.00000000000E+00 0.  1.
</event>
<event>
12    1  0.8633375E-002  0.2957459E+03  0.7818608E-02  0.1087408E+00
         21   -1    0    0  501  502  0.00000000000E+00  0.00000000000E+00  0.13110818751E+04  0.13110818751E+04  0.00000000000E+00 0. -1.
         21   -1    0    0  502  503 -0.00000000000E+00 -0.00000000000E+00 -0.73383451433E+02  0.73383451433E+02  0.00000000000E+00 0.  1.
         -6    2    1    2    0  503  0.23998450095E+03 -0.17480502588E+02  0.40937404055E+03  0.50492741465E+03  0.17165797483E+03 0.  0.
        -24    2    3    3    0    0  0.89455351850E+02  0.29563944268E+02  0.11423917929E+03  0.17026507581E+03  0.84043555254E+02 0.  0.
          6    2    1    2  501    0 -0.23998450095E+03  0.17480502588E+02  0.82832438311E+03  0.87953791187E+03  0.17195210410E+03 0.  0.
         24    2    5    5    0    0 -0.12322604985E+03  0.59891359022E+02  0.33482117134E+03  0.37061873688E+03  0.80507124558E+02 0.  0.
          5    1    5    5  501    0 -0.11675845110E+03 -0.42410856434E+02  0.49350321177E+03  0.50891917499E+03  0.47000000000E+01 0. -1.
        -11    1    6    6    0    0 -0.50675960626E+02  0.35838913614E+02  0.24470391852E+03  0.25245294305E+03  0.00000000000E+00 0.  1.
         12    1    6    6    0    0 -0.72550089228E+02  0.24052445408E+02  0.90117252813E+02  0.11816579383E+03  0.00000000000E+00 0. -1.
         -5    1    3    3    0  503  0.15052914910E+03 -0.47044446856E+02  0.29513486126E+03  0.33466233884E+03  0.47000000000E+01 0.  1.
         13    1    4    4    0    0  0.73835443897E+02 -0.73216314013E+01  0.36225262592E+02  0.82568448645E+02  0.00000000000E+00 0. -1.
        -14    1    4    4    0    0  0.15619907952E+02  0.36885575669E+02  0.78013916701E+02  0.87696627164E+02  0.00000000000E+00 0.  1.
</event>
<event>
12    1  0.8633375E-002  0.2647984E+03  0.7818608E-02  0.1104353E+00
         21   -1    0    0  501  502  0.00000000000E+00  0.00000000000E+00  0.40041670323E+03  0.40041670323E+03  0.00000000000E+00 0. -1.
         21   -1    0    0  502  503 -0.00000000000E+00 -0.00000000000E+00 -0.33651034165E+03  0.33651034165E+03  0.00000000000E+00 0. -1.
         -6    2    1    2    0  503 -0.12992125237E+02  0.18603685700E+03 -0.22342332698E+03  0.34646235852E+03  0.18798849792E+03 0.  0.
        -24    2    3    3    0    0 -0.38332932679E+02  0.20244775409E+03 -0.15163603764E+03  0.26844326485E+03  0.81325221629E+02 0.  0.
          6    2    1    2  501    0  0.12992125237E+02 -0.18603685700E+03  0.28732968856E+03  0.39046468636E+03  0.18741881945E+03 0.  0.
         24    2    5    5    0    0 -0.59166245372E+02 -0.14130399532E+03  0.15027192400E+03  0.22917370648E+03  0.80445465476E+02 0.  0.
          5    1    5    5  501    0  0.72158370610E+02 -0.44732861686E+02  0.13705776456E+03  0.16129097988E+03  0.47000000000E+01 0. -1.
        -11    1    6    6    0    0 -0.63147497718E+02 -0.14918521674E+03  0.13233121660E+03  0.20917788183E+03  0.00000000000E+00 0.  1.
         12    1    6    6    0    0  0.39812523456E+01  0.78812214213E+01  0.17940707403E+02  0.19995824650E+02  0.00000000000E+00 0. -1.
         -5    1    3    3    0  503  0.25340807442E+02 -0.16410897084E+02 -0.71787289346E+02  0.78019093666E+02  0.47000000000E+01 0.  1.
         13    1    4    4    0    0 -0.42933174744E+02  0.67445854323E+02 -0.88719551319E+02  0.11942930773E+03  0.00000000000E+00 0. -1.
        -14    1    4    4    0    0  0.46002420645E+01  0.13500189976E+03 -0.62916486316E+02  0.14901395712E+03  0.00000000000E+00 0.  1.
</event>
<event>
12    1  0.8633375E-002  0.2199848E+03  0.7818608E-02  0.1134078E+00
         21   -1    0    0  503  502  0.00000000000E+00  0.00000000000E+00  0.62607486049E+02  0.62607486049E+02  0.00000000000E+00 0. -1.
         21   -1    0    0  501  503 -0.00000000000E+00 -0.00000000000E+00 -0.81830335830E+03  0.81830335830E+03  0.00000000000E+00 0.  1.
          6    2    1    2  501    0 -0.80325914417E+02 -0.10957219343E+03 -0.48618737435E+03  0.53363982795E+03  0.17301729653E+03 0.  0.
         24    2    3    3    0    0 -0.12477583488E+02 -0.87143273519E+02 -0.15594833049E+03  0.19572509234E+03  0.78986010009E+02 0.  0.
         -6    2    1    2    0  502  0.80325914417E+02  0.10957219343E+03 -0.26950849790E+03  0.34727101639E+03  0.17176731438E+03 0.  0.
        -24    2    5    5    0    0  0.14160324672E+02  0.37557205076E+02 -0.38332010893E+02  0.96215839276E+02  0.78594441411E+02 0.  0.
          5    1    3    3  501    0 -0.67848330928E+02 -0.22428919910E+02 -0.33023904386E+03  0.33791473562E+03  0.47000000000E+01 0. -1.
        -13    1    4    4    0    0 -0.17054269039E+02 -0.90762127113E+02 -0.16252680226E+03  0.18693200171E+03  0.00000000000E+00 0.  1.
         14    1    4    4    0    0  0.45766855507E+01  0.36188535938E+01  0.65784717671E+01  0.87930906258E+01  0.00000000000E+00 0. -1.
         -5    1    5    5    0  502  0.66165589745E+02  0.72014988353E+02 -0.23117648701E+03  0.25105517712E+03  0.47000000000E+01 0.  1.
         13    1    6    6    0    0  0.46923624440E+02  0.20400280972E+02 -0.19978438489E+02  0.54928462556E+02  0.00000000000E+00 0. -1.
        -14    1    6    6    0    0 -0.32763299769E+02  0.17156924105E+02 -0.18353572404E+02  0.41287376720E+02  0.00000000000E+00 0.  1.
</event>
<event>
12    1  0.8633375E-002  0.1978326E+03  0.7818608E-02  0.1151941E+00
         21   -1    0    0  503  502  0.00000000000E+00  0.00000000000E+00  0.49067666586E+02  0.49067666586E+02  0.00000000000E+00 0.  1.
         21   -1    0    0  501  503 -0.00000000000E+00 -0.00000000000E+00 -0.10877480091E+04  0.10877480091E+04  0.00000000000E+00 0.  1.
          6    2    1    2  501    0  0.97298484067E+02  0.15583129092E+02 -0.81467586438E+03  0.83795828720E+03  0.16960984103E+03 0.  0.
         24    2    3    3    0    0  0.10972679015E+03  0.16170557296E+02 -0.39282921588E+03  0.41590201996E+03  0.79738585154E+02 0.  0.
         -6    2    1    2    0  502 -0.97298484067E+02 -0.15583129092E+02 -0.22400447811E+03  0.29885738846E+03  0.17154563098E+03 0.  0.
        -24    2    5    5    0    0 -0.11137742928E+03 -0.45999614639E+02 -0.22208003264E+03  0.26495793741E+03  0.79763847676E+02 0.  0.
          5    1    3    3  501    0 -0.12428306080E+02 -0.58742820404E+00 -0.42184664850E+03  0.42205626724E+03  0.47000000000E+01 0. -1.
        -11    1    4    4    0    0  0.30808183359E+02 -0.16336001895E+02 -0.22427614778E+03  0.22697092233E+03  0.00000000000E+00 0.  1.
         12    1    4    4    0    0  0.78918606789E+02  0.32506559191E+02 -0.16855306810E+03  0.18893109764E+03  0.00000000000E+00 0. -1.
         -5    1    5    5    0  502  0.14078945212E+02  0.30416485548E+02 -0.19244454664E+01  0.33899451053E+02  0.47000000000E+01 0.  1.
         13    1    6    6    0    0 -0.11537432972E+02 -0.69329527397E+01 -0.10635486455E+03  0.10720324345E+03  0.00000000000E+00 0. -1.
        -14    1    6    6    0    0 -0.99839996306E+02 -0.39066661900E+02 -0.11572516810E+03  0.15775469396E+03  0.00000000000E+00 0.  1.
</event>
<event>
12    1  0.8633375E-002  0.2268954E+03  0.7818608E-02  0.1129063E+00
         21   -1    0    0  501  502  0.00000000000E+00  0.00000000000E+00  0.15137356407E+03  0.15137356407E+03  0.00000000000E+00 0. -1.
         21   -1    0    0  502  503 -0.00000000000E+00 -0.00000000000E+00 -0.58010730426E+03  0.58010730426E+03  0.00000000000E+00 0. -1.
         -6    2    1    2    0  503 -0.41258742486E+02  0.13851669284E+03  0.21440720745E+02  0.22790616171E+03  0.17490670659E+03 0.  0.
        -24    2    3    3    0    0 -0.86283860402E+02  0.12918761149E+03  0.39882060641E+02  0.17814205798E+03  0.77522064819E+02 0.  0.
          6    2    1    2  501    0  0.41258742486E+02 -0.13851669284E+03 -0.45017446094E+03  0.50357470663E+03  0.17332421022E+03 0.  0.
         24    2    5    5    0    0 -0.26091793579E+02 -0.73512464928E+02 -0.14617162683E+03  0.18545294142E+03  0.83317373931E+02 0.  0.
          5    1    5    5  501    0  0.67350536065E+02 -0.65004227911E+02 -0.30400283410E+03  0.31812176521E+03  0.47000000000E+01 0. -1.
        -13    1    6    6    0    0 -0.25160948559E+02 -0.68940300742E+02 -0.15719523959E+03  0.17348251136E+03  0.00000000000E+00 0.  1.
         14    1    6    6    0    0 -0.93084501999E+00 -0.45721641865E+01  0.11023612752E+02  0.11970430063E+02  0.00000000000E+00 0. -1.
         -5    1    3    3    0  503  0.45025117916E+02  0.93290813533E+01 -0.18441339895E+02  0.49764103723E+02  0.47000000000E+01 0. -1.
         11    1    4    4    0    0 -0.50570801833E+02  0.79226176854E+02  0.62302529314E+02  0.11276434834E+03  0.00000000000E+00 0. -1.
        -12    1    4    4    0    0 -0.35713058569E+02  0.49961434633E+02 -0.22420468674E+02  0.65377709645E+02  0.00000000000E+00 0.  1.
</event>
<event>
12    1  0.8633375E-002  0.2230901E+03  0.7818608E-02  0.1132090E+00
         21   -1    0    0  501  502  0.00000000000E+00  0.00000000000E+00  0.12353953358E+04  0.12353953358E+04  0.00000000000E+00 0.  1.
         21   -1    0    0  502  503 -0.00000000000E+00 -0.00000000000E+00 -0.19203652991E+03  0.19203652991E+03  0.00000000000E+00 0.  1.
         -6    2    1    2    0  503 -0.48523807223E+02 -0.12877534268E+03 -0.11441700356E+03  0.24835848521E+03  0.17220057411E+03 0.  0.
        -24    2    3    3    0    0 -0.24972819822E+01 -0.10421300187E+03 -0.91308706622E+01  0.13076167662E+03  0.78413373197E+02 0.  0.
          6    2    1    2  501    0  0.48523807223E+02  0.12877534268E+03  0.11577758094E+04  0.11790733805E+04  0.17558918784E+03 0.  0.
         24    2    5    5    0    0 -0.23005262030E+02  0.40602070195E+02  0.75536529295E+03  0.76092598122E+03  0.79081305715E+02 0.  0.
          5    1    5    5  501    0  0.71529069253E+02  0.88173272486E+02  0.40241051649E+03  0.41814739927E+03  0.47000000000E+01 0. -1.
        -13    1    6    6    0    0  0.23059920668E+02  0.12777022697E+02  0.45602978983E+03  0.45679117928E+03  0.00000000000E+00 0.  1.
         14    1    6    6    0    0 -0.46065182698E+02  0.27825047498E+02  0.29933550312E+03  0.30413480194E+03  0.00000000000E+00 0. -1.
         -5    1    3    3    0  503 -0.46026525241E+02 -0.24562340809E+02 -0.10528613290E+03  0.11759680860E+03  0.47000000000E+01 0.  1.
         11    1    4    4    0    0 -0.32040569710E+02 -0.35079804585E+02  0.18042462192E+02  0.50820480508E+02  0.00000000000E+00 0. -1.
        -12    1    4    4    0    0  0.29543287728E+02 -0.69133197287E+02 -0.27173332854E+02  0.79941196109E+02  0.00000000000E+00 0.  1.
</event>
<event>
12    1  0.8633375E-002  0.1933510E+03  0.7818608E-02  0.1155616E+00
         21   -1    0    0  503  502  0.00000000000E+00  0.00000000000E+00  0.14409538400E+04  0.14409538400E+04  0.00000000000E+00 0. -1.
         21   -1    0    0  501  503 -0.00000000000E+00 -0.00000000000E+00 -0.52297195532E+02  0.52297195532E+02  0.00000000000E+00 0. -1.
          6    2    1    2  501    0 -0.86302744489E+02  0.11213103843E+02  0.16403095196E+03  0.25355621777E+03  0.17265776834E+03 0.  0.
         24    2    3    3    0    0 -0.66161476349E+02  0.41181782055E+02  0.18109851301E+03  0.21334199148E+03  0.81515972589E+02 0.  0.
         -6    2    1    2    0  502  0.86302744489E+02 -0.11213103843E+02  0.12246256926E+04  0.12396948178E+04  0.17193387398E+03 0.  0.
        -24    2    5    5    0    0  0.51703887604E+02  0.30761112546E+02  0.40426525970E+03  0.41751950467E+03  0.85279531767E+02 0.  0.
          5    1    3    3  501    0 -0.20141268140E+02 -0.29968678212E+02 -0.17067561054E+02  0.40214226294E+02  0.47000000000E+01 0. -1.
        -11    1    4    4    0    0 -0.72332064120E+02  0.13499955085E+01  0.11146700117E+03  0.13288582444E+03  0.00000000000E+00 0.  1.
         12    1    4    4    0    0  0.61705877704E+01  0.39831786547E+02  0.69631511844E+02  0.80456167039E+02  0.00000000000E+00 0. -1.
         -5    1    5    5    0  502  0.34598856885E+02 -0.41974216389E+02  0.82036043285E+03  0.82217531314E+03  0.47000000000E+01 0.  1.
         13    1    6    6    0    0 -0.99282744527E+01  0.37047280887E+02  0.21436766745E+03  0.21777182670E+03  0.00000000000E+00 0. -1.
        -14    1    6    6    0    0  0.61632162057E+02 -0.62861683406E+01  0.18989759225E+03  0.19974767797E+03  0.00000000000E+00 0.  1.
</event>
<event>
12    1  0.8633375E-002  0.1795558E+03  0.7818608E-02  0.1168542E+00
         21   -1    0    0  501  502  0.00000000000E+00  0.00000000000E+00  0.11285381849E+04  0.11285381849E+04  0.00000000000E+00 0. -1.
         21   -1    0    0  502  503 -0.00000000000E+00 -0.00000000000E+00 -0.36533354397E+02  0.36533354397E+02  0.00000000000E+00 0. -1.
         -6    2    1    2    0  503 -0.47955943518E+02  0.31659223336E+01  0.26908377519E+03  0.32278931515E+03  0.17168887070E+03 0.  0.
        -24    2    3    3    0    0 -0.81821276208E+02 -0.20330982785E+02  0.11240406692E+03  0.16071036435E+03  0.78006902568E+02 0.  0.
          6    2    1    2  501    0  0.47955943518E+02 -0.31659223336E+01  0.82292105534E+03  0.84228222417E+03  0.17300429547E+03 0.  0.
         24    2    5    5    0    0 -0.36740314235E+02  0.51479636090E+01  0.52613709840E+03  0.53350174572E+03  0.80171779035E+02 0.  0.
          5    1    5    5  501    0  0.84696257753E+02 -0.83138859425E+01  0.29678395694E+03  0.30878047845E+03  0.47000000000E+01 0. -1.
        -13    1    6    6    0    0 -0.48198127826E+02  0.21508445724E+02  0.20303759703E+03  0.20978545844E+03  0.00000000000E+00 0.  1.
         14    1    6    6    0    0  0.11457813591E+02 -0.16360482115E+02  0.32309950137E+03  0.32371628728E+03  0.00000000000E+00 0. -1.
         -5    1    3    3    0  503  0.33865332690E+02  0.23496905118E+02  0.15667970828E+03  0.16207895080E+03  0.47000000000E+01 0.  1.
         13    1    4    4    0    0 -0.19053636692E+02  0.24327219200E+02  0.60160289007E+02  0.67632204153E+02  0.00000000000E+00 0. -1.
        -14    1    4    4    0    0 -0.62767639517E+02 -0.44658201985E+02  0.52243777908E+02  0.93078160194E+02  0.00000000000E+00 0.  1.
</event>
<event>
12    1  0.8633375E-002  0.1976892E+03  0.7818608E-02  0.1152823E+00
         21   -1    0    0  503  502  0.00000000000E+00  0.00000000000E+00  0.16749005270E+03  0.16749005270E+03  0.00000000000E+00 0. -1.
         21   -1    0    0  501  503 -0.00000000000E+00 -0.00000000000E+00 -0.51652237679E+03  0.51652237679E+03  0.00000000000E+00 0. -1.
          6    2    1    2  501    0 -0.43176481044E+02 -0.85127952162E+02 -0.43144656000E+03  0.47458103328E+03  0.17311859015E+03 0.  0.
         24    2    3    3    0    0 -0.60097786955E+02  0.10714695384E+02 -0.20430269771E+03  0.22742001722E+03  0.79080485876E+02 0.  0.
         -6    2    1    2    0  502  0.43176481044E+02  0.85127952162E+02  0.82414235910E+02  0.20943139621E+03  0.16720773511E+03 0.  0.
        -24    2    5    5    0    0  0.33662358880E+02  0.10122960134E+03  0.11265113620E+03  0.17356857749E+03  0.77815075746E+02 0.  0.
          5    1    3    3  501    0  0.16921305911E+02 -0.95842647546E+02 -0.22714386229E+03  0.24716101605E+03  0.47000000000E+01 0. -1.
        -11    1    4    4    0    0 -0.37941684869E+02 -0.20859855117E+02 -0.41021252778E+02  0.59644347475E+02  0.00000000000E+00 0.  1.
         12    1    4    4    0    0 -0.22156102086E+02  0.31574550501E+02 -0.16328144494E+03  0.16777566975E+03  0.00000000000E+00 0. -1.
         -5    1    5    5    0  502  0.95141221638E+01 -0.16101649180E+02 -0.30236900289E+02  0.35862818712E+02  0.47000000000E+01 0.  1.
         11    1    6    6    0    0  0.10089887202E+02  0.42989397496E+02  0.10022548526E+03  0.10952187917E+03  0.00000000000E+00 0. -1.
        -12    1    6    6    0    0  0.23572471678E+02  0.58240203846E+02  0.12425650937E+02  0.64046698325E+02  0.00000000000E+00 0.  1.
</event>
<event>
12    1  0.8633375E-002  0.1745136E+03  0.7818608E-02  0.1176711E+00
         21   -1    0    0  503  502  0.00000000000E+00  0.00000000000E+00  0.84138103920E+02  0.84138103920E+02  0.00000000000E+00 0.  1.
         21   -1    0    0  501  503 -0.00000000000E+00 -0.00000000000E+00 -0.37904565818E+03  0.37904565818E+03  0.00000000000E+00 0.  1.
          6    2    1    2  501    0 -0.41295401892E+02  0.19370234593E+02 -0.22123796408E+03  0.27375776718E+03  0.15464980484E+03 0.  0.
         24    2    3    3    0    0  0.14518615803E+02  0.52292165988E+02 -0.12759761875E+03  0.15978556701E+03  0.79404120082E+02 0.  0.
         -6    2    1    2    0  502  0.41295401892E+02 -0.19370234593E+02 -0.73669590183E+02  0.18942599492E+03  0.16844727017E+03 0.  0.
        -24    2    5    5    0    0  0.24573798911E+02 -0.30938789849E+02  0.23719192101E+02  0.89826254001E+02  0.77104315856E+02 0.  0.
          5    1    3    3  501    0 -0.55814017695E+02 -0.32921931395E+02 -0.93640345331E+02  0.11397220017E+03  0.47000000000E+01 0. -1.
        -13    1    4    4    0    0 -0.30668033139E+02  0.12046968263E+02 -0.64103377580E+02  0.72075659679E+02  0.00000000000E+00 0.  1.
         14    1    4    4    0    0  0.45186648942E+02  0.40245197725E+02 -0.63494241168E+02  0.87709907331E+02  0.00000000000E+00 0. -1.
         -5    1    5    5    0  502  0.16721602981E+02  0.11568555256E+02 -0.97388782283E+02  0.99599740921E+02  0.47000000000E+01 0.  1.
         11    1    6    6    0    0 -0.21523221304E+02 -0.33129928485E+02  0.17682325582E+02  0.43284013847E+02  0.00000000000E+00 0. -1.
        -12    1    6    6    0    0  0.46097020215E+02  0.21911386361E+01  0.60368665190E+01  0.46542240154E+02  0.00000000000E+00 0.  1.
</event>
<event>
12    1  0.8633375E-002  0.2133691E+03  0.7818608E-02  0.1138998E+00
         21   -1    0    0  501  502  0.00000000000E+00  0.00000000000E+00  0.15696010748E+03  0.15696010748E+03  0.00000000000E+00 0.  1.
         21   -1    0    0  502  503 -0.00000000000E+00 -0.00000000000E+00 -0.34682341866E+03  0.34682341866E+03  0.00000000000E+00 0.  1.
         -6    2    1    2    0  503  0.95250218268E+02  0.83368617765E+02 -0.19723003042E+03  0.29028731639E+03  0.17130122781E+03 0.  0.
        -24    2    3    3    0    0  0.83984933583E+02  0.54236281592E+02 -0.21764257512E+03  0.25267931683E+03  0.80520204534E+02 0.  0.
          6    2    1    2  501    0 -0.95250218268E+02 -0.83368617765E+02  0.73667192475E+01  0.21349620974E+03  0.17176563252E+03 0.  0.
         24    2    5    5    0    0 -0.18222144084E+02 -0.86893303582E+02  0.44432703956E+02  0.12781234402E+03  0.80493710072E+02 0.  0.
          5    1    5    5  501    0 -0.77028074184E+02  0.35246858167E+01 -0.37065984708E+02  0.85683865721E+02  0.47000000000E+01 0. -1.
        -13    1    6    6    0    0 -0.29524560170E+02 -0.83109504546E+02  0.61119806427E+02  0.10730573208E+03  0.00000000000E+00 0.  1.
         14    1    6    6    0    0  0.11302416086E+02 -0.37837990361E+01 -0.16687102471E+02  0.20506611944E+02  0.00000000000E+00 0. -1.
         -5    1    3    3    0  503  0.11265284685E+02  0.29132336174E+02  0.20412544698E+02  0.37607999562E+02  0.47000000000E+01 0.  1.
         11    1    4    4    0    0 -0.99756945341E+01 -0.10007073188E+02 -0.30978520232E+02  0.34048857704E+02  0.00000000000E+00 0. -1.
        -12    1    4    4    0    0  0.93960628117E+02  0.64243354780E+02 -0.18666405489E+03  0.21863045913E+03  0.00000000000E+00 0.  1.
</event>
<event>
12    1  0.8633375E-002  0.1856418E+03  0.7818608E-02  0.1163432E+00
         21   -1    0    0  503  502  0.00000000000E+00  0.00000000000E+00  0.10186179030E+04  0.10186179030E+04  0.00000000000E+00 0. -1.
         21   -1    0    0  501  503 -0.00000000000E+00 -0.00000000000E+00 -0.33567547274E+02  0.33567547274E+02  0.00000000000E+00 0. -1.
          6    2    1    2  501    0 -0.16396127280E+02  0.55560409567E+02  0.55053094464E+03  0.57967090134E+03  0.17198325719E+03 0.  0.
         24    2    3    3    0    0 -0.38401620040E+02  0.49732104193E+01  0.48835790732E+03  0.49641897645E+03  0.80242989038E+02 0.  0.
         -6    2    1    2    0  502  0.16396127280E+02 -0.55560409567E+02  0.43451941111E+03  0.47251454896E+03  0.17637201661E+03 0.  0.
        -24    2    5    5    0    0 -0.44091347593E+02  0.14467333810E+02  0.19640674891E+03  0.21701044065E+03  0.79778253028E+02 0.  0.
          5    1    3    3  501    0  0.22005492760E+02  0.50587199147E+02  0.62173037318E+02  0.83251924894E+02  0.47000000000E+01 0. -1.
        -11    1    4    4    0    0  0.11047009335E+02 -0.14080768331E+02  0.29451082688E+02  0.34462598909E+02  0.00000000000E+00 0.  1.
         12    1    4    4    0    0 -0.49448629375E+02  0.19053978751E+02  0.45890682464E+03  0.46195637754E+03  0.00000000000E+00 0. -1.
         -5    1    5    5    0  502  0.60487474873E+02 -0.70027743376E+02  0.23811266221E+03  0.25550410831E+03  0.47000000000E+01 0.  1.
         11    1    6    6    0    0  0.21190738670E+02  0.31683410520E+01  0.23277589483E+02  0.31637508791E+02  0.00000000000E+00 0. -1.
        -12    1    6    6    0    0 -0.65282086263E+02  0.11298992758E+02  0.17312915942E+03  0.18537293186E+03  0.00000000000E+00 0.  1.
</event>
<event>
12    1  0.8633375E-002  0.2386611E+03  0.7818608E-02  0.1120718E+00
         21   -1    0    0  501  502  0.00000000000E+00  0.00000000000E+00  0.45324472168E+03  0.45324472168E+03  0.00000000000E+00 0. -1.
         21   -1    0    0  502  503 -0.00000000000E+00 -0.00000000000E+00 -0.16497962598E+03  0.16497962598E+03  0.00000000000E+00 0. -1.
         -6    2    1    2    0  503  0.16178202099E+03  0.29251174788E+02 -0.68932913527E+01  0.23876059061E+03  0.17300303067E+03 0.  0.
        -24    2    3    3    0    0  0.14563464577E+03  0.73440624647E+02 -0.33498359118E+02  0.18450780418E+03  0.79485938007E+02 0.  0.
          6    2    1    2  501    0 -0.16178202099E+03 -0.29251174788E+02  0.29515838706E+03  0.37946375705E+03  0.17275767978E+03 0.  0.
         24    2    5    5    0    0 -0.13866863430E+03  0.18667737081E+02  0.13298249059E+03  0.20871961468E+03  0.79385516321E+02 0.  0.
          5    1    5    5  501    0 -0.23113386684E+02 -0.47918911869E+02  0.16217589646E+03  0.17074414237E+03  0.47000000000E+01 0. -1.
        -13    1    6    6    0    0 -0.55368532213E+02 -0.25167235991E+02  0.25784638754E+02  0.66059910100E+02  0.00000000000E+00 0.  1.
         14    1    6    6    0    0 -0.83300102091E+02  0.43834973072E+02  0.10719785184E+03  0.14265970458E+03  0.00000000000E+00 0. -1.
         -5    1    3    3    0  503  0.16147375215E+02 -0.44189449859E+02  0.26605067765E+02  0.54252786435E+02  0.47000000000E+01 0.  1.
         13    1    4    4    0    0  0.10303432753E+03  0.30309774165E+02  0.12893707294E+02  0.10817117337E+03  0.00000000000E+00 0. -1.
        -14    1    4    4    0    0  0.42600318241E+02  0.43130850482E+02 -0.46392066411E+02  0.76336630810E+02  0.00000000000E+00 0.  1.
</event>
<event>
12    1  0.8633375E-002  0.2013223E+03  0.7818608E-02  0.1148745E+00
         21   -1    0    0  501  502  0.00000000000E+00  0.00000000000E+00  0.13111559454E+03  0.13111559454E+03  0.00000000000E+00 0. -1.
         21   -1    0    0  502  503 -0.00000000000E+00 -0.00000000000E+00 -0.35059352632E+03  0.35059352632E+03  0.00000000000E+00 0. -1.
         -6    2    1    2    0  503 -0.40954723622E+02  0.96682899390E+02 -0.26184047700E+02  0.20301788153E+03  0.17177247581E+03 0.  0.
        -24    2    3    3    0    0 -0.62327446815E+02  0.12637666442E+03 -0.33204768395E+02  0.16546933299E+03  0.80135956841E+02 0.  0.
          6    2    1    2  501    0  0.40954723622E+02 -0.96682899390E+02 -0.19329388409E+03  0.27869123933E+03  0.17111811369E+03 0.  0.
         24    2    5    5    0    0  0.18028134135E+02 -0.68905450957E+02 -0.30232884459E+02  0.11163377991E+03  0.80467998128E+02 0.  0.
          5    1    5    5  501    0  0.22926589487E+02 -0.27777448433E+02 -0.16306099963E+03  0.16705745941E+03  0.47000000000E+01 0. -1.
        -11    1    6    6    0    0 -0.23119813836E+02 -0.27600048752E+01  0.83074297126E+01  0.24721585854E+02  0.00000000000E+00 0.  1.
         12    1    6    6    0    0  0.41147947971E+02 -0.66145446082E+02 -0.38540314172E+02  0.86912194058E+02  0.00000000000E+00 0. -1.
         -5    1    3    3    0  503  0.21372723193E+02 -0.29693765034E+02  0.70207206941E+01  0.37548548543E+02  0.47000000000E+01 0.  1.
         11    1    4    4    0    0 -0.18588745383E+01  0.90192002108E+02 -0.29467659848E+02  0.94902031779E+02  0.00000000000E+00 0. -1.
        -12    1    4    4    0    0 -0.60468572277E+02  0.36184662316E+02 -0.37371085467E+01  0.70567301213E+02  0.00000000000E+00 0.  1.
</event>
<event>
12    1  0.8633375E-002  0.1909328E+03  0.7818608E-02  0.1157648E+00
         21   -1    0    0  503  502  0.00000000000E+00  0.00000000000E+00  0.32377771281E+03  0.32377771281E+03  0.00000000000E+00 0. -1.
         21   -1    0    0  501  503 -0.00000000000E+00 -0.00000000000E+00 -0.31217948501E+03  0.31217948501E+03  0.00000000000E+00 0. -1.
          6    2    1    2  501    0 -0.77120656641E+02 -0.32856379746E+02 -0.24849313752E+03  0.31337546941E+03  0.17154651866E+03 0.  0.
         24    2    3    3    0    0 -0.11944228763E+03 -0.30550360701E+02 -0.17993625947E+03  0.23263778490E+03  0.80891883879E+02 0.  0.
         -6    2    1    2    0  502  0.77120656641E+02  0.32856379746E+02  0.26009136532E+03  0.32258172841E+03  0.17141853988E+03 0.  0.
        -24    2    5    5    0    0  0.54899782483E+02 -0.44230340865E+02  0.11402045969E+03  0.15586361537E+03  0.79514100618E+02 0.  0.
          5    1    3    3  501    0  0.42321630986E+02 -0.23060190449E+01 -0.68556878049E+02  0.80737684516E+02  0.47000000000E+01 0. -1.
        -11    1    4    4    0    0 -0.32054672717E+02 -0.44974991268E+01 -0.16810830799E+01  0.32412275170E+02  0.00000000000E+00 0.  1.
         12    1    4    4    0    0 -0.87387614911E+02 -0.26052861574E+02 -0.17825517639E+03  0.20022550973E+03  0.00000000000E+00 0. -1.
         -5    1    5    5    0  502  0.22220874159E+02  0.77086720611E+02  0.14607090563E+03  0.16671811304E+03  0.47000000000E+01 0.  1.
         13    1    6    6    0    0  0.15450098469E+02  0.23355393405E+02  0.29226050452E+02  0.40476437205E+02  0.00000000000E+00 0. -1.
        -14    1    6    6    0    0  0.39449684014E+02 -0.67585734270E+02  0.84794409239E+02  0.11538717816E+03  0.00000000000E+00 0.  1.
</event>
<event>
12    1  0.8633375E-002  0.1857248E+03  0.7818608E-02  0.1163191E+00
         21   -1    0    0  503  502  0.00000000000E+00  0.00000000000E+00  0.15834385972E+03  0.15834385972E+03  0.00000000000E+00 0.  1.
         21   -1    0    0  501  503 -0.00000000000E+00 -0.00000000000E+00 -0.23934903876E+03  0.23934903876E+03  0.00000000000E+00 0.  1.
          6    2    1    2  501    0  0.66280507198E+02 -0.23178305789E+02  0.24146440777E+02  0.18728786844E+03  0.17193997664E+03 0.  0.
         24    2    3    3    0    0  0.91735676339E+02 -0.62982330263E+02  0.71301255467E+01  0.13685007522E+03  0.79340381643E+02 0.  0.
         -6    2    1    2    0  502 -0.66280507198E+02  0.23178305789E+02 -0.10515161982E+03  0.21040503004E+03  0.16817572363E+03 0.  0.
        -24    2    5    5    0    0 -0.75689954820E+02 -0.36036801039E+02 -0.40582832571E+02  0.12216566882E+03  0.79056081668E+02 0.  0.
          5    1    3    3  501    0 -0.25455169141E+02  0.39804024475E+02  0.17016315231E+02  0.50437793215E+02  0.47000000000E+01 0. -1.
        -11    1    4    4    0    0  0.51935108139E+02  0.47007404986E+00 -0.22104109190E+02  0.56445266145E+02  0.00000000000E+00 0.  1.
         12    1    4    4    0    0  0.39800568199E+02 -0.63452404313E+02  0.29234234737E+02  0.80404809078E+02  0.00000000000E+00 0. -1.
         -5    1    5    5    0  502  0.94094476218E+01  0.59215106828E+02 -0.64568787249E+02  0.88239361217E+02  0.47000000000E+01 0.  1.
         11    1    6    6    0    0 -0.14437154764E+02 -0.45993712033E+02 -0.35565767154E+02  0.59906400138E+02  0.00000000000E+00 0. -1.
        -12    1    6    6    0    0 -0.61252800056E+02  0.99569109935E+01 -0.50170654163E+01  0.62259268681E+02  0.00000000000E+00 0.  1.
</event>
<event>
12    1  0.8633375E-002  0.3158773E+03  0.7818608E-02  0.1078011E+00
         21   -1    0    0  501  502  0.00000000000E+00  0.00000000000E+00  0.79874998997E+03  0.79874998997E+03  0.00000000000E+00 0. -1.
         21   -1    0    0  502  503 -0.00000000000E+00 -0.00000000000E+00 -0.15102205364E+03  0.15102205364E+03  0.00000000000E+00 0.  1.
         -6    2    1    2    0  503 -0.17143798145E+02  0.26373432640E+03  0.12244014835E+03  0.33877725495E+03  0.17299923064E+03 0.  0.
        -24    2    3    3    0    0 -0.17606866478E+02  0.90183625751E+02 -0.15079986747E+02  0.11729601943E+03  0.71329251175E+02 0.  0.
          6    2    1    2  501    0  0.17143798145E+02 -0.26373432640E+03  0.52528778798E+03  0.61099478866E+03  0.16594477040E+03 0.  0.
         24    2    5    5    0    0 -0.33874799922E+02 -0.81642971733E+02  0.20079345298E+03  0.23539017973E+03  0.85307965941E+02 0.  0.
          5    1    5    5  501    0  0.51018598068E+02 -0.18209135467E+03  0.32449433501E+03  0.37560460892E+03  0.47000000000E+01 0. -1.
        -11    1    6    6    0    0 -0.40369967710E+02 -0.80072898599E+02  0.99774628652E+02  0.13415058668E+03  0.00000000000E+00 0.  1.
         12    1    6    6    0    0  0.64951677880E+01 -0.15700731344E+01  0.10101882432E+03  0.10123959306E+03  0.00000000000E+00 0. -1.
         -5    1    3    3    0  503  0.46306833300E+00  0.17355070065E+03  0.13752013509E+03  0.22148123552E+03  0.47000000000E+01 0.  1.
         13    1    4    4    0    0 -0.40468540747E+01 -0.97171275642E+01  0.87650572218E+01  0.13697657614E+02  0.00000000000E+00 0. -1.
        -14    1    4    4    0    0 -0.13560012403E+02  0.99900753315E+02 -0.23845043968E+02  0.10359836182E+03  0.00000000000E+00 0.  1.
</event>
<event>
12    1  0.8633375E-002  0.2054398E+03  0.7818608E-02  0.1145333E+00
         21   -1    0    0  501  502  0.00000000000E+00  0.00000000000E+00  0.58728447138E+03  0.58728447138E+03  0.00000000000E+00 0. -1.
         21   -1    0    0  502  503 -0.00000000000E+00 -0.00000000000E+00 -0.90831372713E+02  0.90831372713E+02  0.00000000000E+00 0. -1.
         -6    2    1    2    0  503 -0.10917324516E+03 -0.24966849869E+02  0.92328325620E+02  0.22477013455E+03  0.17162445229E+03 0.  0.
        -24    2    3    3    0    0 -0.13536019352E+03  0.13991616685E+02  0.78803676176E+02  0.17569341376E+03  0.78358209085E+02 0.  0.
          6    2    1    2  501    0  0.10917324516E+03  0.24966849869E+02  0.40412477305E+03  0.45334570955E+03  0.17223054062E+03 0.  0.
         24    2    5    5    0    0  0.10513683539E+02 -0.17432071240E+02  0.79235762544E+02  0.11113767814E+03  0.75225413179E+02 0.  0.
          5    1    5    5  501    0  0.98659561617E+02  0.42398921109E+02  0.32488901051E+03  0.34220803140E+03  0.47000000000E+01 0. -1.
        -11    1    6    6    0    0 -0.22404293782E+01  0.28987514952E+02  0.37308694762E+02  0.47299410691E+02  0.00000000000E+00 0.  1.
         12    1    6    6    0    0  0.12754112917E+02 -0.46419586192E+02  0.41927067782E+02  0.63838267452E+02  0.00000000000E+00 0. -1.
         -5    1    3    3    0  503  0.26186948367E+02 -0.38958466554E+02  0.13524649444E+02  0.49076720791E+02  0.47000000000E+01 0.  1.
         11    1    4    4    0    0 -0.93213187363E+02 -0.56147689319E+01  0.11772027968E+02  0.94121222744E+02  0.00000000000E+00 0. -1.
        -12    1    4    4    0    0 -0.42147006161E+02  0.19606385616E+02  0.67031648209E+02  0.81572191014E+02  0.00000000000E+00 0.  1.
</event>
<event>
12    1  0.8633375E-002  0.3056281E+03  0.7818608E-02  0.1082594E+00
         21   -1    0    0  501  502  0.00000000000E+00  0.00000000000E+00  0.78550654870E+03  0.78550654870E+03  0.00000000000E+00 0.  1.
         21   -1    0    0  502  503 -0.00000000000E+00 -0.00000000000E+00 -0.14552715572E+03  0.14552715572E+03  0.00000000000E+00 0. -1.
         -6    2    1    2    0  503 -0.18859772395E+03  0.16639177954E+03  0.11887631800E+03  0.32691701078E+03  0.17172020026E+03 0.  0.
        -24    2    3    3    0    0 -0.66518872455E+02  0.31269620120E+02  0.93246712516E+02  0.14295992169E+03  0.79624369886E+02 0.  0.
          6    2    1    2  501    0  0.18859772395E+03 -0.16639177954E+03  0.52110307499E+03  0.60411669364E+03  0.17364688017E+03 0.  0.
         24    2    5    5    0    0  0.32183281652E+02 -0.16967928804E+02  0.13046399711E+03  0.15755880927E+03  0.80499997580E+02 0.  0.
          5    1    5    5  501    0  0.15641444230E+03 -0.14942385073E+03  0.39063907788E+03  0.44655788437E+03  0.47000000000E+01 0. -1.
        -13    1    6    6    0    0  0.24756914089E+02 -0.12745361878E+02  0.14115420534E+03  0.14387445475E+03  0.00000000000E+00 0.  1.
         14    1    6    6    0    0  0.74263675626E+01 -0.42225669259E+01 -0.10690208229E+02  0.13684354519E+02  0.00000000000E+00 0. -1.
         -5    1    3    3    0  503 -0.12207885150E+03  0.13512215942E+03  0.25629605485E+02  0.18395708909E+03  0.47000000000E+01 0.  1.
         13    1    4    4    0    0  0.71350351264E+01 -0.15142683101E+00 -0.10008968822E+02  0.12292726029E+02  0.00000000000E+00 0. -1.
        -14    1    4    4    0    0 -0.73653907581E+02  0.31421046951E+02  0.10325568134E+03  0.13066719566E+03  0.00000000000E+00 0.  1.
</event>
<event>
12    1  0.8633375E-002  0.2364163E+03  0.7818608E-02  0.1122264E+00
         21   -1    0    0  501  502  0.00000000000E+00  0.00000000000E+00  0.82536268236E+02  0.82536268236E+02  0.00000000000E+00 0. -1.
         21   -1    0    0  502  503 -0.00000000000E+00 -0.00000000000E+00 -0.77613016500E+03  0.77613016500E+03  0.00000000000E+00 0. -1.
         -6    2    1    2    0  503 -0.59955665342E+02 -0.14976343919E+03 -0.50064702398E+03  0.55350881937E+03  0.17233920325E+03 0.  0.
        -24    2    3    3    0    0 -0.56656416832E+02 -0.15303285413E+03 -0.28596692163E+03  0.33872704533E+03  0.79560838105E+02 0.  0.
          6    2    1    2  501    0  0.59955665342E+02  0.14976343919E+03 -0.19294687278E+03  0.30515761386E+03  0.17282622502E+03 0.  0.
         24    2    5    5    0    0  0.31420418944E+02  0.12540887879E+02 -0.31810848706E+02  0.91543014335E+02  0.78890283196E+02 0.  0.
          5    1    5    5  501    0  0.28535246398E+02  0.13722255131E+03 -0.16113602408E+03  0.21361459953E+03  0.47000000000E+01 0. -1.
        -11    1    6    6    0    0  0.31210405699E+02 -0.26535971658E+02 -0.32759473154E+02  0.52454077983E+02  0.00000000000E+00 0.  1.
         12    1    6    6    0    0  0.21001324474E+00  0.39076859537E+02  0.94862444757E+00  0.39088936352E+02  0.00000000000E+00 0. -1.
         -5    1    3    3    0  503 -0.32992485102E+01  0.32694149435E+01 -0.21468010235E+03  0.21478177404E+03  0.47000000000E+01 0.  1.
         11    1    4    4    0    0 -0.32827508731E+02 -0.13066802744E+03 -0.27128912950E+03  0.30290191566E+03  0.00000000000E+00 0. -1.
        -12    1    4    4    0    0 -0.23828908101E+02 -0.22364826696E+02 -0.14677792131E+02  0.35825129675E+02  0.00000000000E+00 0.  1.
</event>
<event>
12    1  0.8633375E-002  0.2008138E+03  0.7818608E-02  0.1149567E+00
         21   -1    0    0  501  502  0.00000000000E+00  0.00000000000E+00  0.14166543608E+04  0.14166543608E+04  0.00000000000E+00 0. -1.
         21   -1    0    0  502  503 -0.00000000000E+00 -0.00000000000E+00 -0.28538439911E+02  0.28538439911E+02  0.00000000000E+00 0.  1.
         -6    2    1    2    0  503  0.96625127710E+02  0.16440847421E+02  0.60271046446E+03  0.63452151942E+03  0.17248460184E+03 0.  0.
        -24    2    3    3    0    0  0.13475551683E+03  0.16993699261E+01  0.46314168543E+03  0.48901285366E+03  0.80445093595E+02 0.  0.
          6    2    1    2  501    0 -0.96625127710E+02 -0.16440847421E+02  0.78540545641E+03  0.81067128127E+03  0.17526973084E+03 0.  0.
         24    2    5    5    0    0 -0.13737279677E+03 -0.16168904733E+02  0.62250206420E+03  0.64268303263E+03  0.79999635822E+02 0.  0.
          5    1    5    5  501    0  0.40747669055E+02 -0.27194268825E+00  0.16290339222E+03  0.16798824864E+03  0.47000000000E+01 0. -1.
        -13    1    6    6    0    0  0.22172383693E+01  0.16302936843E+02  0.61129629724E+02  0.63305082939E+02  0.00000000000E+00 0.  1.
         14    1    6    6    0    0 -0.13959003513E+03 -0.32471841576E+02  0.56137243447E+03  0.57937794969E+03  0.00000000000E+00 0. -1.
         -5    1    3    3    0  503 -0.38130389120E+02  0.14741477495E+02  0.13956877902E+03  0.14550866576E+03  0.47000000000E+01 0.  1.
         13    1    4    4    0    0  0.27996596855E+02  0.32859602885E+02  0.17250977566E+03  0.17782909108E+03  0.00000000000E+00 0. -1.
        -14    1    4    4    0    0  0.10675891998E+03 -0.31160232959E+02  0.29063190977E+03  0.31118376258E+03  0.00000000000E+00 0.  1.
</event>
<event>
12    1  0.8633375E-002  0.1965257E+03  0.7818608E-02  0.1153131E+00
         21   -1    0    0  501  502  0.00000000000E+00  0.00000000000E+00  0.38383005113E+03  0.38383005113E+03  0.00000000000E+00 0. -1.
         21   -1    0    0  502  503 -0.00000000000E+00 -0.00000000000E+00 -0.16246652815E+03  0.16246652815E+03  0.00000000000E+00 0.  1.
         -6    2    1    2    0  503  0.78613168695E+02  0.54347371403E+02 -0.59548016913E+02  0.20346477494E+03  0.16946469028E+03 0.  0.
        -24    2    3    3    0    0  0.28406493034E+02  0.24601840000E+01  0.30811282268E+02  0.87706909352E+02  0.77007697546E+02 0.  0.
          6    2    1    2  501    0 -0.78613168695E+02 -0.54347371403E+02  0.28091153989E+03  0.34283180434E+03  0.17172270017E+03 0.  0.
         24    2    5    5    0    0  0.13350841595E+02  0.99769582002E+01  0.97403038689E+02  0.12767498112E+03  0.80844073322E+02 0.  0.
          5    1    5    5  501    0 -0.91964010289E+02 -0.64324329603E+02  0.18350850120E+03  0.21515682322E+03  0.47000000000E+01 0. -1.
        -11    1    6    6    0    0  0.30277560357E+02 -0.20384022342E+02  0.17376419226E+02  0.40424979569E+02  0.00000000000E+00 0.  1.
         12    1    6    6    0    0 -0.16926718763E+02  0.30360980542E+02  0.80026619463E+02  0.87250001549E+02  0.00000000000E+00 0. -1.
         -5    1    3    3    0  503  0.50206675661E+02  0.51887187403E+02 -0.90359299181E+02  0.11575786559E+03  0.47000000000E+01 0.  1.
         13    1    4    4    0    0  0.50704869911E+02 -0.97685581532E+01  0.56727920969E+01  0.51947946362E+02  0.00000000000E+00 0. -1.
        -14    1    4    4    0    0 -0.22298376878E+02  0.12228742153E+02  0.25138490171E+02  0.35758962989E+02  0.00000000000E+00 0.  1.
</event>
<event>
12    1  0.8633375E-002  0.1833344E+03  0.7818608E-02  0.1164859E+00
         21   -1    0    0  503  502  0.00000000000E+00  0.00000000000E+00  0.21400284445E+02  0.21400284445E+02  0.00000000000E+00 0.  1.
         21   -1    0    0  501  503 -0.00000000000E+00 -0.00000000000E+00 -0.16773778200E+04  0.16773778200E+04  0.00000000000E+00 0.  1.
          6    2    1    2  501    0 -0.54833562748E+01 -0.60205395945E+02 -0.60717535889E+03  0.63425027454E+03  0.17308014736E+03 0.  0.
         24    2    3    3    0    0 -0.62523439749E+01  0.24548730444E+02 -0.42956396756E+03  0.43739563371E+03  0.78409222661E+02 0.  0.
         -6    2    1    2    0  502  0.54833562748E+01  0.60205395945E+02 -0.10488021767E+04  0.10645278299E+04  0.17198470274E+03 0.  0.
        -24    2    5    5    0    0  0.38129236101E+02  0.79855752769E+02 -0.96562780192E+03  0.97292020682E+03  0.79409678973E+02 0.  0.
          5    1    3    3  501    0  0.76898770009E+00 -0.84754126389E+02 -0.17761139134E+03  0.19685464083E+03  0.47000000000E+01 0. -1.
        -11    1    4    4    0    0  0.17155709548E+02  0.26076393543E+02 -0.39109515180E+03  0.39233877508E+03  0.00000000000E+00 0.  1.
         12    1    4    4    0    0 -0.23408053523E+02 -0.15276630983E+01 -0.38468815756E+02  0.45056858634E+02  0.00000000000E+00 0. -1.
         -5    1    5    5    0  502 -0.32645879827E+02 -0.19650356824E+02 -0.83174374775E+02  0.91607623112E+02  0.47000000000E+01 0.  1.
         11    1    6    6    0    0  0.43385650621E+02  0.59733825792E+01 -0.29904938993E+03  0.30223919930E+03  0.00000000000E+00 0. -1.
        -12    1    6    6    0    0 -0.52564145196E+01  0.73882370190E+02 -0.66657841199E+03  0.67068100752E+03  0.00000000000E+00 0.  1.
</event>
<event>
12    1  0.8633375E-002  0.1809800E+03  0.7818608E-02  0.1167819E+00
         21   -1    0    0  501  502  0.00000000000E+00  0.00000000000E+00  0.12886080439E+04  0.12886080439E+04  0.00000000000E+00 0. -1.
         21   -1    0    0  502  503 -0.00000000000E+00 -0.00000000000E+00 -0.28935084265E+02  0.28935084265E+02  0.00000000000E+00 0. -1.
         -6    2    1    2    0  503 -0.19148103119E+02  0.31617346735E+02  0.37683507196E+03  0.41634587780E+03  0.17312686688E+03 0.  0.
        -24    2    3    3    0    0  0.44023472373E+02 -0.37457908470E+01  0.13140588616E+03  0.16041859381E+03  0.80712584234E+02 0.  0.
          6    2    1    2  501    0  0.19148103119E+02 -0.31617346735E+02  0.88283788765E+03  0.90119725034E+03  0.17716501257E+03 0.  0.
         24    2    5    5    0    0 -0.12690529775E+02  0.37759434487E+02  0.26192934915E+03  0.27559646749E+03  0.75892058268E+02 0.  0.
          5    1    5    5  501    0  0.31838632894E+02 -0.69376781223E+02  0.62090853850E+03  0.62560078285E+03  0.47000000000E+01 0. -1.
        -13    1    6    6    0    0 -0.26494674944E+02  0.12790793903E+02  0.30361094476E+02  0.42277278375E+02  0.00000000000E+00 0.  1.
         14    1    6    6    0    0  0.13804145169E+02  0.24968640584E+02  0.23156825468E+03  0.23331918912E+03  0.00000000000E+00 0. -1.
         -5    1    3    3    0  503 -0.63171575492E+02  0.35363137582E+02  0.24542918580E+03  0.25592728399E+03  0.47000000000E+01 0.  1.
         11    1    4    4    0    0  0.14007836425E+02 -0.41002049191E+02  0.73323639323E+02  0.85168912185E+02  0.00000000000E+00 0. -1.
        -12    1    4    4    0    0  0.30015635948E+02  0.37256258344E+02  0.58082246840E+02  0.75249681628E+02  0.00000000000E+00 0.  1.
</event>
<event>
12    1  0.8633375E-002  0.2233059E+03  0.7818608E-02  0.1131971E+00
         21   -1    0    0  501  502  0.00000000000E+00  0.00000000000E+00  0.31470799798E+03  0.31470799798E+03  0.00000000000E+00 0. -1.
         21   -1    0    0  502  503 -0.00000000000E+00 -0.00000000000E+00 -0.23460352366E+03  0.23460352366E+03  0.00000000000E+00 0.  1.
         -6    2    1    2    0  503  0.13788077351E+03  0.32845287629E+02 -0.11832936028E+03  0.25271997206E+03  0.17255615362E+03 0.  0.
        -24    2    3    3    0    0  0.10971806174E+03 -0.79618996122E+01 -0.14288042202E+03  0.19719331632E+03  0.79805664502E+02 0.  0.
          6    2    1    2  501    0 -0.13788077351E+03 -0.32845287629E+02  0.19843383460E+03  0.29659154957E+03  0.16882132550E+03 0.  0.
         24    2    5    5    0    0 -0.65713600628E+02  0.32836088906E+02  0.70034710815E+02  0.13525163184E+03  0.89396069013E+02 0.  0.
          5    1    5    5  501    0 -0.72167172882E+02 -0.65681376535E+02  0.12839912378E+03  0.16133991773E+03  0.47000000000E+01 0. -1.
        -11    1    6    6    0    0  0.16898821751E+02  0.13134287078E+01 -0.66511017468E+01  0.18208031908E+02  0.00000000000E+00 0.  1.
         12    1    6    6    0    0 -0.82612422378E+02  0.31522660198E+02  0.76685812562E+02  0.11704359993E+03  0.00000000000E+00 0. -1.
         -5    1    3    3    0  503  0.28162711765E+02  0.40807187241E+02  0.24551061744E+02  0.55526655736E+02  0.47000000000E+01 0.  1.
         13    1    4    4    0    0 -0.30462630427E+01 -0.71648896049E+01 -0.51399826059E+02  0.51986127770E+02  0.00000000000E+00 0. -1.
        -14    1    4    4    0    0  0.11276432479E+03 -0.79701000738E+00 -0.91480595963E+02  0.14520718855E+03  0.00000000000E+00 0.  1.
</event>
<event>
12    1  0.8633375E-002  0.2965606E+03  0.7818608E-02  0.1087145E+00
         21   -1    0    0  503  502  0.00000000000E+00  0.00000000000E+00  0.34562153101E+03  0.34562153101E+03  0.00000000000E+00 0. -1.
         21   -1    0    0  501  503 -0.00000000000E+00 -0.00000000000E+00 -0.61085133652E+03  0.61085133652E+03  0.00000000000E+00 0.  1.
          6    2    1    2  501    0  0.82631973188E+02 -0.22520393262E+03 -0.49837125635E+03  0.57924202474E+03  0.17205394449E+03 0.  0.
         24    2    3    3    0    0  0.18219789097E+02 -0.21351230332E+03 -0.36610752586E+03  0.43158902593E+03  0.79466360384E+02 0.  0.
         -6    2    1    2    0  502 -0.82631973188E+02  0.22520393262E+03  0.23314145083E+03  0.37723084279E+03  0.17436547362E+03 0.  0.
        -24    2    5    5    0    0 -0.79269616087E+02  0.24666141757E+03  0.19778167269E+03  0.33546802421E+03  0.79345310273E+02 0.  0.
          5    1    3    3  501    0  0.64412184091E+02 -0.11691629308E+02 -0.13226373049E+03  0.14765299881E+03  0.47000000000E+01 0. -1.
        -11    1    4    4    0    0  0.29131174479E+02 -0.16827882687E+03 -0.33376899359E+03  0.37492416564E+03  0.00000000000E+00 0.  1.
         12    1    4    4    0    0 -0.10911385382E+02 -0.45233476449E+02 -0.32338532265E+02  0.56664860290E+02  0.00000000000E+00 0. -1.
         -5    1    5    5    0  502 -0.33623571014E+01 -0.21457484945E+02  0.35359778140E+02  0.41762818577E+02  0.47000000000E+01 0.  1.
         11    1    6    6    0    0 -0.59582354698E+02  0.19969038439E+03  0.11430209349E+03  0.23767893299E+03  0.00000000000E+00 0. -1.
        -12    1    6    6    0    0 -0.19687261389E+02  0.46971033179E+02  0.83479579197E+02  0.97789091221E+02  0.00000000000E+00 0.  1.
</event>
<event>
12    1  0.8633375E-002  0.2101806E+03  0.7818608E-02  0.1141467E+00
         21   -1    0    0  503  502  0.00000000000E+00  0.00000000000E+00  0.96763872010E+03  0.96763872010E+03  0.00000000000E+00 0. -1.
         21   -1    0    0  501  503 -0.00000000000E+00 -0.00000000000E+00 -0.45607376151E+02  0.45607376151E+02  0.00000000000E+00 0. -1.
          6    2    1    2  501    0 -0.35774539737E+01  0.12052072180E+03  0.46472348088E+03  0.51004294588E+03  0.17215647068E+03 0.  0.
         24    2    3    3    0    0  0.37271239943E+02  0.65104274980E+02  0.13865580089E+03  0.17675355165E+03  0.79929187109E+02 0.  0.
         -6    2    1    2    0  502  0.35774539737E+01 -0.12052072180E+03  0.45730786306E+03  0.50320315036E+03  0.17188625995E+03 0.  0.
        -24    2    5    5    0    0 -0.45721167093E+02 -0.18882669302E+02  0.17785287718E+03  0.20174365576E+03  0.81374912578E+02 0.  0.
          5    1    3    3  501    0 -0.40848693917E+02  0.55416446824E+02  0.32606767999E+03  0.33328939423E+03  0.47000000000E+01 0. -1.
        -11    1    4    4    0    0  0.57440865283E+02  0.27397319109E+02  0.10300759179E+03  0.12108108880E+03  0.00000000000E+00 0.  1.
         12    1    4    4    0    0 -0.20169625340E+02  0.37706955871E+02  0.35648209104E+02  0.55672462849E+02  0.00000000000E+00 0. -1.
         -5    1    5    5    0  502  0.49298621066E+02 -0.10163805250E+03  0.27945498588E+03  0.30145949460E+03  0.47000000000E+01 0.  1.
         11    1    6    6    0    0 -0.52006237017E+02 -0.44333723686E+02  0.11721627174E+03  0.13568265219E+03  0.00000000000E+00 0. -1.
        -12    1    6    6    0    0  0.62850699244E+01  0.25451054384E+02  0.60636605443E+02  0.66061003571E+02  0.00000000000E+00 0.  1.
</event>
<event>
12    1  0.8633375E-002  0.2223970E+03  0.7818608E-02  0.1132163E+00
         21   -1    0    0  501  502  0.00000000000E+00  0.00000000000E+00  0.39272746117E+03  0.39272746117E+03  0.00000000000E+00 0.  1.
         21   -1    0    0  502  503 -0.00000000000E+00 -0.00000000000E+00 -0.21769651874E+03  0.21769651874E+03  0.00000000000E+00 0.  1.
         -6    2    1    2    0  503  0.25888395723E+02 -0.13778686985E+03 -0.11084929067E+03  0.24822523306E+03  0.17225786064E+03 0.  0.
        -24    2    3    3    0    0  0.53485517788E+02 -0.14807841510E+03 -0.12360260094E+03  0.21578676866E+03  0.80612709524E+02 0.  0.
          6    2    1    2  501    0 -0.25888395723E+02  0.13778686985E+03  0.28588023310E+03  0.36219874685E+03  0.17264122917E+03 0.  0.
         24    2    5    5    0    0 -0.35914709239E+01  0.15060730349E+03  0.16008062064E+03  0.23371081407E+03  0.79369269773E+02 0.  0.
          5    1    5    5  501    0 -0.22296924799E+02 -0.12820433640E+02  0.12579961246E+03  0.12848793277E+03  0.47000000000E+01 0. -1.
        -13    1    6    6    0    0 -0.32184495863E+01  0.41186440507E+02  0.10152125633E+03  0.10960495785E+03  0.00000000000E+00 0.  1.
         14    1    6    6    0    0 -0.37302133759E+00  0.10942086298E+03  0.58559364311E+02  0.12410585622E+03  0.00000000000E+00 0. -1.
         -5    1    3    3    0  503 -0.27597122065E+02  0.10291545255E+02  0.12753310268E+02  0.32438464403E+02  0.47000000000E+01 0.  1.
         13    1    4    4    0    0  0.52015601928E+02 -0.73335314600E+02 -0.10598031415E+03  0.13898027989E+03  0.00000000000E+00 0. -1.
        -14    1    4    4    0    0  0.14699158602E+01 -0.74743100502E+02 -0.17622286793E+02  0.76806488769E+02  0.00000000000E+00 0.  1.
</event>
<event>
12    1  0.8633375E-002  0.2213721E+03  0.7818608E-02  0.1132926E+00
         21   -1    0    0  501  502  0.00000000000E+00  0.00000000000E+00  0.53619908384E+03  0.53619908384E+03  0.00000000000E+00 0.  1.
         21   -1    0    0  502  503 -0.00000000000E+00 -0.00000000000E+00 -0.92091357665E+02  0.92091357665E+02  0.00000000000E+00 0. -1.
         -6    2    1    2    0  503  0.11840847754E+03  0.70122530579E+02  0.19197499691E+03  0.29276620645E+03  0.17297374179E+03 0.  0.
        -24    2    3    3    0    0  0.78597431764E+02 -0.14485521674E+02  0.15627411305E+03  0.19256598199E+03  0.79200204502E+02 0.  0.
          6    2    1    2  501    0 -0.11840847754E+03 -0.70122530579E+02  0.25213272926E+03  0.33552423506E+03  0.17340087168E+03 0.  0.
         24    2    5    5    0    0 -0.46464309205E+02  0.92220684666E+01  0.19039024117E+03  0.21180781096E+03  0.79813070829E+02 0.  0.
          5    1    5    5  501    0 -0.71944168339E+02 -0.79344599046E+02  0.61742488093E+02  0.12371642410E+03  0.47000000000E+01 0. -1.
        -11    1    6    6    0    0  0.11799912525E+02 -0.23177773551E+02  0.48388331345E+02  0.54935213959E+02  0.00000000000E+00 0.  1.
         12    1    6    6    0    0 -0.58264221730E+02  0.32399842018E+02  0.14200190982E+03  0.15687259700E+03  0.00000000000E+00 0. -1.
         -5    1    3    3    0  503  0.39811045780E+02  0.84608052253E+02  0.35700883866E+02  0.10020022446E+03  0.47000000000E+01 0.  1.
         13    1    4    4    0    0 -0.89424281360E+01 -0.22828868988E+02  0.31469405999E+02  0.39892954192E+02  0.00000000000E+00 0. -1.
        -14    1    4    4    0    0  0.87539859900E+02  0.83433473136E+01  0.12480470705E+03  0.15267302780E+03  0.00000000000E+00 0.  1.
</event>
<event>
12    1  0.8633375E-002  0.2629544E+03  0.7818608E-02  0.1105478E+00
         21   -1    0    0  503  502  0.00000000000E+00  0.00000000000E+00  0.81089464718E+03  0.81089464718E+03  0.00000000000E+00 0.  1.
         21   -1    0    0  501  503 -0.00000000000E+00 -0.00000000000E+00 -0.86007537325E+02  0.86007537325E+02  0.00000000000E+00 0. -1.
          6    2    1    2  501    0 -0.12840821430E+01  0.19767988583E+03  0.31490558872E+03  0.40983968168E+03  0.17240663777E+03 0.  0.
         24    2    3    3    0    0  0.22100484540E+02  0.18557867218E+03  0.17863709917E+03  0.27097115186E+03  0.81155880608E+02 0.  0.
         -6    2    1    2    0  502  0.12840821430E+01 -0.19767988583E+03  0.40998152113E+03  0.48706250282E+03  0.17339563966E+03 0.  0.
        -24    2    5    5    0    0  0.26860583952E+02 -0.76979702652E+02  0.90782625715E+02  0.14481593015E+03  0.77992325930E+02 0.  0.
          5    1    3    3  501    0 -0.23384566683E+02  0.12101213652E+02  0.13626848955E+03  0.13886852982E+03  0.47000000000E+01 0. -1.
        -11    1    4    4    0    0  0.15350459168E+02  0.15928081341E+03  0.18341111709E+03  0.24340429739E+03  0.00000000000E+00 0.  1.
         12    1    4    4    0    0  0.67500253724E+01  0.26297858772E+02 -0.47740179164E+01  0.27566854474E+02  0.00000000000E+00 0. -1.
         -5    1    5    5    0  502 -0.25576501809E+02 -0.12070018318E+03  0.31919889542E+03  0.34224657266E+03  0.47000000000E+01 0.  1.
         11    1    6    6    0    0 -0.36614292472E+01 -0.81812228166E+02  0.67431333038E+02  0.10608313446E+03  0.00000000000E+00 0. -1.
        -12    1    6    6    0    0  0.30522013199E+02  0.48325255140E+01  0.23351292677E+02  0.38732795694E+02  0.00000000000E+00 0.  1.
</event>
<event>
12    1  0.8633375E-002  0.2273566E+03  0.7818608E-02  0.1128539E+00
         21   -1    0    0  501  502  0.00000000000E+00  0.00000000000E+00  0.13365751618E+03  0.13365751618E+03  0.00000000000E+00 0.  1.
         21   -1    0    0  502  503 -0.00000000000E+00 -0.00000000000E+00 -0.45061382661E+03  0.45061382661E+03  0.00000000000E+00 0.  1.
         -6    2    1    2    0  503 -0.22848874667E+02 -0.14603889467E+03 -0.26862648900E+03  0.35183469644E+03  0.17256312815E+03 0.  0.
        -24    2    3    3    0    0  0.22932184550E+01 -0.13359726449E+03 -0.28087385423E+03  0.32086685888E+03  0.78815805557E+02 0.  0.
          6    2    1    2  501    0  0.22848874667E+02  0.14603889467E+03 -0.48329821434E+02  0.23243664635E+03  0.17274719418E+03 0.  0.
         24    2    5    5    0    0 -0.24639420894E+02  0.15164347025E+03 -0.59156351695E+02  0.18318369476E+03  0.80336473359E+02 0.  0.
          5    1    5    5  501    0  0.47488295562E+02 -0.56045755743E+01  0.10826530261E+02  0.49252951589E+02  0.47000000000E+01 0. -1.
        -13    1    6    6    0    0 -0.15131531956E+02  0.10197603273E+03 -0.77939520322E+02  0.12923870681E+03  0.00000000000E+00 0.  1.
         14    1    6    6    0    0 -0.95078889384E+01  0.49667437514E+02  0.18783168627E+02  0.53944987950E+02  0.00000000000E+00 0. -1.
         -5    1    3    3    0  503 -0.25142093122E+02 -0.12441630181E+02  0.12247365234E+02  0.30967837562E+02  0.47000000000E+01 0.  1.
         11    1    4    4    0    0 -0.12542322711E+02  0.60396250295E+01 -0.17156626772E+02  0.22093817499E+02  0.00000000000E+00 0. -1.
        -12    1    4    4    0    0  0.14835541166E+02 -0.13963688952E+03 -0.26371722746E+03  0.29877304138E+03  0.00000000000E+00 0.  1.
</event>
<event>
12    1  0.8633375E-002  0.1824891E+03  0.7818608E-02  0.1165568E+00
         21   -1    0    0  503  502  0.00000000000E+00  0.00000000000E+00  0.47403478525E+02  0.47403478525E+02  0.00000000000E+00 0.  1.
         21   -1    0    0  501  503 -0.00000000000E+00 -0.00000000000E+00 -0.70006701041E+03  0.70006701041E+03  0.00000000000E+00 0.  1.
          6    2    1    2  501    0 -0.36556713550E+02 -0.47442688784E+02 -0.32607577827E+03  0.37366789176E+03  0.17238061996E+03 0.  0.
         24    2    3    3    0    0 -0.16341587024E+02 -0.38491320146E+02 -0.33759031992E+03  0.34830151617E+03  0.74820404103E+02 0.  0.
         -6    2    1    2    0  502  0.36556713550E+02  0.47442688784E+02 -0.32658775362E+03  0.37380259718E+03  0.17170212234E+03 0.  0.
        -24    2    5    5    0    0  0.28362838453E+02  0.98269995912E+02 -0.26080820976E+03  0.29013902608E+03  0.75487015252E+02 0.  0.
          5    1    3    3  501    0 -0.20215126526E+02 -0.89513686382E+01  0.11514541657E+02  0.25366375589E+02  0.47000000000E+01 0. -1.
        -11    1    4    4    0    0 -0.10273419817E+02 -0.10423956781E+02 -0.65779640466E+01  0.16045922869E+02  0.00000000000E+00 0.  1.
         12    1    4    4    0    0 -0.60681672072E+01 -0.28067363365E+02 -0.33101235588E+03  0.33225559330E+03  0.00000000000E+00 0. -1.
         -5    1    5    5    0  502  0.81938750972E+01 -0.50827307127E+02 -0.65779543862E+02  0.83663571103E+02  0.47000000000E+01 0.  1.
         13    1    6    6    0    0  0.37327642031E+02  0.24185958987E+02 -0.15068985674E+03  0.15711698316E+03  0.00000000000E+00 0. -1.
        -14    1    6    6    0    0 -0.89648035782E+01  0.74084036925E+02 -0.11011835302E+03  0.13302204292E+03  0.00000000000E+00 0.  1.
</event>
<event>
12    1  0.8633375E-002  0.2452849E+03  0.7818608E-02  0.1116367E+00
         21   -1    0    0  503  502  0.00000000000E+00  0.00000000000E+00  0.56016073879E+03  0.56016073879E+03  0.00000000000E+00 0.  1.
         21   -1    0    0  501  503 -0.00000000000E+00 -0.00000000000E+00 -0.11492354784E+03  0.11492354784E+03  0.00000000000E+00 0. -1.
          6    2    1    2  501    0 -0.11528822068E+03  0.13173245010E+03  0.13547373116E+03  0.27996648953E+03  0.17141555119E+03 0.  0.
         24    2    3    3    0    0 -0.57177308134E+02  0.14173189362E+03  0.13007928880E+03  0.22056903979E+03  0.91503583015E+02 0.  0.
         -6    2    1    2    0  502  0.11528822068E+03 -0.13173245010E+03  0.30976345979E+03  0.39511779709E+03  0.17181344628E+03 0.  0.
        -24    2    5    5    0    0  0.29406799830E+02 -0.10722113830E+03  0.10718838015E+03  0.17367892123E+03  0.79459967697E+02 0.  0.
          5    1    3    3  501    0 -0.58110912548E+02 -0.99994435177E+01  0.53944423633E+01  0.59397449745E+02  0.47000000000E+01 0. -1.
        -13    1    4    4    0    0 -0.19821090916E+02  0.26712878395E+02  0.85394515778E+02  0.91644295197E+02  0.00000000000E+00 0.  1.
         14    1    4    4    0    0 -0.37356217218E+02  0.11501901523E+03  0.44684773021E+02  0.12892474459E+03  0.00000000000E+00 0. -1.
         -5    1    5    5    0  502  0.85881420851E+02 -0.24511311805E+02  0.20257507964E+03  0.22143887586E+03  0.47000000000E+01 0.  1.
         13    1    6    6    0    0  0.36416865944E+01 -0.26575786435E+01  0.52874621673E+02  0.53066469852E+02  0.00000000000E+00 0. -1.
        -14    1    6    6    0    0  0.25765113236E+02 -0.10456355965E+03  0.54313758478E+02  0.12061245138E+03  0.00000000000E+00 0.  1.
</event>
<event>
12    1  0.8633375E-002  0.1934608E+03  0.7818608E-02  0.1155595E+00
         21   -1    0    0  501  502  0.00000000000E+00  0.00000000000E+00  0.12698517050E+03  0.12698517050E+03  0.00000000000E+00 0. -1.
         21   -1    0    0  502  503 -0.00000000000E+00 -0.00000000000E+00 -0.44963196647E+03  0.44963196647E+03  0.00000000000E+00 0. -1.
         -6    2    1    2    0  503  0.60239472919E+02  0.61839545236E+02 -0.33163042710E+03  0.38393467377E+03  0.17313050018E+03 0.  0.
        -24    2    3    3    0    0  0.40771766126E+02 -0.31118467543E+02 -0.21301876350E+03  0.23191164759E+03  0.75995544266E+02 0.  0.
          6    2    1    2  501    0 -0.60239472919E+02 -0.61839545236E+02  0.89836311357E+01  0.19268246320E+03  0.17202587754E+03 0.  0.
         24    2    5    5    0    0 -0.67746865471E+01  0.15482058820E+02  0.43273820584E+02  0.92507511601E+02  0.79996410116E+02 0.  0.
          5    1    5    5  501    0 -0.53464786371E+02 -0.77321604055E+02 -0.34290189448E+02  0.10017495160E+03  0.47000000000E+01 0. -1.
        -11    1    6    6    0    0  0.36475122972E+02  0.36444251883E+01  0.23178080892E+02  0.43369803604E+02  0.00000000000E+00 0.  1.
         12    1    6    6    0    0 -0.43249809519E+02  0.11837633631E+02  0.20095739691E+02  0.49137707997E+02  0.00000000000E+00 0. -1.
         -5    1    3    3    0  503  0.19467706793E+02  0.92958012779E+02 -0.11861166360E+03  0.15202302618E+03  0.47000000000E+01 0.  1.
         11    1    4    4    0    0 -0.13019788862E+02  0.13113547815E+02 -0.22819077367E+02  0.29363077669E+02  0.00000000000E+00 0. -1.
        -12    1    4    4    0    0  0.53791554988E+02 -0.44232015359E+02 -0.19019968614E+03  0.20254856992E+03  0.00000000000E+00 0.  1.
</event>
<event>
12    1  0.8633375E-002  0.2529139E+03  0.7818608E-02  0.1111618E+00
         21   -1    0    0  501  502  0.00000000000E+00  0.00000000000E+00  0.18124732041E+03  0.18124732041E+03  0.00000000000E+00 0.  1.
         21   -1    0    0  502  503 -0.00000000000E+00 -0.00000000000E+00 -0.35897634905E+03  0.35897634905E+03  0.00000000000E+00 0.  1.
         -6    2    1    2    0  503  0.16200548685E+03 -0.87217247042E+02 -0.12757856097E+03  0.28326967503E+03  0.17353038242E+03 0.  0.
        -24    2    3    3    0    0  0.16137054999E+03 -0.61873665146E+02 -0.15480943265E+03  0.24576886623E+03  0.81040547431E+02 0.  0.
          6    2    1    2  501    0 -0.16200548685E+03  0.87217247042E+02 -0.50150467678E+02  0.25695399443E+03  0.17221399448E+03 0.  0.
         24    2    5    5    0    0 -0.10232837544E+03  0.11687141078E+03 -0.40602827793E+01  0.17579290649E+03  0.82198765181E+02 0.  0.
          5    1    5    5  501    0 -0.59677111403E+02 -0.29654163734E+02 -0.46090184898E+02  0.81161087944E+02  0.47000000000E+01 0. -1.
        -13    1    6    6    0    0 -0.99484171734E+02  0.75173772686E+02  0.21887340235E+02  0.12659878431E+03  0.00000000000E+00 0.  1.
         14    1    6    6    0    0 -0.28442037101E+01  0.41697638090E+02 -0.25947623014E+02  0.49194122181E+02  0.00000000000E+00 0. -1.
         -5    1    3    3    0  503  0.63493686156E+00 -0.25343581897E+02  0.27230871681E+02  0.37500808800E+02  0.47000000000E+01 0.  1.
         13    1    4    4    0    0  0.88166713662E+02  0.66813022733E+01 -0.54199322748E+02  0.10370909210E+03  0.00000000000E+00 0. -1.
        -14    1    4    4    0    0  0.73203836324E+02 -0.68554967419E+02 -0.10061010990E+03  0.14205977413E+03  0.00000000000E+00 0.  1.
</event>
<event>
12    1  0.8633375E-002  0.1900569E+03  0.7818608E-02  0.1158487E+00
         21   -1    0    0  501  502  0.00000000000E+00  0.00000000000E+00  0.12999986883E+03  0.12999986883E+03  0.00000000000E+00 0.  1.
         21   -1    0    0  502  503 -0.00000000000E+00 -0.00000000000E+00 -0.41318675702E+03  0.41318675702E+03  0.00000000000E+00 0.  1.
         -6    2    1    2    0  503  0.77880207346E+02 -0.22856743436E+02 -0.29739860608E+03  0.35294126873E+03  0.17185415579E+03 0.  0.
        -24    2    3    3    0    0  0.83322561682E+02  0.43491591196E+02 -0.19153574977E+03  0.22779833016E+03  0.79824607699E+02 0.  0.
          6    2    1    2  501    0 -0.77880207346E+02  0.22856743436E+02  0.14211717885E+02  0.19024535711E+03  0.17147467906E+03 0.  0.
         24    2    5    5    0    0 -0.36045005653E+02  0.37928072707E+02  0.70054302207E+02  0.11870646356E+03  0.80285976987E+02 0.  0.
          5    1    5    5  501    0 -0.41835201694E+02 -0.15071329272E+02 -0.55842584322E+02  0.71538893551E+02  0.47000000000E+01 0. -1.
        -13    1    6    6    0    0 -0.31259364219E+02 -0.15702888415E+02  0.67967294204E+01  0.35635994258E+02  0.00000000000E+00 0.  1.
         14    1    6    6    0    0 -0.47856414338E+01  0.53630961122E+02  0.63257572787E+02  0.83070469300E+02  0.00000000000E+00 0. -1.
         -5    1    3    3    0  503 -0.54423543354E+01 -0.66348334632E+02 -0.10586285631E+03  0.12514293857E+03  0.47000000000E+01 0.  1.
         13    1    4    4    0    0  0.57858549554E+02  0.30011949299E+02 -0.46845178339E+02  0.80267051714E+02  0.00000000000E+00 0. -1.
        -14    1    4    4    0    0  0.25464012127E+02  0.13479641898E+02 -0.14469057143E+03  0.14753127845E+03  0.00000000000E+00 0.  1.
</event>
<event>
12    1  0.8633375E-002  0.2121589E+03  0.7818608E-02  0.1139950E+00
         21   -1    0    0  503  502  0.00000000000E+00  0.00000000000E+00  0.12940077623E+03  0.12940077623E+03  0.00000000000E+00 0.  1.
         21   -1    0    0  501  503 -0.00000000000E+00 -0.00000000000E+00 -0.44280861523E+03  0.44280861523E+03  0.00000000000E+00 0.  1.
          6    2    1    2  501    0 -0.35333415012E+02 -0.11796697485E+03 -0.28980169067E+03  0.35916069914E+03  0.17276206331E+03 0.  0.
         24    2    3    3    0    0 -0.63199407649E+02 -0.39077488265E+02 -0.23606847976E+03  0.25961466660E+03  0.78423419722E+02 0.  0.
         -6    2    1    2    0  502  0.35333415012E+02  0.11796697485E+03 -0.23606148330E+02  0.21304869233E+03  0.17224354180E+03 0.  0.
        -24    2    5    5    0    0  0.80962887147E+02  0.49019654837E+02  0.12203841998E+02  0.12282548538E+03  0.77325613118E+02 0.  0.
          5    1    3    3  501    0  0.27865992637E+02 -0.78889486586E+02 -0.53733210911E+02  0.99546032539E+02  0.47000000000E+01 0. -1.
        -11    1    4    4    0    0 -0.67643866043E+02 -0.56052969585E+02 -0.17132613970E+03  0.19253642293E+03  0.00000000000E+00 0.  1.
         12    1    4    4    0    0  0.44444583935E+01  0.16975481320E+02 -0.64742340062E+02  0.67078243665E+02  0.00000000000E+00 0. -1.
         -5    1    5    5    0  502 -0.45629472134E+02  0.68947320014E+02 -0.35809990329E+02  0.90223206946E+02  0.47000000000E+01 0.  1.
         11    1    6    6    0    0  0.29097157904E+02 -0.14073406731E+02 -0.16453757392E+02  0.36268877946E+02  0.00000000000E+00 0. -1.
        -12    1    6    6    0    0  0.51865729242E+02  0.63093061568E+02  0.28657599391E+02  0.86556607435E+02  0.00000000000E+00 0.  1.
</event>
<event>
12    1  0.8633375E-002  0.2142372E+03  0.7818608E-02  0.1140200E+00
         21   -1    0    0  503  502  0.00000000000E+00  0.00000000000E+00  0.13956445203E+03  0.13956445203E+03  0.00000000000E+00 0.  1.
         21   -1    0    0  501  503 -0.00000000000E+00 -0.00000000000E+00 -0.49103990079E+03  0.49103990079E+03  0.00000000000E+00 0.  1.
          6    2    1    2  501    0  0.62033254067E+02  0.92641084496E+02 -0.36242213825E+03  0.41608767689E+03  0.17131448690E+03 0.  0.
         24    2    3    3    0    0  0.10220259977E+03  0.35536355606E+02 -0.22981658710E+03  0.26615152852E+03  0.79452932325E+02 0.  0.
         -6    2    1    2    0  502 -0.62033254067E+02 -0.92641084496E+02  0.10946689480E+02  0.21451667593E+03  0.18294009701E+03 0.  0.
        -24    2    5    5    0    0 -0.35789067031E+02  0.25595080412E+02 -0.13110736399E+02  0.90947271202E+02  0.78508275169E+02 0.  0.
          5    1    3    3  501    0 -0.40169345699E+02  0.57104728890E+02 -0.13260555114E+03  0.14993614837E+03  0.47000000000E+01 0. -1.
        -13    1    4    4    0    0  0.28367788372E+02 -0.21363934113E+02 -0.10162583376E+03  0.10765202824E+03  0.00000000000E+00 0.  1.
         14    1    4    4    0    0  0.73834811394E+02  0.56900289719E+02 -0.12819075335E+03  0.15849950027E+03  0.00000000000E+00 0. -1.
         -5    1    5    5    0  502 -0.26244187036E+02 -0.11823616491E+03  0.24057425879E+02  0.12356940473E+03  0.47000000000E+01 0.  1.
         11    1    6    6    0    0 -0.25225809079E+01 -0.13123030641E+02 -0.33432535840E+02  0.36004330300E+02  0.00000000000E+00 0. -1.
        -12    1    6    6    0    0 -0.33266486123E+02  0.38718111053E+02  0.20321799441E+02  0.54942940902E+02  0.00000000000E+00 0.  1.
</event>
<event>
12    1  0.8633375E-002  0.1920838E+03  0.7818608E-02  0.1156885E+00
         21   -1    0    0  501  502  0.00000000000E+00  0.00000000000E+00  0.30714702714E+03  0.30714702714E+03  0.00000000000E+00 0.  1.
         21   -1    0    0  502  503 -0.00000000000E+00 -0.00000000000E+00 -0.13852079149E+03  0.13852079149E+03  0.00000000000E+00 0.  1.
         -6    2    1    2    0  503  0.76078596976E+02  0.38481318171E+02  0.15874142700E+01  0.19209035358E+03  0.17212617259E+03 0.  0.
        -24    2    3    3    0    0  0.83912199044E+02  0.71459106005E+02 -0.36216641927E+02  0.14109882020E+03  0.80309220702E+02 0.  0.
          6    2    1    2  501    0 -0.76078596976E+02 -0.38481318171E+02  0.16703882138E+03  0.25357746505E+03  0.17067746825E+03 0.  0.
         24    2    5    5    0    0 -0.10471475158E+03  0.10511615436E+02  0.98730652403E+02  0.16464809509E+03  0.79281651303E+02 0.  0.
          5    1    5    5  501    0  0.28636154606E+02 -0.48992933607E+02  0.68308168973E+02  0.88929369965E+02  0.47000000000E+01 0. -1.
        -13    1    6    6    0    0  0.67395662003E+01 -0.15666052954E+02  0.16128298623E+02  0.23472728520E+02  0.00000000000E+00 0.  1.
         14    1    6    6    0    0 -0.11145431778E+03  0.26177668390E+02  0.82602353780E+02  0.14117536657E+03  0.00000000000E+00 0. -1.
         -5    1    3    3    0  503 -0.78336020672E+01 -0.32977787834E+02  0.37804056197E+02  0.50991533382E+02  0.47000000000E+01 0.  1.
         13    1    4    4    0    0  0.86019684472E+02  0.55784551540E+02 -0.10395545014E+01  0.10252991261E+03  0.00000000000E+00 0. -1.
        -14    1    4    4    0    0 -0.21074854286E+01  0.15674554465E+02 -0.35177087425E+02  0.38568907584E+02  0.00000000000E+00 0.  1.
</event>
<event>
12    1  0.8633375E-002  0.2317813E+03  0.7818608E-02  0.1125440E+00
         21   -1    0    0  501  502  0.00000000000E+00  0.00000000000E+00  0.27788976496E+03  0.27788976496E+03  0.00000000000E+00 0. -1.
         21   -1    0    0  502  503 -0.00000000000E+00 -0.00000000000E+00 -0.19610771576E+03  0.19610771576E+03  0.00000000000E+00 0. -1.
         -6    2    1    2    0  503 -0.92041382929E+00  0.15266918564E+03  0.11495767831E+02  0.23179358917E+03  0.17403272077E+03 0.  0.
        -24    2    3    3    0    0  0.30898366618E+02  0.56058809885E+02 -0.47558133705E+02  0.11408440185E+03  0.81585387413E+02 0.  0.
          6    2    1    2  501    0  0.92041382929E+00 -0.15266918564E+03  0.70286281370E+02  0.24220389155E+03  0.17439563162E+03 0.  0.
         24    2    5    5    0    0 -0.10274401280E+02 -0.16353109112E+03  0.13706561822E+02  0.18332554630E+03  0.81070370698E+02 0.  0.
          5    1    5    5  501    0  0.11194815110E+02  0.10861905472E+02  0.56579719548E+02  0.58878345255E+02  0.47000000000E+01 0. -1.
        -13    1    6    6    0    0 -0.90589200541E+01 -0.17271323761E+02  0.30392680729E+02  0.36112015990E+02  0.00000000000E+00 0.  1.
         14    1    6    6    0    0 -0.12154812264E+01 -0.14625976735E+03 -0.16686118907E+02  0.14721353031E+03  0.00000000000E+00 0. -1.
         -5    1    3    3    0  503 -0.31818780447E+02  0.96610375759E+02  0.59053901535E+02  0.11770918732E+03  0.47000000000E+01 0.  1.
         11    1    4    4    0    0 -0.18304665580E+02  0.32145999178E+02  0.60581310775E+01  0.37485023640E+02  0.00000000000E+00 0. -1.
        -12    1    4    4    0    0  0.49203032198E+02  0.23912810706E+02 -0.53616264782E+02  0.76599378213E+02  0.00000000000E+00 0.  1.
</event>
<event>
12    1  0.8633375E-002  0.2321557E+03  0.7818608E-02  0.1125747E+00
         21   -1    0    0  503  502  0.00000000000E+00  0.00000000000E+00  0.26591159493E+03  0.26591159493E+03  0.00000000000E+00 0. -1.
         21   -1    0    0  501  503 -0.00000000000E+00 -0.00000000000E+00 -0.47648154535E+03  0.47648154535E+03  0.00000000000E+00 0.  1.
          6    2    1    2  501    0  0.10868516261E+03 -0.10492683916E+03 -0.38856324776E+03  0.45263413549E+03  0.17627863443E+03 0.  0.
         24    2    3    3    0    0  0.94202767054E+02 -0.14150785692E+03 -0.28227329023E+03  0.33919888650E+03  0.80492480011E+02 0.  0.
         -6    2    1    2    0  502 -0.10868516261E+03  0.10492683916E+03  0.17799329733E+03  0.28975900479E+03  0.17162913742E+03 0.  0.
        -24    2    5    5    0    0 -0.79647413942E+02  0.49882418577E+02  0.18938945610E+03  0.22631578986E+03  0.80737255507E+02 0.  0.
          5    1    3    3  501    0  0.14482395559E+02  0.36581017757E+02 -0.10628995753E+03  0.11343524899E+03  0.47000000000E+01 0. -1.
        -13    1    4    4    0    0  0.10726560021E+03 -0.13276980835E+03 -0.24353218529E+03  0.29739141929E+03  0.00000000000E+00 0.  1.
         14    1    4    4    0    0 -0.13062833153E+02 -0.87380485726E+01 -0.38741104935E+02  0.41807467209E+02  0.00000000000E+00 0. -1.
         -5    1    5    5    0  502 -0.29037748670E+02  0.55044420588E+02 -0.11396158767E+02  0.63443214928E+02  0.47000000000E+01 0.  1.
         11    1    6    6    0    0 -0.18351260816E+02 -0.17129805873E+02  0.13840397231E+02  0.28666280161E+02  0.00000000000E+00 0. -1.
        -12    1    6    6    0    0 -0.61296153126E+02  0.67012224449E+02  0.17554905887E+03  0.19764950970E+03  0.00000000000E+00 0.  1.
</event>
<event>
12    1  0.8633375E-002  0.1766616E+03  0.7818608E-02  0.1171118E+00
         21   -1    0    0  503  502  0.00000000000E+00  0.00000000000E+00  0.16805460966E+04  0.16805460966E+04  0.00000000000E+00 0.  1.
         21   -1    0    0  501  503 -0.00000000000E+00 -0.00000000000E+00 -0.19020269829E+02  0.19020269829E+02  0.00000000000E+00 0.  1.
          6    2    1    2  501    0 -0.30771096116E+02  0.31067266927E+02  0.69788185201E+03  0.71989471484E+03  0.17116449885E+03 0.  0.
         24    2    3    3    0    0  0.35162218934E+02 -0.24834926180E+01  0.22399541399E+03  0.24024557053E+03  0.79381605528E+02 0.  0.
         -6    2    1    2    0  502  0.30771096116E+02 -0.31067266927E+02  0.96364397474E+03  0.97967165156E+03  0.17098186861E+03 0.  0.
        -24    2    5    5    0    0  0.25001583389E+02 -0.70998426916E+02  0.63408749364E+03  0.64762143089E+03  0.10807734434E+03 0.  0.
          5    1    3    3  501    0 -0.65933315050E+02  0.33550759545E+02  0.47388643802E+03  0.47964914431E+03  0.47000000000E+01 0. -1.
        -13    1    4    4    0    0  0.46324914489E+02  0.73970166971E+01  0.62928139291E+02  0.78489899178E+02  0.00000000000E+00 0.  1.
         14    1    4    4    0    0 -0.11162695555E+02 -0.98805093151E+01  0.16106727470E+03  0.16175567136E+03  0.00000000000E+00 0. -1.
         -5    1    5    5    0  502  0.57695127265E+01  0.39931159988E+02  0.32955648110E+03  0.33205022067E+03  0.47000000000E+01 0.  1.
         13    1    6    6    0    0  0.34765636146E+02  0.19493838449E+02  0.16120611150E+03  0.16606043954E+03  0.00000000000E+00 0. -1.
        -14    1    6    6    0    0 -0.97640527570E+01 -0.90492265365E+02  0.47288138214E+03  0.48156099135E+03  0.00000000000E+00 0.  1.
</event>
<event>
12    1  0.8633375E-002  0.1859828E+03  0.7818608E-02  0.1162670E+00
         21   -1    0    0  501  502  0.00000000000E+00  0.00000000000E+00  0.10881741292E+03  0.10881741292E+03  0.00000000000E+00 0. -1.
         21   -1    0    0  502  503 -0.00000000000E+00 -0.00000000000E+00 -0.33265461003E+03  0.33265461003E+03  0.00000000000E+00 0. -1.
         -6    2    1    2    0  503  0.63418520489E+02  0.29122276824E+02 -0.16358772664E+03  0.24597367312E+03  0.16991788550E+03 0.  0.
        -24    2    3    3    0    0  0.74886789557E+02 -0.34027881265E+02 -0.76769999901E+02  0.13790484626E+03  0.79738232893E+02 0.  0.
          6    2    1    2  501    0 -0.63418520489E+02 -0.29122276824E+02 -0.60249470473E+02  0.19549834983E+03  0.17239370738E+03 0.  0.
         24    2    5    5    0    0 -0.48904192459E+02  0.56219111087E+01 -0.10214779893E+03  0.13897061999E+03  0.80345718422E+02 0.  0.
          5    1    5    5  501    0 -0.14514328030E+02 -0.34744187932E+02  0.41898328459E+02  0.56527729840E+02  0.47000000000E+01 0. -1.
        -13    1    6    6    0    0 -0.66396056844E+02 -0.12491972484E+02 -0.84657023276E+02  0.10831111361E+03  0.00000000000E+00 0.  1.
         14    1    6    6    0    0  0.17491864385E+02  0.18113883593E+02 -0.17490775656E+02  0.30659506381E+02  0.00000000000E+00 0. -1.
         -5    1    3    3    0  503 -0.11468269068E+02  0.63150158088E+02 -0.86817726740E+02  0.10806882686E+03  0.47000000000E+01 0.  1.
         13    1    4    4    0    0 -0.13738379772E+02  0.26161726158E+00 -0.27780240815E+02  0.30992794357E+02  0.00000000000E+00 0. -1.
        -14    1    4    4    0    0  0.88625169329E+02 -0.34289498526E+02 -0.48989759086E+02  0.10691205191E+03  0.00000000000E+00 0.  1.
</event>
<event>
12    1  0.8633375E-002  0.2031913E+03  0.7818608E-02  0.1147119E+00
         21   -1    0    0  501  502  0.00000000000E+00  0.00000000000E+00  0.14222860036E+03  0.14222860036E+03  0.00000000000E+00 0. -1.
         21   -1    0    0  502  503 -0.00000000000E+00 -0.00000000000E+00 -0.31404273551E+03  0.31404273551E+03  0.00000000000E+00 0.  1.
         -6    2    1    2    0  503  0.80125654964E+02  0.72782725572E+02 -0.14902309477E+03  0.25180580487E+03  0.17169983945E+03 0.  0.
        -24    2    3    3    0    0  0.48082653775E+02  0.83211436859E+02 -0.30290861399E+02  0.12829489367E+03  0.79410066365E+02 0.  0.
          6    2    1    2  501    0 -0.80125654964E+02 -0.72782725572E+02 -0.22791040380E+02  0.20446553099E+03  0.17195719269E+03 0.  0.
         24    2    5    5    0    0 -0.59076142825E+02  0.22367238810E+02 -0.30939408199E+02  0.10656209091E+03  0.80049660932E+02 0.  0.
          5    1    5    5  501    0 -0.21049512139E+02 -0.95149964382E+02  0.81483678188E+01  0.97903440089E+02  0.47000000000E+01 0. -1.
        -11    1    6    6    0    0  0.18850354863E+01 -0.23642362625E+02  0.10909111625E+01  0.23742467363E+02  0.00000000000E+00 0.  1.
         12    1    6    6    0    0 -0.60961178312E+02  0.46009601436E+02 -0.32030319362E+02  0.82819623543E+02  0.00000000000E+00 0. -1.
         -5    1    3    3    0  503  0.32043001189E+02 -0.10428711288E+02 -0.11873223337E+03  0.12351091120E+03  0.47000000000E+01 0.  1.
         13    1    4    4    0    0 -0.12784757483E+02  0.65754728974E+01  0.14717967386E+02  0.20574387760E+02  0.00000000000E+00 0. -1.
        -14    1    4    4    0    0  0.60867411258E+02  0.76635963962E+02 -0.45008828785E+02  0.10772050591E+03  0.00000000000E+00 0.  1.
</event>
<event>
12    1  0.8633375E-002  0.2038454E+03  0.7818608E-02  0.1148001E+00
         21   -1    0    0  503  502  0.00000000000E+00  0.00000000000E+00  0.62423035878E+02  0.62423035878E+02  0.00000000000E+00 0. -1.
         21   -1    0    0  501  503 -0.00000000000E+00 -0.00000000000E+00 -0.98828702251E+03  0.98828702251E+03  0.00000000000E+00 0. -1.
          6    2    1    2  501    0  0.34752560246E+02  0.10626814457E+03 -0.77867870611E+03  0.80491829433E+03  0.17044727692E+03 0.  0.
         24    2    3    3    0    0  0.67725220003E+02  0.10220259982E+03 -0.42396551162E+03  0.44862169697E+03  0.80514564616E+02 0.  0.
         -6    2    1    2    0  502 -0.34752560246E+02 -0.10626814457E+03 -0.14718528053E+03  0.24579176406E+03  0.16201674445E+03 0.  0.
        -24    2    5    5    0    0 -0.18987400348E+02 -0.11530175138E+03 -0.16667104994E+03  0.21873753097E+03  0.80074048998E+02 0.  0.
          5    1    3    3  501    0 -0.32972659758E+02  0.40655447448E+01 -0.35471319449E+03  0.35629659736E+03  0.47000000000E+01 0. -1.
        -13    1    4    4    0    0  0.51945904496E+01 -0.13680248332E+02 -0.33679949718E+02  0.36721546500E+02  0.00000000000E+00 0.  1.
         14    1    4    4    0    0  0.62530629554E+02  0.11588284816E+03 -0.39028556190E+03  0.41190015047E+03  0.00000000000E+00 0. -1.
         -5    1    5    5    0  502 -0.15765159897E+02  0.90336068100E+01  0.19485769413E+02  0.27054233092E+02  0.47000000000E+01 0.  1.
         11    1    6    6    0    0 -0.41445463284E+02 -0.35028396905E+02 -0.92079873119E+02  0.10688039133E+03  0.00000000000E+00 0. -1.
        -12    1    6    6    0    0  0.22458062935E+02 -0.80273354474E+02 -0.74591176821E+02  0.11185713964E+03  0.00000000000E+00 0.  1.
</event>
<event>
12    1  0.8633375E-002  0.3834198E+03  0.7818608E-02  0.1049720E+00
         21   -1    0    0  503  502  0.00000000000E+00  0.00000000000E+00  0.19153470043E+03  0.19153470043E+03  0.00000000000E+00 0.  1.
         21   -1    0    0  501  503 -0.00000000000E+00 -0.00000000000E+00 -0.76684150996E+03  0.76684150996E+03  0.00000000000E+00 0. -1.
          6    2    1    2  501    0  0.33381397588E+03  0.74315253563E+02 -0.29635495127E+03  0.48459981089E+03  0.17336721769E+03 0.  0.
         24    2    3    3    0    0  0.10158873305E+03 -0.33598627383E+02 -0.96083237252E+02  0.15947703632E+03  0.68933287956E+02 0.  0.
         -6    2    1    2    0  502 -0.33381397588E+03 -0.74315253563E+02 -0.27895185826E+03  0.47377639951E+03  0.17232356224E+03 0.  0.
        -24    2    5    5    0    0 -0.15191079777E+03  0.42667179710E+02 -0.11890185481E+03  0.20468208611E+03  0.53476411556E+02 0.  0.
          5    1    3    3  501    0  0.23222524283E+03  0.10791388095E+03 -0.20027171402E+03  0.32512277457E+03  0.47000000000E+01 0. -1.
        -13    1    4    4    0    0  0.68157717644E+02 -0.20294113967E+02 -0.17781926987E+02  0.73304314085E+02  0.00000000000E+00 0.  1.
         14    1    4    4    0    0  0.33431015403E+02 -0.13304513415E+02 -0.78301310265E+02  0.86172722235E+02  0.00000000000E+00 0. -1.
         -5    1    5    5    0  502 -0.18190317811E+03 -0.11698243327E+03 -0.16005000345E+03  0.26909431340E+03  0.47000000000E+01 0.  1.
         11    1    6    6    0    0 -0.11493874027E+03  0.68751262360E+01 -0.81748911016E+02  0.14121283875E+03  0.00000000000E+00 0. -1.
        -12    1    6    6    0    0 -0.36972057501E+02  0.35792053474E+02 -0.37152943795E+02  0.63469247360E+02  0.00000000000E+00 0.  1.
</event>
<event>
12    1  0.8633375E-002  0.1875215E+03  0.7818608E-02  0.1160878E+00
         21   -1    0    0  501  502  0.00000000000E+00  0.00000000000E+00  0.38924107360E+03  0.38924107360E+03  0.00000000000E+00 0.  1.
         21   -1    0    0  502  503 -0.00000000000E+00 -0.00000000000E+00 -0.13229035766E+03  0.13229035766E+03  0.00000000000E+00 0. -1.
         -6    2    1    2    0  503  0.11202745479E+02  0.72239868796E+02 -0.18795573524E+02  0.18846110067E+03  0.17268529970E+03 0.  0.
        -24    2    3    3    0    0  0.57185806400E+02  0.67293594534E+02  0.28202546785E+02  0.12235648031E+03  0.79856623457E+02 0.  0.
          6    2    1    2  501    0 -0.11202745479E+02 -0.72239868796E+02  0.27574628946E+03  0.33307033059E+03  0.17191779669E+03 0.  0.
         24    2    5    5    0    0  0.29310221566E+02 -0.39273466547E+02  0.26337048131E+03  0.27918772854E+03  0.78614776472E+02 0.  0.
          5    1    5    5  501    0 -0.40512967045E+02 -0.32966402249E+02  0.12375808149E+02  0.53882602047E+02  0.47000000000E+01 0. -1.
        -13    1    6    6    0    0 -0.26896788673E+02 -0.16771810490E+02  0.10311708956E+03  0.10787893690E+03  0.00000000000E+00 0.  1.
         14    1    6    6    0    0  0.56207010238E+02 -0.22501656057E+02  0.16025339175E+03  0.17130879164E+03  0.00000000000E+00 0. -1.
         -5    1    3    3    0  503 -0.45983060921E+02  0.49462742622E+01 -0.46998120309E+02  0.66104620362E+02  0.47000000000E+01 0.  1.
         13    1    4    4    0    0  0.22240258513E+01  0.28966380572E+01 -0.23084108153E+02  0.23371197065E+02  0.00000000000E+00 0. -1.
        -14    1    4    4    0    0  0.54961780549E+02  0.64396956476E+02  0.51286654938E+02  0.98985283246E+02  0.00000000000E+00 0.  1.
</event>
<event>
12    1  0.8633375E-002  0.2626781E+03  0.7818608E-02  0.1106712E+00
         21   -1    0    0  501  502  0.00000000000E+00  0.00000000000E+00  0.39498571405E+03  0.39498571405E+03  0.00000000000E+00 0.  1.
         21   -1    0    0  502  503 -0.00000000000E+00 -0.00000000000E+00 -0.18517871375E+03  0.18517871375E+03  0.00000000000E+00 0. -1.
         -6    2    1    2    0  503 -0.10305306676E+03  0.15711243054E+03  0.22141131833E+02  0.26360957921E+03  0.18356342264E+03 0.  0.
        -24    2    3    3    0    0 -0.86936485151E+02  0.28895184126E+02 -0.29185361961E+02  0.12448407670E+03  0.79067160593E+02 0.  0.
          6    2    1    2  501    0  0.10305306676E+03 -0.15711243054E+03  0.18766586847E+03  0.31655484860E+03  0.17229115933E+03 0.  0.
         24    2    5    5    0    0  0.24076810141E+02 -0.12740664073E+03  0.17386624236E+03  0.23092656625E+03  0.79280917487E+02 0.  0.
          5    1    5    5  501    0  0.78976256615E+02 -0.29705789814E+02  0.13799626108E+02  0.85628282349E+02  0.47000000000E+01 0. -1.
        -11    1    6    6    0    0 -0.93742681067E+01  0.58747090233E+01  0.30016456598E+02  0.31990260633E+02  0.00000000000E+00 0.  1.
         12    1    6    6    0    0  0.33451078247E+02 -0.13328134975E+03  0.14384978576E+03  0.19893630561E+03  0.00000000000E+00 0. -1.
         -5    1    3    3    0  503 -0.16116581605E+02  0.12821724641E+03  0.51326493794E+02  0.13912550250E+03  0.47000000000E+01 0.  1.
         11    1    4    4    0    0 -0.32177446829E+02  0.42399845388E+02 -0.40596133482E+02  0.66941624025E+02  0.00000000000E+00 0. -1.
        -12    1    4    4    0    0 -0.54759038322E+02 -0.13504661262E+02  0.11410771521E+02  0.57542452680E+02  0.00000000000E+00 0.  1.
</event>
<event>
12    1  0.8633375E-002  0.1973347E+03  0.7818608E-02  0.1153420E+00
         21   -1    0    0  503  502  0.00000000000E+00  0.00000000000E+00  0.12745425862E+03  0.12745425862E+03  0.00000000000E+00 0. -1.
         21   -1    0    0  501  503 -0.00000000000E+00 -0.00000000000E+00 -0.36092077364E+03  0.36092077364E+03  0.00000000000E+00 0. -1.
          6    2    1    2  501    0  0.90647169881E+01 -0.83400494723E+02 -0.22219709461E+03  0.29717426201E+03  0.17861461735E+03 0.  0.
         24    2    3    3    0    0  0.62788534358E+02 -0.43864078881E+02 -0.19659617755E+03  0.22557207151E+03  0.79788752052E+02 0.  0.
         -6    2    1    2    0  502 -0.90647169881E+01  0.83400494723E+02 -0.11269420406E+02  0.19120077024E+03  0.17144364407E+03 0.  0.
        -24    2    5    5    0    0  0.39043352850E+02  0.92106558200E+02 -0.40494224361E+02  0.13404868287E+03  0.79506387843E+02 0.  0.
          5    1    3    3  501    0 -0.53723817370E+02 -0.39536415843E+02 -0.25600917067E+02  0.71602190505E+02  0.47000000000E+01 0. -1.
        -13    1    4    4    0    0  0.58500403551E+02 -0.63882664956E+02 -0.17780670277E+03  0.19778401262E+03  0.00000000000E+00 0.  1.
         14    1    4    4    0    0  0.42881308071E+01  0.20018586075E+02 -0.18789474774E+02  0.27788058884E+02  0.00000000000E+00 0. -1.
         -5    1    5    5    0  502 -0.48108069838E+02 -0.87060634768E+01  0.29224803955E+02  0.57152087373E+02  0.47000000000E+01 0.  1.
         11    1    6    6    0    0 -0.19417938790E+02  0.39237470599E+02 -0.33094063288E+02  0.54880346854E+02  0.00000000000E+00 0. -1.
        -12    1    6    6    0    0  0.58461291640E+02  0.52869087601E+02 -0.74001610726E+01  0.79168336018E+02  0.00000000000E+00 0.  1.
</event>
<event>
12    1  0.8633375E-002  0.3803264E+03  0.7818608E-02  0.1050823E+00
         21   -1    0    0  501  502  0.00000000000E+00  0.00000000000E+00  0.28525603840E+03  0.28525603840E+03  0.00000000000E+00 0. -1.
         21   -1    0    0  502  503 -0.00000000000E+00 -0.00000000000E+00 -0.58532463187E+03  0.58532463187E+03  0.00000000000E+00 0. -1.
         -6    2    1    2    0  503 -0.77910458605E+02  0.33004523877E+03 -0.30931325997E+03  0.49014193523E+03  0.17194337640E+03 0.  0.
        -24    2    3    3    0    0 -0.11669477256E+03  0.24615674244E+03 -0.26188453488E+03  0.38615599008E+03  0.79511805881E+02 0.  0.
          6    2    1    2  501    0  0.77910458605E+02 -0.33004523877E+03  0.92446664975E+01  0.38043873504E+03  0.17218672441E+03 0.  0.
         24    2    5    5    0    0  0.99640808704E-01 -0.22240310253E+03  0.49465991531E+02  0.24158198206E+03  0.80323220768E+02 0.  0.
          5    1    5    5  501    0  0.77810817797E+02 -0.10764213624E+03 -0.40221325034E+02  0.13885675298E+03  0.47000000000E+01 0. -1.
        -11    1    6    6    0    0 -0.12549563737E+02 -0.34723864521E+02 -0.18850075591E+02  0.41455562559E+02  0.00000000000E+00 0.  1.
         12    1    6    6    0    0  0.12649204546E+02 -0.18767923801E+03  0.68316067123E+02  0.20012641950E+03  0.00000000000E+00 0. -1.
         -5    1    3    3    0  503  0.38784313957E+02  0.83888496333E+02 -0.47428725091E+02  0.10398594516E+03  0.47000000000E+01 0.  1.
         11    1    4    4    0    0 -0.49576169127E+02  0.14191658922E+03 -0.93426432029E+02  0.17699325706E+03  0.00000000000E+00 0. -1.
        -12    1    4    4    0    0 -0.67118603435E+02  0.10424015321E+03 -0.16845810285E+03  0.20916273302E+03  0.00000000000E+00 0.  1.
</event>
<event>
12    1  0.8633375E-002  0.2078790E+03  0.7818608E-02  0.1143300E+00
         21   -1    0    0  503  502  0.00000000000E+00  0.00000000000E+00  0.34859671825E+03  0.34859671825E+03  0.00000000000E+00 0.  1.
         21   -1    0    0  501  503 -0.00000000000E+00 -0.00000000000E+00 -0.12432744033E+03  0.12432744033E+03  0.00000000000E+00 0.  1.
          6    2    1    2  501    0 -0.10190955015E+03  0.56085331397E+02  0.12692921785E+03  0.24338383650E+03  0.17202774403E+03 0.  0.
         24    2    3    3    0    0 -0.12099053319E+03  0.22533521763E+02  0.13915682613E+03  0.20262341148E+03  0.80902137762E+02 0.  0.
         -6    2    1    2    0  502  0.10190955015E+03 -0.56085331397E+02  0.97340060077E+02  0.22954032208E+03  0.17228624830E+03 0.  0.
        -24    2    5    5    0    0  0.62171257047E+02  0.21064277512E+02  0.85078542558E+01  0.10526464109E+03  0.81849203360E+02 0.  0.
          5    1    3    3  501    0  0.19080983043E+02  0.33551809634E+02 -0.12227608280E+02  0.40760425020E+02  0.47000000000E+01 0. -1.
        -11    1    4    4    0    0 -0.49626885463E+02  0.40039674679E+02  0.28623633076E+02  0.69895033297E+02  0.00000000000E+00 0.  1.
         12    1    4    4    0    0 -0.71363647732E+02 -0.17506152916E+02  0.11053319306E+03  0.13272837818E+03  0.00000000000E+00 0. -1.
         -5    1    5    5    0  502  0.39738293105E+02 -0.77149608909E+02  0.88832205821E+02  0.12427568099E+03  0.47000000000E+01 0.  1.
         13    1    6    6    0    0  0.56545159685E+02  0.20127084072E+02  0.40733989742E+02  0.72537662751E+02  0.00000000000E+00 0. -1.
        -14    1    6    6    0    0  0.56260973627E+01  0.93719343947E+00 -0.32226135487E+02  0.32726978343E+02  0.00000000000E+00 0.  1.
</event>
<event>
12    1  0.8633375E-002  0.1959300E+03  0.7818608E-02  0.1153358E+00
         21   -1    0    0  503  502  0.00000000000E+00  0.00000000000E+00  0.45388983558E+03  0.45388983558E+03  0.00000000000E+00 0.  1.
         21   -1    0    0  501  503 -0.00000000000E+00 -0.00000000000E+00 -0.11876845550E+03  0.11876845550E+03  0.00000000000E+00 0. -1.
          6    2    1    2  501    0 -0.14946881698E+02 -0.89786858036E+02  0.13117945199E+02  0.19573019997E+03  0.17278061681E+03 0.  0.
         24    2    3    3    0    0 -0.51955141955E+02 -0.38046438165E+02  0.58091892441E+02  0.11768259715E+03  0.79546574234E+02 0.  0.
         -6    2    1    2    0  502  0.14946881698E+02  0.89786858036E+02  0.32200343489E+03  0.37692809111E+03  0.17350355801E+03 0.  0.
        -24    2    5    5    0    0  0.41872161449E+02  0.10906720987E+03  0.31123437079E+03  0.34178886235E+03  0.79396843084E+02 0.  0.
          5    1    3    3  501    0  0.37008260257E+02 -0.51740419870E+02 -0.44973947242E+02  0.78047602821E+02  0.47000000000E+01 0. -1.
        -11    1    4    4    0    0 -0.43773786098E+02 -0.21210471381E+02 -0.77287617250E+01  0.49252027404E+02  0.00000000000E+00 0.  1.
         12    1    4    4    0    0 -0.81813558572E+01 -0.16835966784E+02  0.65820654166E+02  0.68430569748E+02  0.00000000000E+00 0. -1.
         -5    1    5    5    0  502 -0.26925279751E+02 -0.19280351831E+02  0.10769064095E+02  0.35139228760E+02  0.47000000000E+01 0.  1.
         11    1    6    6    0    0  0.15951623930E+02  0.63104379661E+02  0.73102101088E+02  0.97880203422E+02  0.00000000000E+00 0. -1.
        -12    1    6    6    0    0  0.25920537519E+02  0.45962830205E+02  0.23813226970E+03  0.24390865893E+03  0.00000000000E+00 0.  1.
</event>
<event>
12    1  0.8633375E-002  0.2289202E+03  0.7818608E-02  0.1128713E+00
         21   -1    0    0  501  502  0.00000000000E+00  0.00000000000E+00  0.18336805731E+04  0.18336805731E+04  0.00000000000E+00 0.  1.
         21   -1    0    0  502  503 -0.00000000000E+00 -0.00000000000E+00 -0.27677831963E+02  0.27677831963E+02  0.00000000000E+00 0.  1.
         -6    2    1    2    0  503 -0.16772252333E+02  0.13828270142E+03  0.88938454989E+03  0.91658680691E+03  0.17240383714E+03 0.  0.
        -24    2    3    3    0    0  0.51839518036E+01  0.65615191494E+02  0.23007809070E+03  0.25290786418E+03  0.81818293991E+02 0.  0.
          6    2    1    2  501    0  0.16772252333E+02 -0.13828270142E+03  0.91661819129E+03  0.94477159819E+03  0.18166191177E+03 0.  0.
         24    2    5    5    0    0  0.24100759689E+02 -0.58889500764E+02  0.77789739819E+03  0.78470118941E+03  0.81134299947E+02 0.  0.
          5    1    5    5  501    0 -0.73285073563E+01 -0.79393200656E+02  0.13872079309E+03  0.16007040878E+03  0.47000000000E+01 0. -1.
        -11    1    6    6    0    0  0.24440173878E+02 -0.61826311830E+02  0.32186630852E+03  0.32866051709E+03  0.00000000000E+00 0.  1.
         12    1    6    6    0    0 -0.33941418910E+00  0.29368110663E+01  0.45603108968E+03  0.45604067232E+03  0.00000000000E+00 0. -1.
         -5    1    3    3    0  503 -0.21956204136E+02  0.72667509926E+02  0.65930645919E+03  0.66367894273E+03  0.47000000000E+01 0.  1.
         13    1    4    4    0    0  0.13005489946E+01 -0.20953330214E+01 -0.64198499874E+01  0.68772321481E+01  0.00000000000E+00 0. -1.
        -14    1    4    4    0    0  0.38834028090E+01  0.67710524516E+02  0.23649794069E+03  0.24603063203E+03  0.00000000000E+00 0.  1.
</event>
<event>
12    1  0.8633375E-002  0.1837007E+03  0.7818608E-02  0.1165139E+00
         21   -1    0    0  503  502  0.00000000000E+00  0.00000000000E+00  0.68572683824E+02  0.68572683824E+02  0.00000000000E+00 0. -1.
         21   -1    0    0  501  503 -0.00000000000E+00 -0.00000000000E+00 -0.53023567580E+03  0.53023567580E+03  0.00000000000E+00 0. -1.
          6    2    1    2  501    0  0.11849307142E+02  0.52615504352E+02 -0.14299384016E+03  0.23279427077E+03  0.17560505916E+03 0.  0.
         24    2    3    3    0    0  0.35813698427E+01 -0.31722372781E+02 -0.11653519549E+03  0.14389327987E+03  0.78138908729E+02 0.  0.
         -6    2    1    2    0  502 -0.11849307142E+02 -0.52615504352E+02 -0.31866915182E+03  0.36601408885E+03  0.17177743606E+03 0.  0.
        -24    2    5    5    0    0  0.19618458821E+02 -0.41674245847E+02 -0.31940167171E+03  0.33236058952E+03  0.79526768317E+02 0.  0.
          5    1    3    3  501    0  0.82679372990E+01  0.84337877133E+02 -0.26458644664E+02  0.88900990906E+02  0.47000000000E+01 0. -1.
        -11    1    4    4    0    0  0.35239264111E+02 -0.38124946736E+02 -0.67044569162E+02  0.84795586871E+02  0.00000000000E+00 0.  1.
         12    1    4    4    0    0 -0.31657894268E+02  0.64025739546E+01 -0.49490626331E+02  0.59097692995E+02  0.00000000000E+00 0. -1.
         -5    1    5    5    0  502 -0.31467765963E+02 -0.10941258505E+02  0.73251988874E+00  0.33653499339E+02  0.47000000000E+01 0.  1.
         13    1    6    6    0    0 -0.90310978928E+01 -0.33662241038E+02 -0.47920639373E+02  0.59254492477E+02  0.00000000000E+00 0. -1.
        -14    1    6    6    0    0  0.28649556714E+02 -0.80120048090E+01 -0.27148103234E+03  0.27310609704E+03  0.00000000000E+00 0.  1.
</event>
<event>
12    1  0.8633375E-002  0.2223146E+03  0.7818608E-02  0.1132301E+00
         21   -1    0    0  503  502  0.00000000000E+00  0.00000000000E+00  0.47843798233E+02  0.47843798233E+02  0.00000000000E+00 0. -1.
         21   -1    0    0  501  503 -0.00000000000E+00 -0.00000000000E+00 -0.13466029827E+04  0.13466029827E+04  0.00000000000E+00 0.  1.
          6    2    1    2  501    0 -0.24785736240E+02 -0.13855534175E+03 -0.98681211883E+03  0.10113870522E+04  0.17115401272E+03 0.  0.
         24    2    3    3    0    0  0.52293799448E+02 -0.82764084637E+02 -0.55529161752E+03  0.56947535036E+03  0.79805131449E+02 0.  0.
         -6    2    1    2    0  502  0.24785736240E+02  0.13855534175E+03 -0.31194706564E+03  0.38305972872E+03  0.17208099418E+03 0.  0.
        -24    2    5    5    0    0  0.12943909009E+02  0.27986895377E+01 -0.16184449884E+03  0.18027174078E+03  0.78287171845E+02 0.  0.
          5    1    3    3  501    0 -0.77079535689E+02 -0.55791257116E+02 -0.43152050131E+03  0.44191170186E+03  0.47000000000E+01 0. -1.
        -11    1    4    4    0    0  0.34829079829E+02 -0.85847994773E+02 -0.53298953579E+03  0.54098131971E+03  0.00000000000E+00 0.  1.
         12    1    4    4    0    0  0.17464719619E+02  0.30839101365E+01 -0.22302081731E+02  0.28494030650E+02  0.00000000000E+00 0. -1.
         -5    1    5    5    0  502  0.11841827232E+02  0.13575665221E+03 -0.15010256680E+03  0.20278798794E+03  0.47000000000E+01 0.  1.
         13    1    6    6    0    0 -0.12360241955E+02 -0.32474636145E+02 -0.56450623555E+02  0.66287634395E+02  0.00000000000E+00 0. -1.
        -14    1    6    6    0    0  0.25304150963E+02  0.35273325683E+02 -0.10539387529E+03  0.11398410639E+03  0.00000000000E+00 0.  1.
</event>
<event>
12    1  0.8633375E-002  0.1747010E+03  0.7818608E-02  0.1173162E+00
         21   -1    0    0  501  502  0.00000000000E+00  0.00000000000E+00  0.65019518244E+03  0.65019518244E+03  0.00000000000E+00 0. -1.
         21   -1    0    0  502  503 -0.00000000000E+00 -0.00000000000E+00 -0.49156152229E+02  0.49156152229E+02  0.00000000000E+00 0. -1.
         -6    2    1    2    0  503 -0.14599515914E+02  0.27697039933E+02  0.22441607342E+03  0.28439938283E+03  0.17187251980E+03 0.  0.
        -24    2    3    3    0    0 -0.55225203723E+02  0.21142596995E+02  0.63132041132E+02  0.11788200746E+03  0.80085457670E+02 0.  0.
          6    2    1    2  501    0  0.14599515914E+02 -0.27697039933E+02  0.37662295680E+03  0.41495195184E+03  0.17134759661E+03 0.  0.
         24    2    5    5    0    0  0.10839887191E+02  0.14317679516E+02  0.80110622279E+02  0.11541726941E+03  0.81122963300E+02 0.  0.
          5    1    5    5  501    0  0.37596287230E+01 -0.42014719449E+02  0.29651233452E+03  0.29953468243E+03  0.47000000000E+01 0. -1.
        -11    1    6    6    0    0 -0.18303774527E+02  0.21381707488E+02 -0.17863507441E+01  0.28202776920E+02  0.00000000000E+00 0.  1.
         12    1    6    6    0    0  0.29143661718E+02 -0.70640279721E+01  0.81896973023E+02  0.87214492488E+02  0.00000000000E+00 0. -1.
         -5    1    3    3    0  503  0.40625687809E+02  0.65544429381E+01  0.16128403228E+03  0.16651737538E+03  0.47000000000E+01 0.  1.
         11    1    4    4    0    0  0.65228144738E+01 -0.11647207422E+02 -0.10021180230E+02  0.16692171896E+02  0.00000000000E+00 0. -1.
        -12    1    4    4    0    0 -0.61748018197E+02  0.32789804417E+02  0.73153221362E+02  0.10118983556E+03  0.00000000000E+00 0.  1.
</event>
<event>
12    1  0.8633375E-002  0.2021042E+03  0.7818608E-02  0.1148222E+00
         21   -1    0    0  503  502  0.00000000000E+00  0.00000000000E+00  0.16054016656E+04  0.16054016656E+04  0.00000000000E+00 0. -1.
         21   -1    0    0  501  503 -0.00000000000E+00 -0.00000000000E+00 -0.29201437483E+02  0.29201437483E+02  0.00000000000E+00 0.  1.
          6    2    1    2  501    0 -0.28710666696E+02  0.10043174581E+03  0.10850474501E+04  0.11034937493E+04  0.17163813091E+03 0.  0.
         24    2    3    3    0    0 -0.55729166076E+02  0.29259993677E+02  0.34429388048E+03  0.35882378320E+03  0.79084411062E+02 0.  0.
         -6    2    1    2    0  502  0.28710666696E+02 -0.10043174581E+03  0.49115277806E+03  0.53110935376E+03  0.17301808086E+03 0.  0.
        -24    2    5    5    0    0  0.59316434319E+02 -0.95175553710E+02  0.47732033401E+03  0.49679074254E+03  0.79934443226E+02 0.  0.
          5    1    3    3  501    0  0.27018499380E+02  0.71171752128E+02  0.74075356960E+03  0.74466996614E+03  0.47000000000E+01 0. -1.
        -13    1    4    4    0    0  0.16831466177E+02 -0.76650845691E+01  0.44960557221E+02  0.48615876838E+02  0.00000000000E+00 0.  1.
         14    1    4    4    0    0 -0.72560632254E+02  0.36925078246E+02  0.29933332326E+03  0.31020790636E+03  0.00000000000E+00 0. -1.
         -5    1    5    5    0  502 -0.30605767623E+02 -0.52561920952E+01  0.13832444050E+02  0.34318611212E+02  0.47000000000E+01 0.  1.
         13    1    6    6    0    0 -0.13593959295E+02 -0.50171024964E+02  0.18719063895E+03  0.19427368011E+03  0.00000000000E+00 0. -1.
        -14    1    6    6    0    0  0.72910393615E+02 -0.45004528747E+02  0.29012969506E+03  0.30251706243E+03  0.00000000000E+00 0.  1.
</event>
<event>
12    1  0.8633375E-002  0.1792887E+03  0.7818608E-02  0.1169608E+00
         21   -1    0    0  501  502  0.00000000000E+00  0.00000000000E+00  0.44126690447E+03  0.44126690447E+03  0.00000000000E+00 0. -1.
         21   -1    0    0  502  503 -0.00000000000E+00 -0.00000000000E+00 -0.76257312854E+02  0.76257312854E+02  0.00000000000E+00 0. -1.
         -6    2    1    2    0  503 -0.26424010988E+02  0.19069254556E+02  0.25248303312E+03  0.30966452582E+03  0.17630250058E+03 0.  0.
        -24    2    3    3    0    0 -0.85207710121E+02  0.14992325983E+02  0.18909115472E+03  0.22298831872E+03  0.80518332002E+02 0.  0.
          6    2    1    2  501    0  0.26424010988E+02 -0.19069254556E+02  0.11252655850E+03  0.20785969150E+03  0.17170195153E+03 0.  0.
         24    2    5    5    0    0 -0.13942256715E+02 -0.35665149135E+02  0.13314024495E+03  0.15936357460E+03  0.78765694934E+02 0.  0.
          5    1    5    5  501    0  0.40366267703E+02  0.16595894579E+02 -0.20613686459E+02  0.48496116902E+02  0.47000000000E+01 0. -1.
        -11    1    6    6    0    0 -0.41128578529E+02 -0.35978135762E+02  0.11303100102E+03  0.12554677780E+03  0.00000000000E+00 0.  1.
         12    1    6    6    0    0  0.27186321814E+02  0.31298662714E+00  0.20109243939E+02  0.33816796805E+02  0.00000000000E+00 0. -1.
         -5    1    3    3    0  503  0.58783699133E+02  0.40769285729E+01  0.63391878393E+02  0.86676207096E+02  0.47000000000E+01 0.  1.
         11    1    4    4    0    0 -0.75097931551E+01 -0.26052310171E+02  0.25147990091E+02  0.36980282099E+02  0.00000000000E+00 0. -1.
        -12    1    4    4    0    0 -0.77697916966E+02  0.41044636155E+02  0.16394316463E+03  0.18600803662E+03  0.00000000000E+00 0.  1.
</event>
<event>
12    1  0.8633375E-002  0.1897824E+03  0.7818608E-02  0.1158753E+00
         21   -1    0    0  503  502  0.00000000000E+00  0.00000000000E+00  0.81837928455E+03  0.81837928455E+03  0.00000000000E+00 0.  1.
         21   -1    0    0  501  503 -0.00000000000E+00 -0.00000000000E+00 -0.81891714166E+02  0.81891714166E+02  0.00000000000E+00 0.  1.
          6    2    1    2  501    0  0.74951343871E+02 -0.23607764904E+02  0.61919398306E+02  0.19962808999E+03  0.17274933260E+03 0.  0.
         24    2    3    3    0    0  0.10209360960E+03  0.87825993080E+01  0.81913772571E+02  0.15264188685E+03  0.78034866008E+02 0.  0.
         -6    2    1    2    0  502 -0.74951343871E+02  0.23607764904E+02  0.67456817208E+03  0.70064290873E+03  0.17228823598E+03 0.  0.
        -24    2    5    5    0    0 -0.65361522888E+02 -0.19561241330E+02  0.22153744678E+03  0.24543476312E+03  0.80651173486E+02 0.  0.
          5    1    3    3  501    0 -0.27142265731E+02 -0.32390364212E+02 -0.19994374265E+02  0.46986203135E+02  0.47000000000E+01 0. -1.
        -13    1    4    4    0    0  0.35027337389E+02 -0.20534517817E+02 -0.27857932330E+01  0.40698174781E+02  0.00000000000E+00 0.  1.
         14    1    4    4    0    0  0.67066272213E+02  0.29317117125E+02  0.84699565804E+02  0.11194371207E+03  0.00000000000E+00 0. -1.
         -5    1    5    5    0  502 -0.95898209832E+01  0.43169006235E+02  0.45303072529E+03  0.45520814561E+03  0.47000000000E+01 0.  1.
         13    1    6    6    0    0 -0.33488667068E+02  0.30815664116E+02  0.10805437225E+03  0.11724693318E+03  0.00000000000E+00 0. -1.
        -14    1    6    6    0    0 -0.31872855820E+02 -0.50376905447E+02  0.11348307453E+03  0.12818782994E+03  0.00000000000E+00 0.  1.
</event>
<event>
12    1  0.8633375E-002  0.1944039E+03  0.7818608E-02  0.1154682E+00
         21   -1    0    0  503  502  0.00000000000E+00  0.00000000000E+00  0.16321360885E+03  0.16321360885E+03  0.00000000000E+00 0.  1.
         21   -1    0    0  501  503 -0.00000000000E+00 -0.00000000000E+00 -0.29952048244E+03  0.29952048244E+03  0.00000000000E+00 0.  1.
          6    2    1    2  501    0  0.81777691616E+02 -0.36707776526E+02 -0.17903854848E+03  0.26428713929E+03  0.17250460414E+03 0.  0.
         24    2    3    3    0    0  0.12017185630E+02 -0.11143404615E+02 -0.17200828966E+03  0.18951027224E+03  0.77837673111E+02 0.  0.
         -6    2    1    2    0  502 -0.81777691616E+02  0.36707776526E+02  0.42731674891E+02  0.19844695201E+03  0.17181427478E+03 0.  0.
        -24    2    5    5    0    0  0.51141954063E+00  0.60700506566E+02  0.51224125569E+02  0.11218363055E+03  0.79224004422E+02 0.  0.
          5    1    3    3  501    0  0.69760505986E+02 -0.25564371911E+02 -0.70302588169E+01  0.74776867049E+02  0.47000000000E+01 0. -1.
        -13    1    4    4    0    0  0.41671415744E+01  0.51102783500E+01 -0.17132023254E+03  0.17144708248E+03  0.00000000000E+00 0.  1.
         14    1    4    4    0    0  0.78500440560E+01 -0.16253682965E+02 -0.68805712020E+00  0.18063189757E+02  0.00000000000E+00 0. -1.
         -5    1    5    5    0  502 -0.82289111157E+02 -0.23992730039E+02 -0.84924506774E+01  0.86263321454E+02  0.47000000000E+01 0.  1.
         11    1    6    6    0    0 -0.29722047111E+02  0.85342985886E+01 -0.30328272708E+01  0.31071407727E+02  0.00000000000E+00 0. -1.
        -12    1    6    6    0    0  0.30233466652E+02  0.52166207977E+02  0.54256952839E+02  0.81112222827E+02  0.00000000000E+00 0.  1.
</event>
<event>
12    1  0.8633375E-002  0.1905846E+03  0.7818608E-02  0.1157980E+00
         21   -1    0    0  503  502  0.00000000000E+00  0.00000000000E+00  0.25148880249E+02  0.25148880249E+02  0.00000000000E+00 0.  1.
         21   -1    0    0  501  503 -0.00000000000E+00 -0.00000000000E+00 -0.14429667874E+04  0.14429667874E+04  0.00000000000E+00 0.  1.
          6    2    1    2  501    0  0.44791888963E+02  0.66257982582E+02 -0.71787248572E+03  0.74274045027E+03  0.17299143661E+03 0.  0.
         24    2    3    3    0    0  0.12779390992E+02  0.99548052863E+02 -0.63272435952E+03  0.64575940985E+03  0.81190963867E+02 0.  0.
         -6    2    1    2    0  502 -0.44791888963E+02 -0.66257982582E+02 -0.69994542141E+03  0.72537521736E+03  0.17276915070E+03 0.  0.
        -24    2    5    5    0    0  0.25964704421E+02 -0.74911006879E+02 -0.52535053304E+03  0.53673048411E+03  0.76161704177E+02 0.  0.
          5    1    3    3  501    0  0.32012497971E+02 -0.33290070282E+02 -0.85148126196E+02  0.96981040417E+02  0.47000000000E+01 0. -1.
        -11    1    4    4    0    0  0.16199526970E+02  0.77950053039E+02 -0.60609759783E+03  0.61130428882E+03  0.00000000000E+00 0.  1.
         12    1    4    4    0    0 -0.34201359779E+01  0.21597999824E+02 -0.26626761694E+02  0.34455121024E+02  0.00000000000E+00 0. -1.
         -5    1    5    5    0  502 -0.70756593384E+02  0.86530242976E+01 -0.17459488837E+03  0.18864473325E+03  0.47000000000E+01 0.  1.
         13    1    6    6    0    0 -0.10305853377E+02 -0.42103127149E+02 -0.39730816949E+03  0.39966569213E+03  0.00000000000E+00 0. -1.
        -14    1    6    6    0    0  0.36270557798E+02 -0.32807879731E+02 -0.12804236355E+03  0.13706479198E+03  0.00000000000E+00 0.  1.
</event>
<event>
12    1  0.8633375E-002  0.2086552E+03  0.7818608E-02  0.1145468E+00
         21   -1    0    0  501  502  0.00000000000E+00  0.00000000000E+00  0.52587690758E+03  0.52587690758E+03  0.00000000000E+00 0.  1.
         21   -1    0    0  502  503 -0.00000000000E+00 -0.00000000000E+00 -0.77493882098E+02  0.77493882098E+02  0.00000000000E+00 0. -1.
         -6    2    1    2    0  503  0.11724440390E+03  0.27779529152E+02  0.23899857834E+03  0.31726534359E+03  0.17034971472E+03 0.  0.
        -24    2    3    3    0    0  0.61979101729E+02 -0.47035219190E+02  0.12673831209E+03  0.17140253965E+03  0.85220361134E+02 0.  0.
          6    2    1    2  501    0 -0.11724440390E+03 -0.27779529152E+02  0.20938444714E+03  0.28610544609E+03  0.15328576937E+03 0.  0.
         24    2    5    5    0    0 -0.89785982655E+02 -0.68876837690E+02  0.18457493232E+03  0.23060269218E+03  0.79398706197E+02 0.  0.
          5    1    5    5  501    0 -0.27458421247E+02  0.41097308539E+02  0.24809514819E+02  0.55502753914E+02  0.47000000000E+01 0. -1.
        -13    1    6    6    0    0  0.78552010261E+01 -0.91836786508E+01  0.60957863007E+02  0.62144229009E+02  0.00000000000E+00 0.  1.
         14    1    6    6    0    0 -0.97641183681E+02 -0.59693159039E+02  0.12361706932E+03  0.16845846317E+03  0.00000000000E+00 0. -1.
         -5    1    3    3    0  503  0.55265302173E+02  0.74814748342E+02  0.11226026625E+03  0.14586280393E+03  0.47000000000E+01 0.  1.
         11    1    4    4    0    0  0.32619010605E+02  0.16090864779E+02  0.14148985797E+02  0.39027036542E+02  0.00000000000E+00 0. -1.
        -12    1    4    4    0    0  0.29360091124E+02 -0.63126083969E+02  0.11258932629E+03  0.13237550311E+03  0.00000000000E+00 0.  1.
</event>
<event>
12    1  0.8633375E-002  0.2142253E+03  0.7818608E-02  0.1138298E+00
         21   -1    0    0  503  502  0.00000000000E+00  0.00000000000E+00  0.17793236963E+03  0.17793236963E+03  0.00000000000E+00 0. -1.
         21   -1    0    0  501  503 -0.00000000000E+00 -0.00000000000E+00 -0.39077105867E+03  0.39077105867E+03  0.00000000000E+00 0. -1.
          6    2    1    2  501    0 -0.12381821231E+03 -0.26093282515E+02 -0.27232106480E+03  0.34637339726E+03  0.17263823129E+03 0.  0.
         24    2    3    3    0    0 -0.11332104617E+02 -0.32216554459E+02 -0.75792464472E+02  0.11979846566E+03  0.86260371710E+02 0.  0.
         -6    2    1    2    0  502  0.12381821231E+03  0.26093282515E+02  0.59482375754E+02  0.22233003104E+03  0.17286029210E+03 0.  0.
        -24    2    5    5    0    0  0.14267428513E+03 -0.11765498116E+02  0.21825962939E+02  0.16550631962E+03  0.80134827581E+02 0.  0.
          5    1    3    3  501    0 -0.11248610769E+03  0.61232719438E+01 -0.19652860032E+03  0.22657493160E+03  0.47000000000E+01 0. -1.
        -13    1    4    4    0    0 -0.14132175986E+02  0.31100770318E+01 -0.82476427164E+02  0.83736204923E+02  0.00000000000E+00 0.  1.
         14    1    4    4    0    0  0.28000713695E+01 -0.35326631491E+02  0.66839626916E+01  0.36062260737E+02  0.00000000000E+00 0. -1.
         -5    1    5    5    0  502 -0.18856072825E+02  0.37858780631E+02  0.37656412815E+02  0.56823711418E+02  0.47000000000E+01 0.  1.
         13    1    6    6    0    0  0.12504356921E+03  0.21034000660E+02  0.15713744034E+02  0.12777028268E+03  0.00000000000E+00 0. -1.
        -14    1    6    6    0    0  0.17630715923E+02 -0.32799498776E+02  0.61122189058E+01  0.37736036939E+02  0.00000000000E+00 0.  1.
</event>
<event>
12    1  0.8633375E-002  0.1976581E+03  0.7818608E-02  0.1152072E+00
         21   -1    0    0  503  502  0.00000000000E+00  0.00000000000E+00  0.28177228835E+03  0.28177228835E+03  0.00000000000E+00 0. -1.
         21   -1    0    0  501  503 -0.00000000000E+00 -0.00000000000E+00 -0.23832927064E+03  0.23832927064E+03  0.00000000000E+00 0.  1.
          6    2    1    2  501    0 -0.37833776369E+02  0.87250893310E+02 -0.14744024909E+03  0.24531955041E+03  0.17146119602E+03 0.  0.
         24    2    3    3    0    0 -0.80155173007E+02  0.26537262747E+02 -0.11984500640E+03  0.16619412486E+03  0.78285270031E+02 0.  0.
         -6    2    1    2    0  502  0.37833776369E+02 -0.87250893310E+02  0.19088326681E+03  0.27478200858E+03  0.17327613129E+03 0.  0.
        -24    2    5    5    0    0  0.73300086510E+02 -0.77528860719E+01  0.12676716912E+03  0.16656576076E+03  0.79001440275E+02 0.  0.
          5    1    3    3  501    0  0.42321396638E+02  0.60713630562E+02 -0.27595242696E+02  0.79125425553E+02  0.47000000000E+01 0. -1.
        -11    1    4    4    0    0 -0.18126390180E+02  0.24890343527E+02 -0.94108788616E+02  0.99017974715E+02  0.00000000000E+00 0.  1.
         12    1    4    4    0    0 -0.62028782827E+02  0.16469192200E+01 -0.25736217783E+02  0.67176150141E+02  0.00000000000E+00 0. -1.
         -5    1    5    5    0  502 -0.35466310141E+02 -0.79498007238E+02  0.64116097693E+02  0.10821624782E+03  0.47000000000E+01 0.  1.
         11    1    6    6    0    0  0.45679614260E+02  0.34403475752E+02  0.75031106362E+02  0.94339245411E+02  0.00000000000E+00 0. -1.
        -12    1    6    6    0    0  0.27620472250E+02 -0.42156361824E+02  0.51736062757E+02  0.72226515347E+02  0.00000000000E+00 0.  1.
</event>
<event>
12    1  0.8633375E-002  0.1985587E+03  0.7818608E-02  0.1150976E+00
         21   -1    0    0  501  502  0.00000000000E+00  0.00000000000E+00  0.38229335530E+03  0.38229335530E+03  0.00000000000E+00 0.  1.
         21   -1    0    0  502  503 -0.00000000000E+00 -0.00000000000E+00 -0.13792529642E+03  0.13792529642E+03  0.00000000000E+00 0.  1.
         -6    2    1    2    0  503  0.76821640660E+02 -0.63955553431E+02 -0.85174971778E+01  0.19874131381E+03  0.17156248066E+03 0.  0.
        -24    2    3    3    0    0 -0.85361889165E+01  0.29572955315E+01  0.26595561349E+02  0.84643525467E+02  0.79847294268E+02 0.  0.
          6    2    1    2  501    0 -0.76821640660E+02  0.63955553431E+02  0.25288555606E+03  0.32147733790E+03  0.17147797827E+03 0.  0.
         24    2    5    5    0    0 -0.65445692066E+01 -0.25063539377E+02  0.12268304531E+03  0.14874040074E+03  0.80009779477E+02 0.  0.
          5    1    5    5  501    0 -0.70277071453E+02  0.89019092807E+02  0.13020251075E+03  0.17273693717E+03  0.47000000000E+01 0. -1.
        -11    1    6    6    0    0  0.25855382821E+02 -0.11339299978E+02  0.10619179399E+03  0.10988074288E+03  0.00000000000E+00 0.  1.
         12    1    6    6    0    0 -0.32399952027E+02 -0.13724239399E+02  0.16491251317E+02  0.38859657853E+02  0.00000000000E+00 0. -1.
         -5    1    3    3    0  503  0.85357829576E+02 -0.66912848962E+02 -0.35113058527E+02  0.11409778835E+03  0.47000000000E+01 0.  1.
         13    1    4    4    0    0 -0.11086402563E+02  0.17543898965E+02 -0.24114780619E+02  0.31815394968E+02  0.00000000000E+00 0. -1.
        -14    1    4    4    0    0  0.25502136467E+01 -0.14586603433E+02  0.50710341969E+02  0.52828130498E+02  0.00000000000E+00 0.  1.
</event>
<event>
12    1  0.8633375E-002  0.1778054E+03  0.7818608E-02  0.1170389E+00
         21   -1    0    0  503  502  0.00000000000E+00  0.00000000000E+00  0.17538993287E+04  0.17538993287E+04  0.00000000000E+00 0.  1.
         21   -1    0    0  501  503 -0.00000000000E+00 -0.00000000000E+00 -0.35379731982E+02  0.35379731982E+02  0.00000000000E+00 0.  1.
          6    2    1    2  501    0  0.36718528031E+02 -0.11491660658E+02  0.22720728653E+03  0.28740451019E+03  0.17174950613E+03 0.  0.
         24    2    3    3    0    0  0.10827650992E+02 -0.52149567685E+02  0.78851917643E+02  0.13134423851E+03  0.90536559678E+02 0.  0.
         -6    2    1    2    0  502 -0.36718528031E+02  0.11491660658E+02  0.14913123102E+04  0.15018745505E+04  0.17359277158E+03 0.  0.
        -24    2    5    5    0    0 -0.32773568943E+02  0.29634551761E+02  0.14706216564E+04  0.14736802185E+04  0.83982241115E+02 0.  0.
          5    1    3    3  501    0  0.25890877039E+02  0.40657907027E+02  0.14835536889E+03  0.15606027167E+03  0.47000000000E+01 0. -1.
        -11    1    4    4    0    0 -0.13246651131E+02 -0.72280909494E+02  0.51736567624E+02  0.89870329214E+02  0.00000000000E+00 0.  1.
         12    1    4    4    0    0  0.24074302123E+02  0.20131341809E+02  0.27115350019E+02  0.41473909297E+02  0.00000000000E+00 0. -1.
         -5    1    5    5    0  502 -0.39449590872E+01 -0.18142891103E+02  0.20690653831E+02  0.28194331979E+02  0.47000000000E+01 0.  1.
         13    1    6    6    0    0 -0.59357158656E+01 -0.12920765759E+02  0.45482964745E+02  0.47653740595E+02  0.00000000000E+00 0. -1.
        -14    1    6    6    0    0 -0.26837853078E+02  0.42555317520E+02  0.14251386916E+04  0.14260264779E+04  0.00000000000E+00 0.  1.
</event>
<event>
12    1  0.8633375E-002  0.2085733E+03  0.7818608E-02  0.1142948E+00
         21   -1    0    0  501  502  0.00000000000E+00  0.00000000000E+00  0.95812394957E+02  0.95812394957E+02  0.00000000000E+00 0.  1.
         21   -1    0    0  502  503 -0.00000000000E+00 -0.00000000000E+00 -0.51207478138E+03  0.51207478138E+03  0.00000000000E+00 0. -1.
         -6    2    1    2    0  503 -0.99849073379E+02  0.62967184957E+02 -0.31224250054E+03  0.37481433244E+03  0.17045732847E+03 0.  0.
        -24    2    3    3    0    0 -0.12684965161E+03  0.15364688755E+02 -0.25875983932E+03  0.29814938661E+03  0.74896558782E+02 0.  0.
          6    2    1    2  501    0  0.99849073379E+02 -0.62967184957E+02 -0.10401988588E+03  0.23307284389E+03  0.17195380212E+03 0.  0.
         24    2    5    5    0    0  0.37002516406E+02  0.21002552720E+02 -0.88405794990E+02  0.12692909041E+03  0.80530217702E+02 0.  0.
          5    1    5    5  501    0  0.62846556973E+02 -0.83969737676E+02 -0.15614090894E+02  0.10614375348E+03  0.47000000000E+01 0. -1.
        -13    1    6    6    0    0  0.94368707564E+01 -0.15451122063E+02  0.83384341203E+01  0.19932917154E+02  0.00000000000E+00 0.  1.
         14    1    6    6    0    0  0.27565645650E+02  0.36453674782E+02 -0.96744229110E+02  0.10699617326E+03  0.00000000000E+00 0. -1.
         -5    1    3    3    0  503  0.27000578226E+02  0.47602496201E+02 -0.53482661218E+02  0.76664945837E+02  0.47000000000E+01 0.  1.
         11    1    4    4    0    0 -0.12407224051E+02 -0.24049905622E+02 -0.48497232784E+02  0.55536643370E+02  0.00000000000E+00 0. -1.
        -12    1    4    4    0    0 -0.11444242755E+03  0.39414594378E+02 -0.21026260653E+03  0.24261274324E+03  0.00000000000E+00 0.  1.
</event>
<event>
12    1  0.8633375E-002  0.1840644E+03  0.7818608E-02  0.1165540E+00
         21   -1    0    0  503  502  0.00000000000E+00  0.00000000000E+00  0.47822493119E+02  0.47822493119E+02  0.00000000000E+00 0. -1.
         21   -1    0    0  501  503 -0.00000000000E+00 -0.00000000000E+00 -0.69087360203E+03  0.69087360203E+03  0.00000000000E+00 0. -1.
          6    2    1    2  501    0  0.12620877759E+02  0.38413488266E+02 -0.28747188310E+03  0.34134994043E+03  0.17956841487E+03 0.  0.
         24    2    3    3    0    0  0.23398282708E+02  0.79094324500E+02 -0.27451685011E+03  0.29706669558E+03  0.78011081434E+02 0.  0.
         -6    2    1    2    0  502 -0.12620877759E+02 -0.38413488266E+02 -0.35557922582E+03  0.39734615473E+03  0.17266296131E+03 0.  0.
        -24    2    5    5    0    0 -0.70931727797E+02 -0.11429801787E+01 -0.18277569384E+03  0.21114090059E+03  0.78363953647E+02 0.  0.
          5    1    3    3  501    0 -0.10777404949E+02 -0.40680836235E+02 -0.12955032987E+02  0.44283244844E+02  0.47000000000E+01 0. -1.
        -11    1    4    4    0    0  0.20746800167E+02 -0.79223842038E+01 -0.94904798401E+02  0.97468531579E+02  0.00000000000E+00 0.  1.
         12    1    4    4    0    0  0.26514825407E+01  0.87016708704E+02 -0.17961205171E+03  0.19959816400E+03  0.00000000000E+00 0. -1.
         -5    1    5    5    0  502  0.58310850038E+02 -0.37270508087E+02 -0.17280353198E+03  0.18620525414E+03  0.47000000000E+01 0.  1.
         13    1    6    6    0    0 -0.82986465785E+02  0.73002174838E+00 -0.18059151985E+03  0.19874753704E+03  0.00000000000E+00 0. -1.
        -14    1    6    6    0    0  0.12054737987E+02 -0.18730019271E+01 -0.21841739871E+01  0.12393363554E+02  0.00000000000E+00 0.  1.
</event>
<event>
12    1  0.8633375E-002  0.2295424E+03  0.7818608E-02  0.1127323E+00
         21   -1    0    0  501  502  0.00000000000E+00  0.00000000000E+00  0.14816623719E+03  0.14816623719E+03  0.00000000000E+00 0.  1.
         21   -1    0    0  502  503 -0.00000000000E+00 -0.00000000000E+00 -0.80355056513E+03  0.80355056513E+03  0.00000000000E+00 0. -1.
         -6    2    1    2    0  503  0.14725894625E+03  0.74857458393E+01 -0.68486400617E+03  0.72230770975E+03  0.17592182064E+03 0.  0.
        -24    2    3    3    0    0  0.69888765756E+01  0.17443526312E+02 -0.32635526600E+03  0.33717726871E+03  0.82629473445E+02 0.  0.
          6    2    1    2  501    0 -0.14725894625E+03 -0.74857458393E+01  0.29479678228E+02  0.22940909257E+03  0.17325774638E+03 0.  0.
         24    2    5    5    0    0 -0.15599688195E+03  0.18246881777E+02  0.63317026383E+02  0.18575619147E+03  0.76343571865E+02 0.  0.
          5    1    5    5  501    0  0.87379356995E+01 -0.25732627616E+02 -0.33837348154E+02  0.43652901100E+02  0.47000000000E+01 0. -1.
        -13    1    6    6    0    0 -0.66109044039E+02 -0.24860750420E+02  0.46748387236E+02  0.84698726817E+02  0.00000000000E+00 0.  1.
         14    1    6    6    0    0 -0.89887837913E+02  0.43107632197E+02  0.16568639146E+02  0.10105746465E+03  0.00000000000E+00 0. -1.
         -5    1    3    3    0  503  0.14027006968E+03 -0.99577804724E+01 -0.35850874017E+03  0.38513044105E+03  0.47000000000E+01 0.  1.
         13    1    4    4    0    0  0.11820911287E+01 -0.31696972087E+02 -0.17753392431E+03  0.18034519584E+03  0.00000000000E+00 0. -1.
        -14    1    4    4    0    0  0.58067854469E+01  0.49140498399E+02 -0.14882134169E+03  0.15683207287E+03  0.00000000000E+00 0.  1.
</event>
<event>
12    1  0.8633375E-002  0.1770989E+03  0.7818608E-02  0.1171134E+00
         21   -1    0    0  503  502  0.00000000000E+00  0.00000000000E+00  0.35323042244E+03  0.35323042244E+03  0.00000000000E+00 0. -1.
         21   -1    0    0  501  503 -0.00000000000E+00 -0.00000000000E+00 -0.20465580457E+03  0.20465580457E+03  0.00000000000E+00 0. -1.
          6    2    1    2  501    0  0.40868405915E+02 -0.18465621568E+01 -0.13631144846E+03  0.22348342050E+03  0.17230900110E+03 0.  0.
         24    2    3    3    0    0  0.80446132803E+02  0.38337948192E+02 -0.86844157497E+02  0.14831498156E+03  0.80709649411E+02 0.  0.
         -6    2    1    2    0  502 -0.40868405915E+02  0.18465621568E+01  0.28488606633E+03  0.33440280650E+03  0.17026899252E+03 0.  0.
        -24    2    5    5    0    0 -0.31838527655E+02  0.52822738547E+02  0.25354557752E+03  0.27370333781E+03  0.82608859675E+02 0.  0.
          5    1    3    3  501    0 -0.39577726888E+02 -0.40184510349E+02 -0.49467290965E+02  0.75168438942E+02  0.47000000000E+01 0. -1.
        -11    1    4    4    0    0  0.12385676611E+02  0.19750662608E+02  0.12510986999E+02  0.26457861861E+02  0.00000000000E+00 0.  1.
         12    1    4    4    0    0  0.68060456192E+02  0.18587285584E+02 -0.99355144496E+02  0.12185711969E+03  0.00000000000E+00 0. -1.
         -5    1    5    5    0  502 -0.90298782599E+01 -0.50976176390E+02  0.31340488809E+02  0.60699468692E+02  0.47000000000E+01 0.  1.
         13    1    6    6    0    0 -0.79226095559E+01  0.21633113928E+02  0.22230718890E+03  0.22349775300E+03  0.00000000000E+00 0. -1.
        -14    1    6    6    0    0 -0.23915918099E+02  0.31189624619E+02  0.31238388626E+02  0.50205584812E+02  0.00000000000E+00 0.  1.
</event>
<event>
12    1  0.8633375E-002  0.2752430E+03  0.7818608E-02  0.1098861E+00
         21   -1    0    0  501  502  0.00000000000E+00  0.00000000000E+00  0.44339545343E+03  0.44339545343E+03  0.00000000000E+00 0. -1.
         21   -1    0    0  502  503 -0.00000000000E+00 -0.00000000000E+00 -0.30919795910E+03  0.30919795910E+03  0.00000000000E+00 0. -1.
         -6    2    1    2    0  503  0.17535150772E+03  0.11636340274E+03 -0.18702940721E+03  0.32957398889E+03  0.17131964930E+03 0.  0.
        -24    2    3    3    0    0  0.19820383223E+03  0.83952462312E+02 -0.17349268441E+03  0.28740728807E+03  0.78552292470E+02 0.  0.
          6    2    1    2  501    0 -0.17535150772E+03 -0.11636340274E+03  0.32122690154E+03  0.42301942364E+03  0.17739818980E+03 0.  0.
         24    2    5    5    0    0 -0.14855828844E+03 -0.15076499100E+02  0.18382980669E+03  0.25016987888E+03  0.80589730012E+02 0.  0.
          5    1    5    5  501    0 -0.26793219277E+02 -0.10128690364E+03  0.13739709485E+03  0.17284954475E+03  0.47000000000E+01 0. -1.
        -11    1    6    6    0    0 -0.10774894906E+03 -0.14787809204E+02  0.17848563360E+03  0.20901109236E+03  0.00000000000E+00 0.  1.
         12    1    6    6    0    0 -0.40809339379E+02 -0.28868989627E+00  0.53441730849E+01  0.41158786527E+02  0.00000000000E+00 0. -1.
         -5    1    3    3    0  503 -0.22852324506E+02  0.32410940424E+02 -0.13536722798E+02  0.42166700826E+02  0.47000000000E+01 0.  1.
         11    1    4    4    0    0  0.89432241663E+02  0.75110001360E+00 -0.90715839514E+02  0.12738937765E+03  0.00000000000E+00 0. -1.
        -12    1    4    4    0    0  0.10877159056E+03  0.83201362299E+02 -0.82776844897E+02  0.16001791041E+03  0.00000000000E+00 0.  1.
</event>
<event>
12    1  0.8633375E-002  0.2305180E+03  0.7818608E-02  0.1126351E+00
         21   -1    0    0  503  502  0.00000000000E+00  0.00000000000E+00  0.22249538244E+03  0.22249538244E+03  0.00000000000E+00 0. -1.
         21   -1    0    0  501  503 -0.00000000000E+00 -0.00000000000E+00 -0.33976384850E+03  0.33976384850E+03  0.00000000000E+00 0.  1.
          6    2    1    2  501    0 -0.87844800808E+02  0.12636159522E+03 -0.21216046782E+03  0.31297416608E+03  0.17104620063E+03 0.  0.
         24    2    3    3    0    0 -0.56932887440E+02  0.10630579225E+03 -0.60627625639E+02  0.15695469973E+03  0.80104891472E+02 0.  0.
         -6    2    1    2    0  502  0.87844800808E+02 -0.12636159522E+03  0.94892001763E+02  0.24928506486E+03  0.17162339522E+03 0.  0.
        -24    2    5    5    0    0 -0.48386165097E+01 -0.86696293094E+02  0.90259121800E+02  0.14825484356E+03  0.79329251388E+02 0.  0.
          5    1    3    3  501    0 -0.30911913368E+02  0.20055802970E+02 -0.15153284218E+03  0.15601946635E+03  0.47000000000E+01 0. -1.
        -11    1    4    4    0    0  0.10912403403E+02  0.60644747939E+02 -0.15450749441E+02  0.63526306826E+02  0.00000000000E+00 0.  1.
         12    1    4    4    0    0 -0.67845290843E+02  0.45661044307E+02 -0.45176876198E+02  0.93428392899E+02  0.00000000000E+00 0. -1.
         -5    1    5    5    0  502  0.92683417318E+02 -0.39665302122E+02  0.46328799628E+01  0.10103022130E+03  0.47000000000E+01 0.  1.
         13    1    6    6    0    0  0.25907580386E+02 -0.27378322307E+02  0.68149270300E+02  0.77878740977E+02  0.00000000000E+00 0. -1.
        -14    1    6    6    0    0 -0.30746196895E+02 -0.59317970787E+02  0.22109851501E+02  0.70376102586E+02  0.00000000000E+00 0.  1.
</event>
<event>
12    1  0.8633375E-002  0.2144512E+03  0.7818608E-02  0.1138188E+00
         21   -1    0    0  503  502  0.00000000000E+00  0.00000000000E+00  0.33605728038E+03  0.33605728038E+03  0.00000000000E+00 0. -1.
         21   -1    0    0  501  503 -0.00000000000E+00 -0.00000000000E+00 -0.17857513585E+03  0.17857513585E+03  0.00000000000E+00 0.  1.
          6    2    1    2  501    0  0.54308204358E+02  0.11550532628E+03  0.20353761338E+03  0.29529152562E+03  0.17169351642E+03 0.  0.
         24    2    3    3    0    0  0.61953438247E+02  0.70954592257E+01  0.12542477521E+03  0.16137045049E+03  0.80127860347E+02 0.  0.
         -6    2    1    2    0  502 -0.54308204358E+02 -0.11550532628E+03 -0.46055468848E+02  0.21934089062E+03  0.17233240737E+03 0.  0.
        -24    2    5    5    0    0 -0.80100583448E+01 -0.25554461327E+02  0.33356186090E+02  0.90643659223E+02  0.79915244343E+02 0.  0.
          5    1    3    3  501    0 -0.76452338888E+01  0.10840986705E+03  0.78112838173E+02  0.13392107513E+03  0.47000000000E+01 0. -1.
        -11    1    4    4    0    0  0.59205925898E+02  0.32120641707E+02  0.56247524585E+02  0.87754551489E+02  0.00000000000E+00 0.  1.
         12    1    4    4    0    0  0.27475123489E+01 -0.25025182481E+02  0.69177250621E+02  0.73615899001E+02  0.00000000000E+00 0. -1.
         -5    1    5    5    0  502 -0.46298146013E+02 -0.89950864950E+02 -0.79411654938E+02  0.12869723140E+03  0.47000000000E+01 0.  1.
         13    1    6    6    0    0  0.27812278825E+02 -0.32674608695E+02  0.32979886890E+02  0.54118627533E+02  0.00000000000E+00 0. -1.
        -14    1    6    6    0    0 -0.35822337169E+02  0.71201473681E+01  0.37629919966E+00  0.36525031689E+02  0.00000000000E+00 0.  1.
</event>
<event>
12    1  0.8633375E-002  0.2109323E+03  0.7818608E-02  0.1141101E+00
         21   -1    0    0  501  502  0.00000000000E+00  0.00000000000E+00  0.13920712857E+03  0.13920712857E+03  0.00000000000E+00 0. -1.
         21   -1    0    0  502  503 -0.00000000000E+00 -0.00000000000E+00 -0.44183635702E+03  0.44183635702E+03  0.00000000000E+00 0. -1.
         -6    2    1    2    0  503 -0.11214363492E+02  0.12307878584E+03 -0.30505194562E+03  0.37009724855E+03  0.16923691791E+03 0.  0.
        -24    2    3    3    0    0 -0.27334084590E+02  0.15268370831E+03 -0.24175175367E+03  0.29822721902E+03  0.80225287771E+02 0.  0.
          6    2    1    2  501    0  0.11214363492E+02 -0.12307878584E+03  0.24227171611E+01  0.21094623704E+03  0.17093360083E+03 0.  0.
         24    2    5    5    0    0 -0.59236511064E+02 -0.55282368584E+02  0.84876898907E+00  0.11304706835E+03  0.78827753576E+02 0.  0.
          5    1    5    5  501    0  0.70450874556E+02 -0.67796417255E+02  0.15739481720E+01  0.97899168695E+02  0.47000000000E+01 0. -1.
        -11    1    6    6    0    0 -0.19244551609E+02  0.93246906771E+01 -0.24897476122E+02  0.32820526201E+02  0.00000000000E+00 0.  1.
         12    1    6    6    0    0 -0.39991959455E+02 -0.64607059261E+02  0.25746245112E+02  0.80226542146E+02  0.00000000000E+00 0. -1.
         -5    1    3    3    0  503  0.16119721098E+02 -0.29604922476E+02 -0.63300191948E+02  0.71870029524E+02  0.47000000000E+01 0.  1.
         13    1    4    4    0    0 -0.41816936270E+02  0.32985138372E+02 -0.87633979175E+02  0.10254945060E+03  0.00000000000E+00 0. -1.
        -14    1    4    4    0    0  0.14482851680E+02  0.11969856994E+03 -0.15411777450E+03  0.19567776842E+03  0.00000000000E+00 0.  1.
</event>
<event>
12    1  0.8633375E-002  0.1898470E+03  0.7818608E-02  0.1159950E+00
         21   -1    0    0  501  502  0.00000000000E+00  0.00000000000E+00  0.31345090009E+03  0.31345090009E+03  0.00000000000E+00 0.  1.
         21   -1    0    0  502  503 -0.00000000000E+00 -0.00000000000E+00 -0.11775121671E+03  0.11775121671E+03  0.00000000000E+00 0.  1.
         -6    2    1    2    0  503 -0.67861701051E+02  0.62217321231E+01  0.46515328231E+02  0.18975265828E+03  0.17087561308E+03 0.  0.
        -24    2    3    3    0    0 -0.27395189713E+02  0.10119808422E+02  0.93716013074E+02  0.12728083913E+03  0.81023539545E+02 0.  0.
          6    2    1    2  501    0  0.67861701051E+02 -0.62217321231E+01  0.14918435515E+03  0.24144945853E+03  0.17719466352E+03 0.  0.
         24    2    5    5    0    0  0.55624517459E+02  0.59307793983E+02  0.56396544277E+02  0.12710115158E+03  0.79766102813E+02 0.  0.
          5    1    5    5  501    0  0.12237183592E+02 -0.65529526106E+02  0.92787810873E+02  0.11434830694E+03  0.47000000000E+01 0. -1.
        -11    1    6    6    0    0  0.45952151742E+02  0.49979419178E+02  0.76902614659E+02  0.10258437860E+03  0.00000000000E+00 0.  1.
         12    1    6    6    0    0  0.96723657167E+01  0.93283748048E+01 -0.20506070383E+02  0.24516772985E+02  0.00000000000E+00 0. -1.
         -5    1    3    3    0  503 -0.40466511338E+02 -0.38980762985E+01 -0.47200684843E+02  0.62471819154E+02  0.47000000000E+01 0.  1.
         13    1    4    4    0    0 -0.31581551315E+02  0.33181183074E+02  0.93186100946E+02  0.10383657690E+03  0.00000000000E+00 0. -1.
        -14    1    4    4    0    0  0.41863616020E+01 -0.23061374653E+02  0.52991212851E+00  0.23444262223E+02  0.00000000000E+00 0.  1.
</event>
<event>
12    1  0.8633375E-002  0.1725624E+03  0.7818608E-02  0.1175343E+00
         21   -1    0    0  503  502  0.00000000000E+00  0.00000000000E+00  0.89532746920E+03  0.89532746920E+03  0.00000000000E+00 0.  1.
         21   -1    0    0  501  503 -0.00000000000E+00 -0.00000000000E+00 -0.47581657726E+02  0.47581657726E+02  0.00000000000E+00 0.  1.
          6    2    1    2  501    0  0.91304036330E+01  0.97041356806E+01  0.16378637680E+03  0.23751684210E+03  0.17149559335E+03 0.  0.
         24    2    3    3    0    0  0.59686906543E+02  0.44784144823E+02  0.95104718426E+02  0.14518143598E+03  0.80402707947E+02 0.  0.
         -6    2    1    2    0  502 -0.91304036330E+01 -0.97041356806E+01  0.68395943467E+03  0.70539228482E+03  0.17204718157E+03 0.  0.
        -24    2    5    5    0    0  0.22649840905E+02 -0.66699254161E+02  0.43006435841E+03  0.44320298827E+03  0.80695295032E+02 0.  0.
          5    1    3    3  501    0 -0.50556502910E+02 -0.35080009142E+02  0.68681658374E+02  0.92335406128E+02  0.47000000000E+01 0. -1.
        -13    1    4    4    0    0  0.53478930321E+02  0.36953723922E+02  0.18025720672E+02  0.67457396227E+02  0.00000000000E+00 0.  1.
         14    1    4    4    0    0  0.62079762219E+01  0.78304209014E+01  0.77078997754E+02  0.77724039750E+02  0.00000000000E+00 0. -1.
         -5    1    5    5    0  502 -0.31780244538E+02  0.56995118481E+02  0.25389507626E+03  0.26218929655E+03  0.47000000000E+01 0.  1.
         11    1    6    6    0    0 -0.59593383487E+01 -0.41089287998E+02  0.72216996010E+02  0.83301487468E+02  0.00000000000E+00 0. -1.
        -12    1    6    6    0    0  0.28609179253E+02 -0.25609966163E+02  0.35784736240E+03  0.35990150080E+03  0.00000000000E+00 0.  1.
</event>
<event>
12    1  0.8633375E-002  0.2206588E+03  0.7818608E-02  0.1133650E+00
         21   -1    0    0  503  502  0.00000000000E+00  0.00000000000E+00  0.27516929095E+03  0.27516929095E+03  0.00000000000E+00 0.  1.
         21   -1    0    0  501  503 -0.00000000000E+00 -0.00000000000E+00 -0.20371378613E+03  0.20371378613E+03  0.00000000000E+00 0. -1.
          6    2    1    2  501    0 -0.13343364866E+03 -0.32928182778E+02 -0.52934520206E+02  0.22557850762E+03  0.17086484676E+03 0.  0.
         24    2    3    3    0    0 -0.14785028051E+03 -0.17828541245E+02 -0.83543671691E+02  0.18823083563E+03  0.79206944607E+02 0.  0.
         -6    2    1    2    0  502  0.13343364866E+03  0.32928182778E+02  0.12439002502E+03  0.25330456946E+03  0.17263117555E+03 0.  0.
        -24    2    5    5    0    0  0.11857066252E+03  0.37214697573E+01  0.19994513328E+02  0.14378537797E+03  0.78750257192E+02 0.  0.
          5    1    3    3  501    0  0.14416631854E+02 -0.15099641533E+02  0.30609151485E+02  0.37347671990E+02  0.47000000000E+01 0. -1.
        -11    1    4    4    0    0 -0.29658679439E+02 -0.36943151835E+02 -0.35602665926E+02  0.59261990809E+02  0.00000000000E+00 0.  1.
         12    1    4    4    0    0 -0.11819160107E+03  0.19114610590E+02 -0.47941005765E+02  0.12896884482E+03  0.00000000000E+00 0. -1.
         -5    1    5    5    0  502  0.14862986133E+02  0.29206713020E+02  0.10439551169E+03  0.10951919149E+03  0.47000000000E+01 0.  1.
         11    1    6    6    0    0  0.15095652819E+02  0.31652754169E+02  0.21741956980E+01  0.35135490710E+02  0.00000000000E+00 0. -1.
        -12    1    6    6    0    0  0.10347500970E+03 -0.27931284412E+02  0.17820317630E+02  0.10864988726E+03  0.00000000000E+00 0.  1.
</event>
<event>
12    1  0.8633375E-002  0.1925361E+03  0.7818608E-02  0.1156584E+00
         21   -1    0    0  501  502  0.00000000000E+00  0.00000000000E+00  0.68940545329E+03  0.68940545329E+03  0.00000000000E+00 0. -1.
         21   -1    0    0  502  503 -0.00000000000E+00 -0.00000000000E+00 -0.55176418814E+02  0.55176418814E+02  0.00000000000E+00 0.  1.
         -6    2    1    2    0  503  0.72175185689E+02  0.36551521795E+02  0.24953735317E+03  0.31518096233E+03  0.17471370069E+03 0.  0.
        -24    2    3    3    0    0  0.88070533914E+02  0.66102332311E+02  0.12142673897E+03  0.18266555957E+03  0.80599729742E+02 0.  0.
          6    2    1    2  501    0 -0.72175185689E+02 -0.36551521795E+02  0.38469168130E+03  0.42940090977E+03  0.17277783561E+03 0.  0.
         24    2    5    5    0    0 -0.49975853066E+02 -0.15743779370E+02  0.38668624597E+03  0.39854899246E+03  0.81053032589E+02 0.  0.
          5    1    5    5  501    0 -0.22199332624E+02 -0.20807742425E+02 -0.19945646663E+01  0.30851917315E+02  0.47000000000E+01 0. -1.
        -11    1    6    6    0    0  0.19624874474E+02 -0.88007325297E+01  0.46318090394E+02  0.51068131833E+02  0.00000000000E+00 0.  1.
         12    1    6    6    0    0 -0.69600727539E+02 -0.69430468404E+01  0.34036815557E+03  0.34748086063E+03  0.00000000000E+00 0. -1.
         -5    1    3    3    0  503 -0.15895348224E+02 -0.29550810515E+02  0.12811061420E+03  0.13251540276E+03  0.47000000000E+01 0.  1.
         13    1    4    4    0    0  0.43988551691E+02 -0.36987158002E+01  0.77401320026E+02  0.89104643651E+02  0.00000000000E+00 0. -1.
        -14    1    4    4    0    0  0.44081982223E+02  0.69801048111E+02  0.44025418947E+02  0.93560915919E+02  0.00000000000E+00 0.  1.
</event>
<event>
12    1  0.8633375E-002  0.2584664E+03  0.7818608E-02  0.1108477E+00
         21   -1    0    0  503  502  0.00000000000E+00  0.00000000000E+00  0.20912735210E+04  0.20912735210E+04  0.00000000000E+00 0. -1.
         21   -1    0    0  501  503 -0.00000000000E+00 -0.00000000000E+00 -0.32247090649E+02  0.32247090649E+02  0.00000000000E+00 0. -1.
          6    2    1    2  501    0  0.18884899448E+03 -0.39201822972E+01  0.11836244659E+04  0.12115163100E+04  0.17642443835E+03 0.  0.
         24    2    3    3    0    0  0.72419772380E+02  0.96763191365E+01  0.86911786746E+03  0.87584218365E+03  0.79971298136E+02 0.  0.
         -6    2    1    2    0  502 -0.18884899448E+03  0.39201822972E+01  0.87540196444E+03  0.91200430169E+03  0.17246430475E+03 0.  0.
        -24    2    5    5    0    0 -0.20991172414E+03  0.22938507642E+02  0.77300978653E+03  0.80564837390E+03  0.83283042876E+02 0.  0.
          5    1    3    3  501    0  0.11642922210E+03 -0.13596501434E+02  0.31450659848E+03  0.33567412634E+03  0.47000000000E+01 0. -1.
        -11    1    4    4    0    0 -0.16295328241E+02 -0.88672041910E+00  0.77556491151E+02  0.79254863039E+02  0.00000000000E+00 0.  1.
         12    1    4    4    0    0  0.88715100620E+02  0.10563039556E+02  0.79156137631E+03  0.79658732061E+03  0.00000000000E+00 0. -1.
         -5    1    5    5    0  502  0.21062729658E+02 -0.19018325344E+02  0.10239217792E+03  0.10635592780E+03  0.47000000000E+01 0.  1.
         13    1    6    6    0    0 -0.80261760977E+02  0.49951389644E+02  0.32741021258E+03  0.34078517999E+03  0.00000000000E+00 0. -1.
        -14    1    6    6    0    0 -0.12964996316E+03 -0.27012882003E+02  0.44559957395E+03  0.46486319390E+03  0.00000000000E+00 0.  1.
</event>
<event>
12    1  0.8633375E-002  0.1814450E+03  0.7818608E-02  0.1166882E+00
         21   -1    0    0  501  502  0.00000000000E+00  0.00000000000E+00  0.43382056269E+03  0.43382056269E+03  0.00000000000E+00 0. -1.
         21   -1    0    0  502  503 -0.00000000000E+00 -0.00000000000E+00 -0.75722756060E+02  0.75722756060E+02  0.00000000000E+00 0. -1.
         -6    2    1    2    0  503 -0.34457721088E+02 -0.40560142059E+02  0.20163950010E+03  0.26995726992E+03  0.17142339373E+03 0.  0.
        -24    2    3    3    0    0 -0.10517071052E+02  0.43192265859E+02  0.99377774950E+02  0.13554309289E+03  0.80745323479E+02 0.  0.
          6    2    1    2  501    0  0.34457721088E+02  0.40560142059E+02  0.15645830653E+03  0.23958604882E+03  0.17346415608E+03 0.  0.
         24    2    5    5    0    0  0.55987764314E+02  0.31139711268E+02  0.12549310647E+02  0.93695074555E+02  0.67208410392E+02 0.  0.
          5    1    5    5  501    0 -0.21530043226E+02  0.94204307906E+01  0.14390899588E+03  0.14589097427E+03  0.47000000000E+01 0. -1.
        -13    1    6    6    0    0  0.51786231710E+02  0.15839917743E+02  0.36254721539E+02  0.65169944167E+02  0.00000000000E+00 0.  1.
         14    1    6    6    0    0  0.42015326041E+01  0.15299793525E+02 -0.23705410892E+02  0.28525130388E+02  0.00000000000E+00 0. -1.
         -5    1    3    3    0  503 -0.23940650037E+02 -0.83752407918E+02  0.10226172515E+03  0.13441417703E+03  0.47000000000E+01 0.  1.
         11    1    4    4    0    0  0.19850058073E+02  0.39674883412E+02  0.16713672300E+02  0.47407467988E+02  0.00000000000E+00 0. -1.
        -12    1    4    4    0    0 -0.30367129125E+02  0.35173824466E+01  0.82664102650E+02  0.88135624906E+02  0.00000000000E+00 0.  1.
</event>
<event>
12    1  0.8633375E-002  0.1912556E+03  0.7818608E-02  0.1157898E+00
         21   -1    0    0  501  502  0.00000000000E+00  0.00000000000E+00  0.26651249343E+03  0.26651249343E+03  0.00000000000E+00 0.  1.
         21   -1    0    0  502  503 -0.00000000000E+00 -0.00000000000E+00 -0.24171528574E+03  0.24171528574E+03  0.00000000000E+00 0.  1.
         -6    2    1    2    0  503  0.10104790796E+02  0.77233618627E+02 -0.15603655814E+03  0.24683212737E+03  0.17467556493E+03 0.  0.
        -24    2    3    3    0    0 -0.44573730746E+02  0.24032749163E+02 -0.13961383134E+03  0.16865368287E+03  0.79922789853E+02 0.  0.
          6    2    1    2  501    0 -0.10104790796E+02 -0.77233618627E+02  0.18083376583E+03  0.26139565180E+03  0.17192933802E+03 0.  0.
         24    2    5    5    0    0  0.20637957698E+02 -0.18602955302E+02  0.17721455644E+02  0.85297988550E+02  0.78674656762E+02 0.  0.
          5    1    5    5  501    0 -0.30742748494E+02 -0.58630663326E+02  0.16311231019E+03  0.17609766325E+03  0.47000000000E+01 0. -1.
        -11    1    6    6    0    0  0.45136269913E+02 -0.21408836059E+02  0.29451716725E+02  0.57991591987E+02  0.00000000000E+00 0.  1.
         12    1    6    6    0    0 -0.24498312215E+02  0.28058807577E+01 -0.11730261081E+02  0.27306396563E+02  0.00000000000E+00 0. -1.
         -5    1    3    3    0  503  0.54678521543E+02  0.53200869465E+02 -0.16422726799E+02  0.78178444506E+02  0.47000000000E+01 0.  1.
         13    1    4    4    0    0 -0.43806364940E+02  0.61297746885E+01 -0.21487742597E+02  0.49176161185E+02  0.00000000000E+00 0. -1.
        -14    1    4    4    0    0 -0.76736580643E+00  0.17902974474E+02 -0.11812608874E+03  0.11947752168E+03  0.00000000000E+00 0.  1.
</event>
<event>
12    1  0.8633375E-002  0.1893669E+03  0.7818608E-02  0.1161709E+00
         21   -1    0    0  503  502  0.00000000000E+00  0.00000000000E+00  0.23595392341E+03  0.23595392341E+03  0.00000000000E+00 0. -1.
         21   -1    0    0  501  503 -0.00000000000E+00 -0.00000000000E+00 -0.20991028962E+03  0.20991028962E+03  0.00000000000E+00 0.  1.
          6    2    1    2  501    0 -0.63959774774E+02  0.28868730264E+02  0.13861848994E+03  0.22556233272E+03  0.16352071371E+03 0.  0.
         24    2    3    3    0    0 -0.62463611056E+02 -0.31664164676E+02  0.12842768612E+03  0.16397976735E+03  0.74103788742E+02 0.  0.
         -6    2    1    2    0  502  0.63959774774E+02 -0.28868730264E+02 -0.11257485615E+03  0.22030188031E+03  0.17588508708E+03 0.  0.
        -24    2    5    5    0    0 -0.13338461220E+02 -0.67659678461E+02 -0.63623652636E+02  0.12081285943E+03  0.76105395295E+02 0.  0.
          5    1    3    3  501    0 -0.14961637179E+01  0.60532894941E+02  0.10190803822E+02  0.61582565376E+02  0.47000000000E+01 0. -1.
        -11    1    4    4    0    0 -0.63785288766E+02 -0.50566590962E+02  0.91438121684E+02  0.12241925209E+03  0.00000000000E+00 0.  1.
         12    1    4    4    0    0  0.13216777095E+01  0.18902426285E+02  0.36989564438E+02  0.41560515261E+02  0.00000000000E+00 0. -1.
         -5    1    5    5    0  502  0.77298235994E+02  0.38790948196E+02 -0.48951203516E+02  0.99489020879E+02  0.47000000000E+01 0.  1.
         13    1    6    6    0    0 -0.13606306922E+02 -0.74796801017E+02 -0.22800638468E+02  0.79369781056E+02  0.00000000000E+00 0. -1.
        -14    1    6    6    0    0  0.26784570146E+00  0.71371225562E+01 -0.40823014168E+02  0.41443078378E+02  0.00000000000E+00 0.  1.
</event>
<event>
12    1  0.8633375E-002  0.1828515E+03  0.7818608E-02  0.1165459E+00
         21   -1    0    0  501  502  0.00000000000E+00  0.00000000000E+00  0.29898520658E+02  0.29898520658E+02  0.00000000000E+00 0. -1.
         21   -1    0    0  502  503 -0.00000000000E+00 -0.00000000000E+00 -0.14902626901E+04  0.14902626901E+04  0.00000000000E+00 0. -1.
         -6    2    1    2    0  503 -0.44832604838E+02 -0.35838124102E+02 -0.11173896657E+04  0.11322518870E+04  0.17360972600E+03 0.  0.
        -24    2    3    3    0    0 -0.45727653487E+02 -0.15715051768E+02 -0.11035523961E+04  0.11073661645E+04  0.78063757488E+02 0.  0.
          6    2    1    2  501    0  0.44832604838E+02  0.35838124102E+02 -0.34297450375E+03  0.38790932379E+03  0.17189473425E+03 0.  0.
         24    2    5    5    0    0  0.91492159728E+02  0.35277769321E+02 -0.19267287506E+03  0.23046060945E+03  0.79836829995E+02 0.  0.
          5    1    5    5  501    0 -0.46659554890E+02  0.56035478089E+00 -0.15030162869E+03  0.15744871434E+03  0.47000000000E+01 0. -1.
        -13    1    6    6    0    0  0.94175182529E+01 -0.95116247475E+01 -0.92376991167E+02  0.93341679610E+02  0.00000000000E+00 0.  1.
         14    1    6    6    0    0  0.82074641475E+02  0.44789394069E+02 -0.10029588390E+03  0.13711892984E+03  0.00000000000E+00 0. -1.
         -5    1    3    3    0  503  0.89504864915E+00 -0.20123072334E+02 -0.13837269586E+02  0.24885722449E+02  0.47000000000E+01 0.  1.
         13    1    4    4    0    0 -0.85855172249E+01 -0.44028913246E+02 -0.58265929121E+03  0.58438352641E+03  0.00000000000E+00 0. -1.
        -14    1    4    4    0    0 -0.37142136262E+02  0.28313861477E+02 -0.52089310490E+03  0.52298263812E+03  0.00000000000E+00 0.  1.
</event>
<event>
12    1  0.8633375E-002  0.1811578E+03  0.7818608E-02  0.1167133E+00
         21   -1    0    0  501  502  0.00000000000E+00  0.00000000000E+00  0.15072196982E+03  0.15072196982E+03  0.00000000000E+00 0.  1.
         21   -1    0    0  502  503 -0.00000000000E+00 -0.00000000000E+00 -0.86104943401E+03  0.86104943401E+03  0.00000000000E+00 0.  1.
         -6    2    1    2    0  503  0.13055720388E+02 -0.52487535444E+02 -0.79363779422E+03  0.81405104272E+03  0.17289522415E+03 0.  0.
        -24    2    3    3    0    0  0.15294290911E+02  0.22505389858E+01 -0.70612989614E+03  0.71070216650E+03  0.78988347146E+02 0.  0.
          6    2    1    2  501    0 -0.13055720388E+02  0.52487535444E+02  0.83310330035E+02  0.19772036110E+03  0.17096004473E+03 0.  0.
         24    2    5    5    0    0 -0.58965850952E+02 -0.14769621717E+01  0.16572536252E+02  0.10027329747E+03  0.79378411627E+02 0.  0.
          5    1    5    5  501    0  0.45910130565E+02  0.53964497616E+02  0.66737793783E+02  0.97447063632E+02  0.47000000000E+01 0. -1.
        -11    1    6    6    0    0  0.11850040293E+02  0.20597636778E+02  0.10081279271E+02  0.25813141760E+02  0.00000000000E+00 0.  1.
         12    1    6    6    0    0 -0.70815891245E+02 -0.22074598950E+02  0.64912569812E+01  0.74460155713E+02  0.00000000000E+00 0. -1.
         -5    1    3    3    0  503 -0.22385705233E+01 -0.54738074430E+02 -0.87507898075E+02  0.10334887622E+03  0.47000000000E+01 0.  1.
         11    1    4    4    0    0  0.27472336099E+02  0.23279135330E+02 -0.15873173953E+03  0.16276489955E+03  0.00000000000E+00 0. -1.
        -12    1    4    4    0    0 -0.12178045188E+02 -0.21028596344E+02 -0.54739815661E+03  0.54793726695E+03  0.00000000000E+00 0.  1.
</event>
<event>
12    1  0.8633375E-002  0.2545399E+03  0.7818608E-02  0.1110585E+00
         21   -1    0    0  503  502  0.00000000000E+00  0.00000000000E+00  0.32301960197E+03  0.32301960197E+03  0.00000000000E+00 0.  1.
         21   -1    0    0  501  503 -0.00000000000E+00 -0.00000000000E+00 -0.34208870356E+03  0.34208870356E+03  0.00000000000E+00 0.  1.
          6    2    1    2  501    0  0.17293982145E+03 -0.72024451584E+02 -0.22386116435E+03  0.33841216758E+03  0.17121118770E+03 0.  0.
         24    2    3    3    0    0  0.19254243179E+03 -0.53940486545E+02 -0.15785011927E+03  0.26706204357E+03  0.80145560307E+02 0.  0.
         -6    2    1    2    0  502 -0.17293982145E+03  0.72024451584E+02  0.20479206275E+03  0.32669613795E+03  0.17232200705E+03 0.  0.
        -24    2    5    5    0    0 -0.13980884847E+02  0.31914240871E+01  0.73255419753E+02  0.10914175934E+03  0.79623594364E+02 0.  0.
          5    1    3    3  501    0 -0.19602610334E+02 -0.18083965039E+02 -0.66011045075E+02  0.71350124004E+02  0.47000000000E+01 0. -1.
        -13    1    4    4    0    0  0.35376824440E+02 -0.29753451029E+02 -0.74109346052E+02  0.87344048039E+02  0.00000000000E+00 0.  1.
         14    1    4    4    0    0  0.15716560735E+03 -0.24187035516E+02 -0.83740773219E+02  0.17971799553E+03  0.00000000000E+00 0. -1.
         -5    1    5    5    0  502 -0.15895893660E+03  0.68833027497E+02  0.13153664300E+03  0.21755437861E+03  0.47000000000E+01 0.  1.
         13    1    6    6    0    0 -0.25214580493E+02  0.26436013090E+01  0.87438867311E+02  0.91040206579E+02  0.00000000000E+00 0. -1.
        -14    1    6    6    0    0  0.11233695646E+02  0.54782277805E+00 -0.14183447558E+02  0.18101552759E+02  0.00000000000E+00 0.  1.
</event>
<event>
12    1  0.8633375E-002  0.1881472E+03  0.7818608E-02  0.1160578E+00
         21   -1    0    0  501  502  0.00000000000E+00  0.00000000000E+00  0.14361445658E+03  0.14361445658E+03  0.00000000000E+00 0. -1.
         21   -1    0    0  502  503 -0.00000000000E+00 -0.00000000000E+00 -0.24942232058E+03  0.24942232058E+03  0.00000000000E+00 0. -1.
         -6    2    1    2    0  503  0.53197309821E+02 -0.43195459876E+02 -0.82107808329E+02  0.20528284314E+03  0.17522429047E+03 0.  0.
        -24    2    3    3    0    0  0.70633397525E+01 -0.66344529892E+02  0.38535445144E+00  0.10785884947E+03  0.84746064777E+02 0.  0.
          6    2    1    2  501    0 -0.53197309821E+02  0.43195459876E+02 -0.23700055677E+02  0.18775393402E+03  0.17318789096E+03 0.  0.
         24    2    5    5    0    0 -0.49977585148E+02  0.30043953339E+02 -0.82625860321E+02  0.12711014453E+03  0.77003622636E+02 0.  0.
          5    1    5    5  501    0 -0.32197246726E+01  0.13151506538E+02  0.58925804644E+02  0.60643789493E+02  0.47000000000E+01 0. -1.
        -13    1    6    6    0    0  0.20548578487E+02  0.18901396942E+01 -0.18680854264E+02  0.27835068204E+02  0.00000000000E+00 0.  1.
         14    1    6    6    0    0 -0.70526163635E+02  0.28153813644E+02 -0.63945006057E+02  0.99275076325E+02  0.00000000000E+00 0. -1.
         -5    1    3    3    0  503  0.46133970068E+02  0.23149070016E+02 -0.82493162780E+02  0.97423993669E+02  0.47000000000E+01 0.  1.
         13    1    4    4    0    0  0.36518427944E+02 -0.42931663619E+02  0.26274675212E+02  0.62185865581E+02  0.00000000000E+00 0. -1.
        -14    1    4    4    0    0 -0.29455088192E+02 -0.23412866273E+02 -0.25889320761E+02  0.45672983885E+02  0.00000000000E+00 0.  1.
</event>
<event>
12    1  0.8633375E-002  0.2030422E+03  0.7818608E-02  0.1147456E+00
         21   -1    0    0  503  502  0.00000000000E+00  0.00000000000E+00  0.13631922332E+03  0.13631922332E+03  0.00000000000E+00 0. -1.
         21   -1    0    0  501  503 -0.00000000000E+00 -0.00000000000E+00 -0.91498361348E+03  0.91498361348E+03  0.00000000000E+00 0. -1.
          6    2    1    2  501    0  0.95346278643E+02 -0.52052762261E+02 -0.82047308404E+03  0.84522318608E+03  0.17153935336E+03 0.  0.
         24    2    3    3    0    0  0.99550941570E+02 -0.14627475674E+02 -0.77781058692E+03  0.78812231107E+03  0.77608730666E+02 0.  0.
         -6    2    1    2    0  502 -0.95346278643E+02  0.52052762261E+02  0.41808693874E+02  0.20607965071E+03  0.17006014420E+03 0.  0.
        -24    2    5    5    0    0 -0.71215598625E+02  0.29780886909E+01  0.85337729406E+02  0.13602624081E+03  0.78358660212E+02 0.  0.
          5    1    3    3  501    0 -0.42046629267E+01 -0.37425286587E+02 -0.42662497119E+02  0.57100875010E+02  0.47000000000E+01 0. -1.
        -13    1    4    4    0    0  0.36597014796E+02 -0.14754238912E+02 -0.10169356352E+03  0.10908074953E+03  0.00000000000E+00 0.  1.
         14    1    4    4    0    0  0.62953926774E+02  0.12676323763E+00 -0.67611702340E+03  0.67904156154E+03  0.00000000000E+00 0. -1.
         -5    1    5    5    0  502 -0.24130680018E+02  0.49074673570E+02 -0.43529035532E+02  0.70053409899E+02  0.47000000000E+01 0.  1.
         11    1    6    6    0    0 -0.49297404322E+02 -0.34287320604E+02  0.34359960312E+02  0.69184256155E+02  0.00000000000E+00 0. -1.
        -12    1    6    6    0    0 -0.21918194304E+02  0.37265409295E+02  0.50977769095E+02  0.66841984660E+02  0.00000000000E+00 0.  1.
</event>
<event>
12    1  0.8633375E-002  0.1806282E+03  0.7818608E-02  0.1169244E+00
         21   -1    0    0  503  502  0.00000000000E+00  0.00000000000E+00  0.31571027929E+03  0.31571027929E+03  0.00000000000E+00 0.  1.
         21   -1    0    0  501  503 -0.00000000000E+00 -0.00000000000E+00 -0.24263431458E+03  0.24263431458E+03  0.00000000000E+00 0.  1.
          6    2    1    2  501    0 -0.32396091743E+02  0.28728313392E+02 -0.17814188866E+03  0.25369483917E+03  0.17536167249E+03 0.  0.
         24    2    3    3    0    0  0.61282787922E+01  0.25831959880E+02 -0.10534792100E+02  0.81628733255E+02  0.76468439869E+02 0.  0.
         -6    2    1    2    0  502  0.32396091743E+02 -0.28728313392E+02  0.25121785337E+03  0.30464975470E+03  0.16681199129E+03 0.  0.
        -24    2    5    5    0    0  0.16158829231E+02 -0.37626477679E+02  0.49296094467E+02  0.10182640116E+03  0.79130597493E+02 0.  0.
          5    1    3    3  501    0 -0.38524370535E+02  0.28963535123E+01 -0.16760709656E+03  0.17206610592E+03  0.47000000000E+01 0. -1.
        -13    1    4    4    0    0  0.24398778514E+02  0.26207227675E+02 -0.35677117178E+02  0.50546769091E+02  0.00000000000E+00 0.  1.
         14    1    4    4    0    0 -0.18270499722E+02 -0.37526779536E+00  0.25142325077E+02  0.31081964164E+02  0.00000000000E+00 0. -1.
         -5    1    5    5    0  502  0.16237262512E+02  0.88981642872E+01  0.20192175891E+03  0.20282335354E+03  0.47000000000E+01 0.  1.
         13    1    6    6    0    0 -0.24247079275E+02  0.10321104180E+02  0.13145706245E+02  0.29449204362E+02  0.00000000000E+00 0. -1.
        -14    1    6    6    0    0  0.40405908506E+02 -0.47947581859E+02  0.36150388223E+02  0.72377196802E+02  0.00000000000E+00 0.  1.
</event>
<event>
12    1  0.8633375E-002  0.1752673E+03  0.7818608E-02  0.1173338E+00
         21   -1    0    0  501  502  0.00000000000E+00  0.00000000000E+00  0.13299171243E+03  0.13299171243E+03  0.00000000000E+00 0. -1.
         21   -1    0    0  502  503 -0.00000000000E+00 -0.00000000000E+00 -0.51695847277E+03  0.51695847277E+03  0.00000000000E+00 0.  1.
         -6    2    1    2    0  503 -0.28107947059E+02 -0.20285979608E+02 -0.43642573177E+03  0.47030418743E+03  0.17180521444E+03 0.  0.
        -24    2    3    3    0    0 -0.16955321219E+02  0.22366280803E+02 -0.10435165623E+03  0.13528347460E+03  0.81391749626E+02 0.  0.
          6    2    1    2  501    0  0.28107947059E+02  0.20285979608E+02  0.52458971431E+02  0.17964599777E+03  0.16828298540E+03 0.  0.
         24    2    5    5    0    0  0.36860485257E+02 -0.29929979059E+02 -0.16003727246E+02  0.94162194978E+02  0.79723902673E+02 0.  0.
          5    1    5    5  501    0 -0.87525381988E+01  0.50215958667E+02  0.68462698678E+02  0.85483802793E+02  0.47000000000E+01 0. -1.
        -11    1    6    6    0    0 -0.17247845663E+02 -0.31095505047E+02  0.53928058516E+01  0.35965274489E+02  0.00000000000E+00 0.  1.
         12    1    6    6    0    0  0.54108330920E+02  0.11655259878E+01 -0.21396533098E+02  0.58196920489E+02  0.00000000000E+00 0. -1.
         -5    1    3    3    0  503 -0.11152625840E+02 -0.42652260411E+02 -0.33207407554E+03  0.33502071283E+03  0.47000000000E+01 0.  1.
         13    1    4    4    0    0 -0.38400395109E+02 -0.81222532762E+01 -0.22253865124E+02  0.45119794500E+02  0.00000000000E+00 0. -1.
        -14    1    4    4    0    0  0.21445073890E+02  0.30488534079E+02 -0.82097791108E+02  0.90163680101E+02  0.00000000000E+00 0.  1.
</event>
<event>
12    1  0.8633375E-002  0.1737306E+03  0.7818608E-02  0.1174057E+00
         21   -1    0    0  503  502  0.00000000000E+00  0.00000000000E+00  0.40005590965E+03  0.40005590965E+03  0.00000000000E+00 0. -1.
         21   -1    0    0  501  503 -0.00000000000E+00 -0.00000000000E+00 -0.16949445006E+03  0.16949445006E+03  0.00000000000E+00 0. -1.
          6    2    1    2  501    0 -0.22947376327E+02  0.17284080424E+01 -0.96909641538E+02  0.19893165302E+03  0.17219975167E+03 0.  0.
         24    2    3    3    0    0 -0.11698150568E+02  0.32928808696E+02  0.95320769192E+01  0.87343394189E+02  0.79478643982E+02 0.  0.
         -6    2    1    2    0  502  0.22947376327E+02 -0.17284080424E+01  0.32747110114E+03  0.37061870669E+03  0.17202131901E+03 0.  0.
        -24    2    5    5    0    0  0.66627739320E+02 -0.34163084103E+02  0.27272300334E+03  0.29329195495E+03  0.77691455939E+02 0.  0.
          5    1    3    3  501    0 -0.11249225759E+02 -0.31200400654E+02 -0.10644171846E+03  0.11158825883E+03  0.47000000000E+01 0. -1.
        -13    1    4    4    0    0  0.27045572596E+02  0.39108870698E+02  0.39269608479E+01  0.47711505801E+02  0.00000000000E+00 0.  1.
         14    1    4    4    0    0 -0.38743723164E+02 -0.61800620021E+01  0.56051160713E+01  0.39631888388E+02  0.00000000000E+00 0. -1.
         -5    1    5    5    0  502 -0.43680362993E+02  0.32434676060E+02  0.54748097798E+02  0.77326751741E+02  0.47000000000E+01 0.  1.
         13    1    6    6    0    0 -0.10803110446E+02 -0.17734787602E+02  0.11456901097E+03  0.11643576839E+03  0.00000000000E+00 0. -1.
        -14    1    6    6    0    0  0.77430849766E+02 -0.16428296501E+02  0.15815399237E+03  0.17685618656E+03  0.00000000000E+00 0.  1.
</event>
<event>
12    1  0.8633375E-002  0.1834663E+03  0.7818608E-02  0.1165336E+00
         21   -1    0    0  503  502  0.00000000000E+00  0.00000000000E+00  0.28820792526E+02  0.28820792526E+02  0.00000000000E+00 0.  1.
         21   -1    0    0  501  503 -0.00000000000E+00 -0.00000000000E+00 -0.17589303450E+04  0.17589303450E+04  0.00000000000E+00 0.  1.
          6    2    1    2  501    0  0.41703838710E+02 -0.24972002270E+02 -0.13874490371E+04  0.13990660519E+04  0.17322868118E+03 0.  0.
         24    2    3    3    0    0  0.89908175337E+02 -0.22011564132E+02 -0.72363923372E+03  0.73348512720E+03  0.76017776221E+02 0.  0.
         -6    2    1    2    0  502 -0.41703838710E+02  0.24972002270E+02 -0.34266051536E+03  0.38868508561E+03  0.17690973949E+03 0.  0.
        -24    2    5    5    0    0 -0.41868087891E+02 -0.40462342613E+02 -0.28351832460E+03  0.30035859357E+03  0.80265225295E+02 0.  0.
          5    1    3    3  501    0 -0.48204336627E+02 -0.29604381385E+01 -0.66380980337E+03  0.66558092469E+03  0.47000000000E+01 0. -1.
        -13    1    4    4    0    0  0.18363490287E+02 -0.31557754055E+02 -0.41116253750E+03  0.41278050082E+03  0.00000000000E+00 0.  1.
         14    1    4    4    0    0  0.71544685050E+02  0.95461899229E+01 -0.31247669622E+03  0.32070462638E+03  0.00000000000E+00 0. -1.
         -5    1    5    5    0  502  0.16424918137E+00  0.65434344883E+02 -0.59142190757E+02  0.88326492037E+02  0.47000000000E+01 0.  1.
         11    1    6    6    0    0  0.17832811884E+02 -0.33794689840E+02 -0.13021624385E+03  0.13570689151E+03  0.00000000000E+00 0. -1.
        -12    1    6    6    0    0 -0.59700899776E+02 -0.66676527726E+01 -0.15330208075E+03  0.16465170206E+03  0.00000000000E+00 0.  1.
</event>
<event>
12    1  0.8633375E-002  0.1879627E+03  0.7818608E-02  0.1162177E+00
         21   -1    0    0  501  502  0.00000000000E+00  0.00000000000E+00  0.69226814498E+02  0.69226814498E+02  0.00000000000E+00 0. -1.
         21   -1    0    0  502  503 -0.00000000000E+00 -0.00000000000E+00 -0.50809611196E+03  0.50809611196E+03  0.00000000000E+00 0. -1.
         -6    2    1    2    0  503 -0.48490439969E+02  0.28242850727E+02 -0.28004832706E+03  0.33727889439E+03  0.17939065117E+03 0.  0.
        -24    2    3    3    0    0  0.38271728238E+02 -0.12564372511E+02 -0.10640569083E+03  0.13886831399E+03  0.79621912496E+02 0.  0.
          6    2    1    2  501    0  0.48490439969E+02 -0.28242850727E+02 -0.15882097041E+03  0.24004403207E+03  0.17102062831E+03 0.  0.
         24    2    5    5    0    0  0.18513396138E+02 -0.81621349821E+02 -0.81970119517E+02  0.14167721549E+03  0.79677740373E+02 0.  0.
          5    1    5    5  501    0  0.29977043831E+02  0.53378499094E+02 -0.76850850892E+02  0.98366816586E+02  0.47000000000E+01 0. -1.
        -13    1    6    6    0    0 -0.10874216071E+02 -0.52725476283E+02 -0.46210149537E+01  0.54033121357E+02  0.00000000000E+00 0.  1.
         14    1    6    6    0    0  0.29387612208E+02 -0.28895873538E+02 -0.77349104563E+02  0.87644094128E+02  0.00000000000E+00 0. -1.
         -5    1    3    3    0  503 -0.86762168207E+02  0.40807223238E+02 -0.17364263623E+03  0.19841058040E+03  0.47000000000E+01 0.  1.
         13    1    4    4    0    0  0.32324983476E+02 -0.36739319983E+02 -0.27510361310E+02  0.56138241590E+02  0.00000000000E+00 0. -1.
        -14    1    4    4    0    0  0.59467447628E+01  0.24174947472E+02 -0.78895329521E+02  0.82730072397E+02  0.00000000000E+00 0.  1.
</event>
<event>
12    1  0.8633375E-002  0.2213692E+03  0.7818608E-02  0.1132911E+00
         21   -1    0    0  503  502  0.00000000000E+00  0.00000000000E+00  0.50932274793E+03  0.50932274793E+03  0.00000000000E+00 0.  1.
         21   -1    0    0  501  503 -0.00000000000E+00 -0.00000000000E+00 -0.12269411178E+03  0.12269411178E+03  0.00000000000E+00 0.  1.
          6    2    1    2  501    0  0.11488652065E+03  0.77924363458E+02  0.46137788852E+02  0.22589084394E+03  0.17212454435E+03 0.  0.
         24    2    3    3    0    0  0.10110921350E+03  0.69157473010E+02  0.94867793966E+02  0.17428293796E+03  0.79804855773E+02 0.  0.
         -6    2    1    2    0  502 -0.11488652065E+03 -0.77924363458E+02  0.34049084730E+03  0.40612601577E+03  0.17243318863E+03 0.  0.
        -24    2    5    5    0    0 -0.92667332426E+01  0.16006129328E+02  0.94754922112E+02  0.12260051093E+03  0.75566669200E+02 0.  0.
          5    1    3    3  501    0  0.13777307150E+02  0.87668904484E+01 -0.48730005115E+02  0.51607905973E+02  0.47000000000E+01 0. -1.
        -11    1    4    4    0    0  0.10198891224E+02  0.61946745903E+01 -0.14480902868E+02  0.18764006058E+02  0.00000000000E+00 0.  1.
         12    1    4    4    0    0  0.90910322279E+02  0.62962798419E+02  0.10934869683E+03  0.15551893191E+03  0.00000000000E+00 0. -1.
         -5    1    5    5    0  502 -0.10561978741E+03 -0.93930492786E+02  0.24573592519E+03  0.28352550484E+03  0.47000000000E+01 0.  1.
         13    1    6    6    0    0  0.18365742276E+01 -0.25682518219E+02  0.65758067140E+02  0.70619318469E+02  0.00000000000E+00 0. -1.
        -14    1    6    6    0    0 -0.11103307470E+02  0.41688647548E+02  0.28996854972E+02  0.51981192458E+02  0.00000000000E+00 0.  1.
</event>
<event>
12    1  0.8633375E-002  0.3995578E+03  0.7818608E-02  0.1043954E+00
         21   -1    0    0  503  502  0.00000000000E+00  0.00000000000E+00  0.12931794820E+03  0.12931794820E+03  0.00000000000E+00 0. -1.
         21   -1    0    0  501  503 -0.00000000000E+00 -0.00000000000E+00 -0.14977780882E+04  0.14977780882E+04  0.00000000000E+00 0.  1.
          6    2    1    2  501    0  0.19003289403E+03  0.30640465646E+03 -0.10259583339E+04  0.11010163247E+04  0.17219213076E+03 0.  0.
         24    2    3    3    0    0  0.13051260463E+03  0.10316859482E+03 -0.55147500975E+03  0.58139715977E+03  0.78871237351E+02 0.  0.
         -6    2    1    2    0  502 -0.19003289403E+03 -0.30640465646E+03 -0.34250180602E+03  0.52607971169E+03  0.17162768310E+03 0.  0.
        -24    2    5    5    0    0 -0.37648510095E+02 -0.99705586543E+02 -0.16032476277E+03  0.21118914171E+03  0.86822864036E+02 0.  0.
          5    1    3    3  501    0  0.59520289403E+02  0.20323606164E+03 -0.47448332420E+03  0.51961916491E+03  0.47000000000E+01 0. -1.
        -11    1    4    4    0    0  0.90921569403E+02  0.10833588015E+03 -0.46727438227E+03  0.48820973263E+03  0.00000000000E+00 0.  1.
         12    1    4    4    0    0  0.39591035225E+02 -0.51672853296E+01 -0.84200627476E+02  0.93187427130E+02  0.00000000000E+00 0. -1.
         -5    1    5    5    0  502 -0.15238438394E+03 -0.20669906992E+03 -0.18217704325E+03  0.31489056997E+03  0.47000000000E+01 0.  1.
         13    1    6    6    0    0 -0.38211882891E+02 -0.11405394457E+03 -0.15423021681E+03  0.19558990271E+03  0.00000000000E+00 0. -1.
        -14    1    6    6    0    0  0.56337279615E+00  0.14348358025E+02 -0.60945459595E+01  0.15599238999E+02  0.00000000000E+00 0.  1.
</event>
<event>
12    1  0.8633375E-002  0.1751697E+03  0.7818608E-02  0.1173369E+00
         21   -1    0    0  503  502  0.00000000000E+00  0.00000000000E+00  0.22658274599E+03  0.22658274599E+03  0.00000000000E+00 0.  1.
         21   -1    0    0  501  503 -0.00000000000E+00 -0.00000000000E+00 -0.30231824571E+03  0.30231824571E+03  0.00000000000E+00 0.  1.
          6    2    1    2  501    0  0.13705490225E+02 -0.10954679799E+02 -0.23563788871E+03  0.29172343277E+03  0.17108331642E+03 0.  0.
         24    2    3    3    0    0  0.26984531071E+02 -0.67294229023E+01 -0.25432936790E+03  0.26794009583E+03  0.79592823329E+02 0.  0.
         -6    2    1    2    0  502 -0.13705490225E+02  0.10954679799E+02  0.15990238899E+03  0.23717755893E+03  0.17428876896E+03 0.  0.
        -24    2    5    5    0    0  0.14337875146E+02 -0.19439253080E+02  0.11973902484E+02  0.83505347339E+02  0.79033597093E+02 0.  0.
          5    1    3    3  501    0 -0.13279040847E+02 -0.42252568967E+01  0.18691479191E+02  0.23783336939E+02  0.47000000000E+01 0. -1.
        -11    1    4    4    0    0 -0.16595993348E+01 -0.29511560471E+02 -0.36072998384E+02  0.46636334374E+02  0.00000000000E+00 0.  1.
         12    1    4    4    0    0  0.28644130406E+02  0.22782137569E+02 -0.21825636952E+03  0.22130376145E+03  0.00000000000E+00 0. -1.
         -5    1    5    5    0  502 -0.28043365371E+02  0.30393932879E+02  0.14792848650E+03  0.15367221159E+03  0.47000000000E+01 0.  1.
         13    1    6    6    0    0 -0.16792556138E+02 -0.40799145438E+02  0.12108783099E+02  0.45751315153E+02  0.00000000000E+00 0. -1.
        -14    1    6    6    0    0  0.31130431284E+02  0.21359892359E+02 -0.13488061554E+00  0.37754032186E+02  0.00000000000E+00 0.  1.
</event>
<event>
12    1  0.8633375E-002  0.2240929E+03  0.7818608E-02  0.1131691E+00
         21   -1    0    0  503  502  0.00000000000E+00  0.00000000000E+00  0.27843711715E+02  0.27843711715E+02  0.00000000000E+00 0. -1.
         21   -1    0    0  501  503 -0.00000000000E+00 -0.00000000000E+00 -0.17721228715E+04  0.17721228715E+04  0.00000000000E+00 0. -1.
          6    2    1    2  501    0 -0.37516982944E+02 -0.13102140928E+03 -0.83615161455E+03  0.86565994542E+03  0.17788615710E+03 0.  0.
         24    2    3    3    0    0 -0.36525946530E+02 -0.28840210916E+01 -0.23706630930E+03  0.25300550336E+03  0.80429393751E+02 0.  0.
         -6    2    1    2    0  502  0.37516982944E+02  0.13102140928E+03 -0.90812754519E+03  0.93430663775E+03  0.17221823747E+03 0.  0.
        -24    2    5    5    0    0  0.18962767779E+02  0.15568892383E+03 -0.85439216123E+03  0.87215901781E+03  0.77953573497E+02 0.  0.
          5    1    3    3  501    0 -0.99103641388E+00 -0.12813738818E+03 -0.59908530525E+03  0.61265444206E+03  0.47000000000E+01 0. -1.
        -13    1    4    4    0    0  0.15875899113E+02  0.24359603970E+02 -0.69580796252E+02  0.75411681358E+02  0.00000000000E+00 0.  1.
         14    1    4    4    0    0 -0.52401845643E+02 -0.27243625061E+02 -0.16748551305E+03  0.17759382200E+03  0.00000000000E+00 0. -1.
         -5    1    5    5    0  502  0.18554215165E+02 -0.24667514552E+02 -0.53735383964E+02  0.62147619940E+02  0.47000000000E+01 0.  1.
         11    1    6    6    0    0 -0.19933623783E+02  0.12170547603E+03 -0.61917753223E+03  0.63134015291E+03  0.00000000000E+00 0. -1.
        -12    1    6    6    0    0  0.38896391562E+02  0.33983447801E+02 -0.23521462900E+03  0.24081886491E+03  0.00000000000E+00 0.  1.
</event>
<event>
12    1  0.8633375E-002  0.2120314E+03  0.7818608E-02  0.1140111E+00
         21   -1    0    0  501  502  0.00000000000E+00  0.00000000000E+00  0.45018329001E+03  0.45018329001E+03  0.00000000000E+00 0. -1.
         21   -1    0    0  502  503 -0.00000000000E+00 -0.00000000000E+00 -0.19334883001E+03  0.19334883001E+03  0.00000000000E+00 0.  1.
         -6    2    1    2    0  503 -0.47072250154E+02  0.11397045145E+03 -0.95618392762E+02  0.23259448848E+03  0.17248843004E+03 0.  0.
        -24    2    3    3    0    0 -0.22860207731E+02  0.12295153821E+02  0.77276314172E+01  0.85534705196E+02  0.81133899207E+02 0.  0.
          6    2    1    2  501    0  0.47072250154E+02 -0.11397045145E+03  0.35245285276E+03  0.41093763154E+03  0.17158573094E+03 0.  0.
         24    2    5    5    0    0  0.32183452647E+02 -0.11160280968E+03  0.14384788374E+03  0.20173580287E+03  0.80710338560E+02 0.  0.
          5    1    5    5  501    0  0.14888797507E+02 -0.23676417623E+01  0.20860496902E+03  0.20920182867E+03  0.47000000000E+01 0. -1.
        -13    1    6    6    0    0  0.14117497397E+02 -0.83411356012E+02  0.41851054853E+02  0.94383625893E+02  0.00000000000E+00 0.  1.
         14    1    6    6    0    0  0.18065955249E+02 -0.28191453672E+02  0.10199682889E+03  0.10735217698E+03  0.00000000000E+00 0. -1.
         -5    1    3    3    0  503 -0.24212042423E+02  0.10167529762E+03 -0.10334602418E+03  0.14705978328E+03  0.47000000000E+01 0.  1.
         11    1    4    4    0    0  0.27991531575E+02 -0.91399505247E+01  0.73465522312E+01  0.30348580942E+02  0.00000000000E+00 0. -1.
        -12    1    4    4    0    0 -0.50851739306E+02  0.21435104346E+02  0.38107918603E+00  0.55186124254E+02  0.00000000000E+00 0.  1.
</event>
<event>
12    1  0.8633375E-002  0.2360822E+03  0.7818608E-02  0.1122533E+00
         21   -1    0    0  501  502  0.00000000000E+00  0.00000000000E+00  0.24194430354E+03  0.24194430354E+03  0.00000000000E+00 0. -1.
         21   -1    0    0  502  503 -0.00000000000E+00 -0.00000000000E+00 -0.52591910866E+03  0.52591910866E+03  0.00000000000E+00 0.  1.
         -6    2    1    2    0  503  0.12750761102E+03 -0.97503669536E+02 -0.43016778851E+03  0.49069249433E+03  0.17311742051E+03 0.  0.
        -24    2    3    3    0    0  0.15060377908E+03 -0.72027876936E+02 -0.41300429822E+03  0.45197396664E+03  0.76409442102E+02 0.  0.
          6    2    1    2  501    0 -0.12750761102E+03  0.97503669536E+02  0.14619298338E+03  0.27717091787E+03  0.17229675818E+03 0.  0.
         24    2    5    5    0    0 -0.47768404030E+02  0.10909371061E+03  0.13353180271E+03  0.19546984272E+03  0.78704885252E+02 0.  0.
          5    1    5    5  501    0 -0.79739206988E+02 -0.11590041074E+02  0.12661180677E+02  0.81701075142E+02  0.47000000000E+01 0. -1.
        -11    1    6    6    0    0 -0.32672170557E+02  0.67076014998E+02  0.13099240633E+03  0.15075036661E+03  0.00000000000E+00 0.  1.
         12    1    6    6    0    0 -0.15096233473E+02  0.42017695612E+02  0.25393963711E+01  0.44719476110E+02  0.00000000000E+00 0. -1.
         -5    1    3    3    0  503 -0.23096168061E+02 -0.25475792600E+02 -0.17163490284E+02  0.38718527689E+02  0.47000000000E+01 0.  1.
         13    1    4    4    0    0  0.43734131867E+01  0.13426629782E+02 -0.36114112411E+02  0.38776671408E+02  0.00000000000E+00 0. -1.
        -14    1    4    4    0    0  0.14623036589E+03 -0.85454506718E+02 -0.37689018581E+03  0.41319729523E+03  0.00000000000E+00 0.  1.
</event>
<event>
12    1  0.8633375E-002  0.8759223E+03  0.7818608E-02  0.9456242E-01
         21   -1    0    0  503  502  0.00000000000E+00  0.00000000000E+00  0.90329435868E+03  0.90329435868E+03  0.00000000000E+00 0. -1.
         21   -1    0    0  501  503 -0.00000000000E+00 -0.00000000000E+00 -0.21649581095E+04  0.21649581095E+04  0.00000000000E+00 0.  1.
          6    2    1    2  501    0 -0.40771962630E+03  0.75565581375E+03 -0.18268244068E+04  0.20259633083E+04  0.17317306644E+03 0.  0.
         24    2    3    3    0    0 -0.11351544608E+03  0.32867869689E+03 -0.70211751253E+03  0.78747501772E+03  0.78945929894E+02 0.  0.
         -6    2    1    2    0  502  0.40771962630E+03 -0.75565581375E+03  0.56516065596E+03  0.10422891599E+04  0.17236334642E+03 0.  0.
        -24    2    5    5    0    0  0.35467633945E+03 -0.63487057273E+03  0.40972185082E+03  0.83836275924E+03  0.78257083696E+02 0.  0.
          5    1    3    3  501    0 -0.29420418022E+03  0.42697711685E+03 -0.11247068943E+04  0.12384882906E+04  0.47000000000E+01 0. -1.
        -11    1    4    4    0    0 -0.46124477105E+02  0.44574882007E+02 -0.14218993556E+03  0.15598834978E+03  0.00000000000E+00 0.  1.
         12    1    4    4    0    0 -0.67390968974E+02  0.28410381488E+03 -0.55992757697E+03  0.63148666794E+03  0.00000000000E+00 0. -1.
         -5    1    5    5    0  502  0.53043286852E+02 -0.12078524102E+03  0.15543880514E+03  0.20392640062E+03  0.47000000000E+01 0.  1.
         11    1    6    6    0    0  0.19799399671E+03 -0.42815509156E+03  0.25244848643E+03  0.53502209623E+03  0.00000000000E+00 0. -1.
        -12    1    6    6    0    0  0.15668234273E+03 -0.20671548118E+03  0.15727336439E+03  0.30334066300E+03  0.00000000000E+00 0.  1.
</event>
<event>
12    1  0.8633375E-002  0.1743516E+03  0.7818608E-02  0.1173499E+00
         21   -1    0    0  501  502  0.00000000000E+00  0.00000000000E+00  0.45198459073E+03  0.45198459073E+03  0.00000000000E+00 0.  1.
         21   -1    0    0  502  503 -0.00000000000E+00 -0.00000000000E+00 -0.79156168966E+02  0.79156168966E+02  0.00000000000E+00 0.  1.
         -6    2    1    2    0  503 -0.23924811742E+02  0.93414114934E+01  0.82894219593E+02  0.19305423333E+03  0.17244949052E+03 0.  0.
        -24    2    3    3    0    0  0.26980393708E+02 -0.28407189962E+02  0.92542455775E+02  0.12877767995E+03  0.80527477581E+02 0.  0.
          6    2    1    2  501    0  0.23924811742E+02 -0.93414114934E+01  0.28993420217E+03  0.33808652636E+03  0.17199127633E+03 0.  0.
         24    2    5    5    0    0 -0.40190021193E+02 -0.43846885356E+02  0.19050451232E+03  0.21475894327E+03  0.79319905061E+02 0.  0.
          5    1    5    5  501    0  0.64114832935E+02  0.34505473862E+02  0.99429689845E+02  0.12332758309E+03  0.47000000000E+01 0. -1.
        -11    1    6    6    0    0 -0.13717392265E+02 -0.41982178593E+02  0.18140479076E+03  0.18670395893E+03  0.00000000000E+00 0.  1.
         12    1    6    6    0    0 -0.26472628928E+02 -0.18647067628E+01  0.90997215660E+01  0.28054984339E+02  0.00000000000E+00 0. -1.
         -5    1    3    3    0  503 -0.50905205450E+02  0.37748601456E+02 -0.96482361820E+01  0.64276553386E+02  0.47000000000E+01 0.  1.
         13    1    4    4    0    0  0.36152360984E+02  0.18388835648E+02  0.31723781889E+02  0.51493114283E+02  0.00000000000E+00 0. -1.
        -14    1    4    4    0    0 -0.91719672763E+01 -0.46796025610E+02  0.60818673885E+02  0.77284565664E+02  0.00000000000E+00 0.  1.
</event>
<event>
12    1  0.8633375E-002  0.2150653E+03  0.7818608E-02  0.1137708E+00
         21   -1    0    0  503  502  0.00000000000E+00  0.00000000000E+00  0.47429549149E+03  0.47429549149E+03  0.00000000000E+00 0. -1.
         21   -1    0    0  501  503 -0.00000000000E+00 -0.00000000000E+00 -0.11456781138E+03  0.11456781138E+03  0.00000000000E+00 0. -1.
          6    2    1    2  501    0 -0.12045159264E+03  0.46204678522E+02  0.65397740301E+02  0.22433182263E+03  0.17147723966E+03 0.  0.
         24    2    3    3    0    0 -0.19600472208E+02  0.25059990198E+02  0.83756604249E+02  0.11955976423E+03  0.79165566044E+02 0.  0.
         -6    2    1    2    0  502  0.12045159264E+03 -0.46204678522E+02  0.29432993981E+03  0.36453148023E+03  0.17207448424E+03 0.  0.
        -24    2    5    5    0    0  0.57336469271E+02 -0.88249654498E+02  0.15113440122E+03  0.20242549307E+03  0.84017859913E+02 0.  0.
          5    1    3    3  501    0 -0.10085112044E+03  0.21144688324E+02 -0.18358863949E+02  0.10477205841E+03  0.47000000000E+01 0. -1.
        -11    1    4    4    0    0 -0.68312092169E+01 -0.56783951145E+01 -0.13838772599E+02  0.16444488971E+02  0.00000000000E+00 0.  1.
         12    1    4    4    0    0 -0.12769262991E+02  0.30738385313E+02  0.97595376849E+02  0.10311527526E+03  0.00000000000E+00 0. -1.
         -5    1    5    5    0  502  0.63115123372E+02  0.42044975976E+02  0.14319553859E+03  0.16210598716E+03  0.47000000000E+01 0.  1.
         13    1    6    6    0    0  0.55721521609E+02 -0.11484707773E+02  0.76601754335E+02  0.95418107560E+02  0.00000000000E+00 0. -1.
        -14    1    6    6    0    0  0.16149476619E+01 -0.76764946725E+02  0.74532646884E+02  0.10700738551E+03  0.00000000000E+00 0.  1.
</event>
<event>
12    1  0.8633375E-002  0.2214055E+03  0.7818608E-02  0.1133590E+00
         21   -1    0    0  503  502  0.00000000000E+00  0.00000000000E+00  0.14666724348E+03  0.14666724348E+03  0.00000000000E+00 0. -1.
         21   -1    0    0  501  503 -0.00000000000E+00 -0.00000000000E+00 -0.55018125553E+03  0.55018125553E+03  0.00000000000E+00 0. -1.
          6    2    1    2  501    0 -0.13122726201E+03 -0.25734750564E+02 -0.42417531322E+03  0.47848206888E+03  0.17645827328E+03 0.  0.
         24    2    3    3    0    0 -0.72414337474E+02 -0.56880267067E+02 -0.38164156932E+03  0.39936056320E+03  0.73207724672E+02 0.  0.
         -6    2    1    2    0  502  0.13122726201E+03  0.25734750564E+02  0.20661301176E+02  0.21836643013E+03  0.17138884666E+03 0.  0.
        -24    2    5    5    0    0  0.90694064687E+02 -0.43014136221E+02 -0.20366950757E+02  0.12850677858E+03  0.77611533766E+02 0.  0.
          5    1    3    3  501    0 -0.58812924535E+02  0.31145516503E+02 -0.42533743900E+02  0.79121505678E+02  0.47000000000E+01 0. -1.
        -11    1    4    4    0    0 -0.21606308938E+02 -0.42169809817E+02 -0.78912174086E+02  0.92044862241E+02  0.00000000000E+00 0.  1.
         12    1    4    4    0    0 -0.50808028536E+02 -0.14710457249E+02 -0.30272939524E+03  0.30731570096E+03  0.00000000000E+00 0. -1.
         -5    1    5    5    0  502  0.40533197322E+02  0.68748886785E+02  0.41028251933E+02  0.89859651546E+02  0.47000000000E+01 0.  1.
         11    1    6    6    0    0 -0.33804352466E+01  0.53794911146E+00  0.17733044416E+02  0.18060387481E+02  0.00000000000E+00 0. -1.
        -12    1    6    6    0    0  0.94074499934E+02 -0.43552085333E+02 -0.38099995173E+02  0.11044639110E+03  0.00000000000E+00 0.  1.
</event>
<event>
12    1  0.8633375E-002  0.1775839E+03  0.7818608E-02  0.1170798E+00
         21   -1    0    0  503  502  0.00000000000E+00  0.00000000000E+00  0.25970920240E+03  0.25970920240E+03  0.00000000000E+00 0.  1.
         21   -1    0    0  501  503 -0.00000000000E+00 -0.00000000000E+00 -0.18892452171E+03  0.18892452171E+03  0.00000000000E+00 0.  1.
          6    2    1    2  501    0  0.22965728917E+02 -0.24837605974E+02 -0.10057002550E+03  0.20185755424E+03  0.17172015257E+03 0.  0.
         24    2    3    3    0    0 -0.29250302536E+02 -0.14001272490E+02 -0.11798853364E+03  0.14555982347E+03  0.78833700330E+02 0.  0.
         -6    2    1    2    0  502 -0.22965728917E+02  0.24837605974E+02  0.17135470618E+03  0.24677616987E+03  0.17433218667E+03 0.  0.
        -24    2    5    5    0    0  0.31117625538E+02  0.23756131031E+02  0.17026769364E+03  0.19246732700E+03  0.80746046866E+02 0.  0.
          5    1    3    3  501    0  0.52216031453E+02 -0.10836333484E+02  0.17418508139E+02  0.56297730770E+02  0.47000000000E+01 0. -1.
        -13    1    4    4    0    0  0.20376508514E+02 -0.19283944295E+02 -0.73610774946E+02  0.78775750043E+02  0.00000000000E+00 0.  1.
         14    1    4    4    0    0 -0.49626811051E+02  0.52826718049E+01 -0.44377758695E+02  0.66784073425E+02  0.00000000000E+00 0. -1.
         -5    1    5    5    0  502 -0.54083354455E+02  0.10814749425E+01  0.10870125391E+01  0.54308842866E+02  0.47000000000E+01 0.  1.
         13    1    6    6    0    0  0.44961810279E+02  0.41829102742E+02  0.89428723513E+02  0.10848379975E+03  0.00000000000E+00 0. -1.
        -14    1    6    6    0    0 -0.13844184741E+02 -0.18072971711E+02  0.80838970132E+02  0.83983527251E+02  0.00000000000E+00 0.  1.
</event>
<event>
12    1  0.8633375E-002  0.1766116E+03  0.7818608E-02  0.1171197E+00
         21   -1    0    0  503  502  0.00000000000E+00  0.00000000000E+00  0.10861273534E+03  0.10861273534E+03  0.00000000000E+00 0. -1.
         21   -1    0    0  501  503 -0.00000000000E+00 -0.00000000000E+00 -0.41084546922E+03  0.41084546922E+03  0.00000000000E+00 0. -1.
          6    2    1    2  501    0 -0.75914718849E+01  0.35713603649E+02 -0.29380039741E+03  0.34264544024E+03  0.17249386154E+03 0.  0.
         24    2    3    3    0    0  0.20750978587E+02 -0.38365507431E+02 -0.12177228139E+03  0.15315461751E+03  0.82008128120E+02 0.  0.
         -6    2    1    2    0  502  0.75914718849E+01 -0.35713603649E+02 -0.84323364672E+01  0.17681276432E+03  0.17279628873E+03 0.  0.
        -24    2    5    5    0    0 -0.40299178854E+02 -0.70888589151E+02  0.87170898853E+01  0.11478868144E+03  0.80319598124E+02 0.  0.
          5    1    3    3  501    0 -0.28342450471E+02  0.74079111080E+02 -0.17202811602E+03  0.18949082273E+03  0.47000000000E+01 0. -1.
        -13    1    4    4    0    0 -0.18854914948E+02 -0.48156351010E+02 -0.61213892325E+02  0.80135401502E+02  0.00000000000E+00 0.  1.
         14    1    4    4    0    0  0.39605893535E+02  0.97908435782E+01 -0.60558389064E+02  0.73019216010E+02  0.00000000000E+00 0. -1.
         -5    1    5    5    0  502  0.47890650739E+02  0.35174985503E+02 -0.17149426352E+02  0.62024082883E+02  0.47000000000E+01 0.  1.
         11    1    6    6    0    0 -0.16848531863E+02 -0.82591135689E+02  0.19384675883E+02  0.86492394922E+02  0.00000000000E+00 0. -1.
        -12    1    6    6    0    0 -0.23450646991E+02  0.11702546537E+02 -0.10667585998E+02  0.28296286519E+02  0.00000000000E+00 0.  1.
</event>
<event>
12    1  0.8633375E-002  0.2205415E+03  0.7818608E-02  0.1133692E+00
         21   -1    0    0  503  502  0.00000000000E+00  0.00000000000E+00  0.15684151674E+04  0.15684151674E+04  0.00000000000E+00 0. -1.
         21   -1    0    0  501  503 -0.00000000000E+00 -0.00000000000E+00 -0.39626654098E+02  0.39626654098E+02  0.00000000000E+00 0. -1.
          6    2    1    2  501    0  0.98307723030E+02 -0.96385576095E+02  0.38757642040E+03  0.44593052423E+03  0.17229034535E+03 0.  0.
         24    2    3    3    0    0  0.12498761746E+03 -0.93325441819E+02  0.29169348693E+03  0.34624698436E+03  0.10232468546E+03 0.  0.
         -6    2    1    2    0  502 -0.98307723030E+02  0.96385576095E+02  0.11412120929E+04  0.11621112973E+04  0.17083043808E+03 0.  0.
        -24    2    5    5    0    0  0.50434800084E+01  0.74825634206E+02  0.69425458151E+03  0.70282989197E+03  0.79725283802E+02 0.  0.
          5    1    3    3  501    0 -0.26679894434E+02 -0.30601342762E+01  0.95882933469E+02  0.99683539862E+02  0.47000000000E+01 0. -1.
        -11    1    4    4    0    0  0.91314430527E+02 -0.27643016494E+02  0.88773021327E+02  0.13031926526E+03  0.00000000000E+00 0.  1.
         12    1    4    4    0    0  0.33673186937E+02 -0.65682425325E+02  0.20292046560E+03  0.21592771910E+03  0.00000000000E+00 0. -1.
         -5    1    5    5    0  502 -0.10335120304E+03  0.21559941889E+02  0.44695751139E+03  0.45928140529E+03  0.47000000000E+01 0.  1.
         11    1    6    6    0    0  0.41297736643E+01  0.64947323432E+02  0.24591046220E+03  0.25437603124E+03  0.00000000000E+00 0. -1.
        -12    1    6    6    0    0  0.91370634416E+00  0.98783107738E+01  0.44834411932E+03  0.44845386074E+03  0.00000000000E+00 0.  1.
</event>
<event>
12    1  0.8633375E-002  0.2126931E+03  0.7818608E-02  0.1140456E+00
         21   -1    0    0  503  502  0.00000000000E+00  0.00000000000E+00  0.62386511047E+02  0.62386511047E+02  0.00000000000E+00 0.  1.
         21   -1    0    0  501  503 -0.00000000000E+00 -0.00000000000E+00 -0.71427089176E+03  0.71427089176E+03  0.00000000000E+00 0.  1.
          6    2    1    2  501    0  0.10890745892E+03  0.39216649056E+02 -0.36662858736E+03  0.42385714864E+03  0.17843649068E+03 0.  0.
         24    2    3    3    0    0  0.14651024479E+03  0.19533604770E+02 -0.24122570741E+03  0.29138313594E+03  0.69767302181E+02 0.  0.
         -6    2    1    2    0  502 -0.10890745892E+03 -0.39216649056E+02 -0.28525579335E+03  0.35280025417E+03  0.17233215466E+03 0.  0.
        -24    2    5    5    0    0 -0.17103949918E+02  0.17961738182E+02 -0.59836885161E+02  0.10273421009E+03  0.79741431865E+02 0.  0.
          5    1    3    3  501    0 -0.37602785870E+02  0.19683044286E+02 -0.12540287996E+03  0.13247401269E+03  0.47000000000E+01 0. -1.
        -11    1    4    4    0    0  0.93291748816E+02  0.44300448999E+02 -0.17196891754E+03  0.20059708068E+03  0.00000000000E+00 0.  1.
         12    1    4    4    0    0  0.53218495978E+02 -0.24766844229E+02 -0.69256789871E+02  0.90786055264E+02  0.00000000000E+00 0. -1.
         -5    1    5    5    0  502 -0.91803509005E+02 -0.57178387238E+02 -0.22541890819E+03  0.25006604408E+03  0.47000000000E+01 0.  1.
         13    1    6    6    0    0  0.13634296903E+02 -0.24994685374E+02 -0.10180355345E+02  0.30236864652E+02  0.00000000000E+00 0. -1.
        -14    1    6    6    0    0 -0.30738246822E+02  0.42956423556E+02 -0.49656529817E+02  0.72497345440E+02  0.00000000000E+00 0.  1.
</event>
<event>
12    1  0.8633375E-002  0.2116465E+03  0.7818608E-02  0.1140337E+00
         21   -1    0    0  501  502  0.00000000000E+00  0.00000000000E+00  0.31490609972E+03  0.31490609972E+03  0.00000000000E+00 0.  1.
         21   -1    0    0  502  503 -0.00000000000E+00 -0.00000000000E+00 -0.15603914626E+03  0.15603914626E+03  0.00000000000E+00 0.  1.
         -6    2    1    2    0  503 -0.34049687824E+02  0.11780841102E+03  0.87739617902E+01  0.21148016596E+03  0.17207171541E+03 0.  0.
        -24    2    3    3    0    0  0.35216129855E+02  0.11098229643E+03 -0.22257630814E+01  0.14085840383E+03  0.79239447160E+02 0.  0.
          6    2    1    2  501    0  0.34049687824E+02 -0.11780841102E+03  0.15009299167E+03  0.25946508001E+03  0.17249932942E+03 0.  0.
         24    2    5    5    0    0  0.61274016484E+02 -0.11779376322E+03  0.16612372430E+03  0.22752390479E+03  0.80871254025E+02 0.  0.
          5    1    5    5  501    0 -0.27224328661E+02 -0.14647800271E-01 -0.16030732633E+02  0.31941175218E+02  0.47000000000E+01 0. -1.
        -13    1    6    6    0    0  0.68055408724E+01 -0.73586484497E+02  0.12769447717E+03  0.14753699735E+03  0.00000000000E+00 0.  1.
         14    1    6    6    0    0  0.54468475612E+02 -0.44207278723E+02  0.38429247131E+02  0.79986907445E+02  0.00000000000E+00 0. -1.
         -5    1    3    3    0  503 -0.69265817679E+02  0.68261145897E+01  0.10999724872E+02  0.70621762130E+02  0.47000000000E+01 0.  1.
         11    1    4    4    0    0  0.52382495082E+01  0.12703804398E+02  0.30146418276E+02  0.33130536352E+02  0.00000000000E+00 0. -1.
        -12    1    4    4    0    0  0.29977880347E+02  0.98278492032E+02 -0.32372181358E+02  0.10772786748E+03  0.00000000000E+00 0.  1.
</event>
<event>
12    1  0.8633375E-002  0.1741605E+03  0.7818608E-02  0.1173974E+00
         21   -1    0    0  501  502  0.00000000000E+00  0.00000000000E+00  0.80343701811E+03  0.80343701811E+03  0.00000000000E+00 0. -1.
         21   -1    0    0  502  503 -0.00000000000E+00 -0.00000000000E+00 -0.20191419534E+03  0.20191419534E+03  0.00000000000E+00 0. -1.
         -6    2    1    2    0  503  0.16437015662E+02  0.56327774232E+01 -0.15320712650E+03  0.23078736224E+03  0.17172209902E+03 0.  0.
        -24    2    3    3    0    0  0.74848019506E+02  0.19791600484E+02 -0.84764019501E+02  0.13957954165E+03  0.79395062638E+02 0.  0.
          6    2    1    2  501    0 -0.16437015662E+02 -0.56327774232E+01  0.75472994928E+03  0.77456385122E+03  0.17329154512E+03 0.  0.
         24    2    5    5    0    0  0.24442404805E+01 -0.68255242397E+02  0.40048533655E+03  0.41430087699E+03  0.81190882843E+02 0.  0.
          5    1    5    5  501    0 -0.18881256143E+02  0.62622464974E+02  0.35424461273E+03  0.36026297423E+03  0.47000000000E+01 0. -1.
        -13    1    6    6    0    0  0.18685468957E+02 -0.12541575229E+02  0.22274654695E+02  0.31663829540E+02  0.00000000000E+00 0.  1.
         14    1    6    6    0    0 -0.16241228476E+02 -0.55713667167E+02  0.37821068186E+03  0.38263704745E+03  0.00000000000E+00 0. -1.
         -5    1    3    3    0  503 -0.58411003844E+02 -0.14158823061E+02 -0.68443106999E+02  0.91207820587E+02  0.47000000000E+01 0.  1.
         11    1    4    4    0    0  0.63954442945E+02  0.37098015621E+02 -0.91874189981E+02  0.11792921741E+03  0.00000000000E+00 0. -1.
        -12    1    4    4    0    0  0.10893576562E+02 -0.17306415137E+02  0.71101704800E+01  0.21650324234E+02  0.00000000000E+00 0.  1.
</event>
<event>
12    1  0.8633375E-002  0.2490604E+03  0.7818608E-02  0.1113937E+00
         21   -1    0    0  503  502  0.00000000000E+00  0.00000000000E+00  0.82603511860E+02  0.82603511860E+02  0.00000000000E+00 0. -1.
         21   -1    0    0  501  503 -0.00000000000E+00 -0.00000000000E+00 -0.22103231045E+04  0.22103231045E+04  0.00000000000E+00 0.  1.
          6    2    1    2  501    0  0.13461527386E+03  0.12058807460E+03 -0.19954850427E+04  0.20109388940E+04  0.17103193921E+03 0.  0.
         24    2    3    3    0    0  0.83684612945E+02  0.98734422674E+02 -0.87149380269E+03  0.88557232624E+03  0.89360484523E+02 0.  0.
         -6    2    1    2    0  502 -0.13461527386E+03 -0.12058807460E+03 -0.13223454993E+03  0.28198772231E+03  0.17137194533E+03 0.  0.
        -24    2    5    5    0    0 -0.16414084926E+03 -0.10610339238E+03 -0.13151209895E+03  0.24875855505E+03  0.79907685932E+02 0.  0.
          5    1    3    3  501    0  0.50930660914E+02  0.21853651924E+02 -0.11239912400E+04  0.11253665678E+04  0.47000000000E+01 0. -1.
        -11    1    4    4    0    0  0.41779381164E+02 -0.24297223683E+01 -0.36411428579E+03  0.36651143687E+03  0.00000000000E+00 0.  1.
         12    1    4    4    0    0  0.41905231780E+02  0.10116414504E+03 -0.50737951690E+03  0.51906088936E+03  0.00000000000E+00 0. -1.
         -5    1    5    5    0  502  0.29525575398E+02 -0.14484682222E+02 -0.72245098541E+00  0.33229167265E+02  0.47000000000E+01 0.  1.
         13    1    6    6    0    0 -0.77576725495E+02 -0.43635118107E+02 -0.10709123969E+03  0.13925051343E+03  0.00000000000E+00 0. -1.
        -14    1    6    6    0    0 -0.86564123763E+02 -0.62468274269E+02 -0.24420859255E+02  0.10950804162E+03  0.00000000000E+00 0.  1.
</event>
<event>
12    1  0.8633375E-002  0.1758634E+03  0.7818608E-02  0.1172462E+00
         21   -1    0    0  503  502  0.00000000000E+00  0.00000000000E+00  0.94131814754E+02  0.94131814754E+02  0.00000000000E+00 0. -1.
         21   -1    0    0  501  503 -0.00000000000E+00 -0.00000000000E+00 -0.34533540227E+03  0.34533540227E+03  0.00000000000E+00 0. -1.
          6    2    1    2  501    0 -0.15288655979E+01 -0.27377178682E+02 -0.18082247154E+03  0.25223939836E+03  0.17371269536E+03 0.  0.
         24    2    3    3    0    0  0.28410378800E+02 -0.61583266750E+02 -0.54219931445E+02  0.11764107752E+03  0.79372374203E+02 0.  0.
         -6    2    1    2    0  502  0.15288655979E+01  0.27377178682E+02 -0.70381115979E+02  0.18722781866E+03  0.17131522773E+03 0.  0.
        -24    2    5    5    0    0  0.53667724504E+02  0.56934623206E+02 -0.34140474374E+02  0.11703111476E+03  0.80055817144E+02 0.  0.
          5    1    3    3  501    0 -0.29939244398E+02  0.34206088067E+02 -0.12660254009E+03  0.13459832085E+03  0.47000000000E+01 0. -1.
        -11    1    4    4    0    0  0.15830504727E+01  0.18496403048E+02 -0.28241643083E+01  0.18777616424E+02  0.00000000000E+00 0.  1.
         12    1    4    4    0    0  0.26827328327E+02 -0.80079669798E+02 -0.51395767137E+02  0.98863461095E+02  0.00000000000E+00 0. -1.
         -5    1    5    5    0  502 -0.52138858906E+02 -0.29557444523E+02 -0.36240641605E+02  0.70196703902E+02  0.47000000000E+01 0.  1.
         11    1    6    6    0    0  0.18908761193E+01  0.57380429744E+02 -0.50330619362E+01  0.57631769386E+02  0.00000000000E+00 0. -1.
        -12    1    6    6    0    0  0.51776848384E+02 -0.44580653866E+00 -0.29107412437E+02  0.59399345374E+02  0.00000000000E+00 0.  1.
</event>
<event>
12    1  0.8633375E-002  0.1756905E+03  0.7818608E-02  0.1172146E+00
         21   -1    0    0  503  502  0.00000000000E+00  0.00000000000E+00  0.46190589034E+02  0.46190589034E+02  0.00000000000E+00 0.  1.
         21   -1    0    0  501  503 -0.00000000000E+00 -0.00000000000E+00 -0.68854312269E+03  0.68854312269E+03  0.00000000000E+00 0.  1.
          6    2    1    2  501    0 -0.40858374918E+01  0.32404607969E+02 -0.25604304423E+03  0.31052408137E+03  0.17262795812E+03 0.  0.
         24    2    3    3    0    0 -0.56517878686E+02  0.56059072243E+02 -0.12124690464E+03  0.16389276864E+03  0.76309485231E+02 0.  0.
         -6    2    1    2    0  502  0.40858374918E+01 -0.32404607969E+02 -0.38630948943E+03  0.42420963036E+03  0.17219766601E+03 0.  0.
        -24    2    5    5    0    0  0.44562356100E+02 -0.60332137639E+02 -0.16698990679E+03  0.19939534077E+03  0.79038614227E+02 0.  0.
          5    1    3    3  501    0  0.52432041194E+02 -0.23654464274E+02 -0.13479613959E+03  0.14663131273E+03  0.47000000000E+01 0. -1.
        -11    1    4    4    0    0 -0.19767562490E+02 -0.13596466845E+02 -0.58394592134E+02  0.63131203283E+02  0.00000000000E+00 0.  1.
         12    1    4    4    0    0 -0.36750316196E+02  0.69655539088E+02 -0.62852312508E+02  0.10076156536E+03  0.00000000000E+00 0. -1.
         -5    1    5    5    0  502 -0.40476518609E+02  0.27927529670E+02 -0.21931958264E+03  0.22481428959E+03  0.47000000000E+01 0.  1.
         13    1    6    6    0    0  0.61885557267E+02 -0.21989368225E+02 -0.11585627812E+03  0.13317669350E+03  0.00000000000E+00 0. -1.
        -14    1    6    6    0    0 -0.17323201167E+02 -0.38342769415E+02 -0.51133628670E+02  0.66218647268E+02  0.00000000000E+00 0.  1.
</event>
<event>
12    1  0.8633375E-002  0.5839901E+03  0.7818608E-02  0.9939222E-01
         21   -1    0    0  501  502  0.00000000000E+00  0.00000000000E+00  0.79007172035E+03  0.79007172035E+03  0.00000000000E+00 0. -1.
         21   -1    0    0  502  503 -0.00000000000E+00 -0.00000000000E+00 -0.10567904359E+04  0.10567904359E+04  0.00000000000E+00 0.  1.
         -6    2    1    2    0  503  0.52566012144E+03 -0.18755629187E+03 -0.84360951486E+03  0.10260221216E+04  0.17189663931E+03 0.  0.
        -24    2    3    3    0    0  0.14756483753E+03 -0.57149806018E+02 -0.18924746521E+03  0.25909730309E+03  0.79216966458E+02 0.  0.
          6    2    1    2  501    0 -0.52566012144E+03  0.18755629187E+03  0.57689079931E+03  0.82084003463E+03  0.17169578397E+03 0.  0.
         24    2    5    5    0    0 -0.22693834991E+03  0.11576127423E+03  0.19729760191E+03  0.33247305494E+03  0.81916428561E+02 0.  0.
          5    1    5    5  501    0 -0.29872177153E+03  0.71795017637E+02  0.37959319740E+03  0.48836697969E+03  0.47000000000E+01 0. -1.
        -11    1    6    6    0    0 -0.20489291599E+03  0.12131765631E+03  0.19806714477E+03  0.30972515977E+03  0.00000000000E+00 0.  1.
         12    1    6    6    0    0 -0.22045433916E+02 -0.55563820830E+01 -0.76954285475E+00  0.22747895169E+02  0.00000000000E+00 0. -1.
         -5    1    3    3    0  503  0.37809528391E+03 -0.13040648585E+03 -0.65436204965E+03  0.76692481853E+03  0.47000000000E+01 0.  1.
         13    1    4    4    0    0  0.16925902582E+02  0.19244889659E+02 -0.27301941033E+02  0.37446601186E+02  0.00000000000E+00 0. -1.
        -14    1    4    4    0    0  0.13063893495E+03 -0.76394695677E+02 -0.16194552418E+03  0.22165070190E+03  0.00000000000E+00 0.  1.
</event>
<event>
12    1  0.8633375E-002  0.1943883E+03  0.7818608E-02  0.1154642E+00
         21   -1    0    0  501  502  0.00000000000E+00  0.00000000000E+00  0.25422783476E+03  0.25422783476E+03  0.00000000000E+00 0. -1.
         21   -1    0    0  502  503 -0.00000000000E+00 -0.00000000000E+00 -0.21338671023E+03  0.21338671023E+03  0.00000000000E+00 0. -1.
         -6    2    1    2    0  503  0.88551325998E+02  0.25467895261E+02 -0.10863915583E+03  0.22268650591E+03  0.17116326331E+03 0.  0.
        -24    2    3    3    0    0 -0.89962967302E+01  0.31383569874E+02 -0.17082121386E+02  0.88689063908E+02  0.80672730045E+02 0.  0.
          6    2    1    2  501    0 -0.88551325998E+02 -0.25467895261E+02  0.14948028036E+03  0.24492803908E+03  0.17074963861E+03 0.  0.
         24    2    5    5    0    0 -0.79096123884E+02  0.34619561899E+02  0.14099372497E+03  0.18333246312E+03  0.79226578073E+02 0.  0.
          5    1    5    5  501    0 -0.94552021138E+01 -0.60087457160E+02  0.84865553915E+01  0.61595575956E+02  0.47000000000E+01 0. -1.
        -13    1    6    6    0    0  0.14085543621E+01 -0.19879052765E+02  0.22305047739E+02  0.29911133695E+02  0.00000000000E+00 0.  1.
         14    1    6    6    0    0 -0.80504678246E+02  0.54498614664E+02  0.11868867723E+03  0.15342132943E+03  0.00000000000E+00 0. -1.
         -5    1    3    3    0  503  0.97547622728E+02 -0.59156746123E+01 -0.91557034447E+02  0.13399744200E+03  0.47000000000E+01 0.  1.
         13    1    4    4    0    0  0.27198691690E+02 -0.10846788879E+02 -0.15307934699E+02  0.33041708845E+02  0.00000000000E+00 0. -1.
        -14    1    4    4    0    0 -0.36194988421E+02  0.42230358752E+02 -0.17741866873E+01  0.55647355063E+02  0.00000000000E+00 0.  1.
</event>
<event>
12    1  0.8633375E-002  0.2067452E+03  0.7818608E-02  0.1145705E+00
         21   -1    0    0  501  502  0.00000000000E+00  0.00000000000E+00  0.13177729761E+03  0.13177729761E+03  0.00000000000E+00 0. -1.
         21   -1    0    0  502  503 -0.00000000000E+00 -0.00000000000E+00 -0.45472958380E+03  0.45472958380E+03  0.00000000000E+00 0. -1.
         -6    2    1    2    0  503 -0.40410046183E+02 -0.96460207914E+02 -0.32326495767E+03  0.37976142550E+03  0.16964953256E+03 0.  0.
        -24    2    3    3    0    0 -0.87952928161E+02 -0.99229135160E+02 -0.25552546625E+03  0.29682336860E+03  0.72309815423E+02 0.  0.
          6    2    1    2  501    0  0.40410046183E+02  0.96460207914E+02  0.31267147221E+00  0.20674545591E+03  0.17834248578E+03 0.  0.
         24    2    5    5    0    0 -0.20517871602E+02  0.81999672689E+02  0.50248347521E+02  0.12651466390E+03  0.79599839050E+02 0.  0.
          5    1    5    5  501    0  0.60927917785E+02  0.14460535225E+02 -0.49935676049E+02  0.80230792013E+02  0.47000000000E+01 0. -1.
        -13    1    6    6    0    0 -0.35807976848E+02  0.81354350086E+02  0.17817480152E+02  0.90654310889E+02  0.00000000000E+00 0.  1.
         14    1    6    6    0    0  0.15290105246E+02  0.64532260336E+00  0.32430867369E+02  0.35860353010E+02  0.00000000000E+00 0. -1.
         -5    1    3    3    0  503  0.47542881978E+02  0.27689272457E+01 -0.67739491414E+02  0.82938056897E+02  0.47000000000E+01 0.  1.
         11    1    4    4    0    0 -0.49282480657E+02 -0.95779306433E+02 -0.21628350297E+03  0.24162158864E+03  0.00000000000E+00 0. -1.
        -12    1    4    4    0    0 -0.38670447504E+02 -0.34498287272E+01 -0.39241963286E+02  0.55201779961E+02  0.00000000000E+00 0.  1.
</event>
<event>
12    1  0.8633375E-002  0.1800779E+03  0.7818608E-02  0.1167801E+00
         21   -1    0    0  501  502  0.00000000000E+00  0.00000000000E+00  0.20254733153E+03  0.20254733153E+03  0.00000000000E+00 0. -1.
         21   -1    0    0  502  503 -0.00000000000E+00 -0.00000000000E+00 -0.16004530315E+03  0.16004530315E+03  0.00000000000E+00 0.  1.
         -6    2    1    2    0  503 -0.51379826514E+02  0.85648543298E+01  0.27896325221E+02  0.18222586962E+03  0.17237986917E+03 0.  0.
        -24    2    3    3    0    0  0.13745466695E+02 -0.12267890586E+02 -0.34730948517E+02  0.89384216832E+02  0.80273659688E+02 0.  0.
          6    2    1    2  501    0  0.51379826514E+02 -0.85648543298E+01  0.14605703151E+02  0.18036676506E+03  0.17206277945E+03 0.  0.
         24    2    5    5    0    0 -0.53014939166E+01  0.15976860780E+02 -0.45329694242E+02  0.94172741333E+02  0.80810631181E+02 0.  0.
          5    1    5    5  501    0  0.56681320430E+02 -0.24541715110E+02  0.59935397392E+02  0.86194023730E+02  0.47000000000E+01 0. -1.
        -11    1    6    6    0    0 -0.40870174013E+02  0.21055103585E+02 -0.31214988018E+02  0.55570351698E+02  0.00000000000E+00 0.  1.
         12    1    6    6    0    0  0.35568680096E+02 -0.50782428047E+01 -0.14114706223E+02  0.38602389635E+02  0.00000000000E+00 0. -1.
         -5    1    3    3    0  503 -0.65125293209E+02  0.20832744915E+02  0.62627273738E+02  0.92841652786E+02  0.47000000000E+01 0.  1.
         13    1    4    4    0    0  0.71150395094E+00 -0.35744365544E+02  0.10078776635E+02  0.37144954496E+02  0.00000000000E+00 0. -1.
        -14    1    4    4    0    0  0.13033962744E+02  0.23476474959E+02 -0.44809725152E+02  0.52239262337E+02  0.00000000000E+00 0.  1.
</event>
<event>
12    1  0.8633375E-002  0.2542927E+03  0.7818608E-02  0.1112586E+00
         21   -1    0    0  503  502  0.00000000000E+00  0.00000000000E+00  0.25833709305E+03  0.25833709305E+03  0.00000000000E+00 0.  1.
         21   -1    0    0  501  503 -0.00000000000E+00 -0.00000000000E+00 -0.33604457166E+03  0.33604457166E+03  0.00000000000E+00 0.  1.
          6    2    1    2  501    0 -0.13500616290E+03 -0.10297934327E+03 -0.19842990576E+03  0.31288800470E+03  0.17231676303E+03 0.  0.
         24    2    3    3    0    0 -0.15594793562E+03 -0.80076413899E+02 -0.20472017681E+03  0.28087613927E+03  0.79051022341E+02 0.  0.
         -6    2    1    2    0  502  0.13500616290E+03  0.10297934327E+03  0.12072242715E+03  0.28149366001E+03  0.18929703390E+03 0.  0.
        -24    2    5    5    0    0 -0.14023740689E+02  0.43651961941E+02  0.60967357934E+02  0.11025578851E+03  0.79606287951E+02 0.  0.
          5    1    3    3  501    0  0.20941772717E+02 -0.22902929374E+02  0.62902710457E+01  0.32011865429E+02  0.47000000000E+01 0. -1.
        -11    1    4    4    0    0 -0.99088279561E+02 -0.70268128528E+02 -0.85871236839E+02  0.14876144107E+03  0.00000000000E+00 0.  1.
         12    1    4    4    0    0 -0.56859656055E+02 -0.98082853710E+01 -0.11884893997E+03  0.13211469820E+03  0.00000000000E+00 0. -1.
         -5    1    5    5    0  502  0.14902990359E+03  0.59327381331E+02  0.59755069219E+02  0.17123787150E+03  0.47000000000E+01 0.  1.
         13    1    6    6    0    0 -0.16629399695E+02 -0.15151639184E+02  0.43307874651E+02  0.48802470337E+02  0.00000000000E+00 0. -1.
        -14    1    6    6    0    0  0.26056590064E+01  0.58803601125E+02  0.17659483283E+02  0.61453318169E+02  0.00000000000E+00 0.  1.
</event>
<event>
12    1  0.8633375E-002  0.2439145E+03  0.7818608E-02  0.1117230E+00
         21   -1    0    0  501  502  0.00000000000E+00  0.00000000000E+00  0.10577359353E+04  0.10577359353E+04  0.00000000000E+00 0. -1.
         21   -1    0    0  502  503 -0.00000000000E+00 -0.00000000000E+00 -0.56820702522E+02  0.56820702522E+02  0.00000000000E+00 0.  1.
         -6    2    1    2    0  503 -0.89993629215E+02  0.14759294203E+03  0.55778515915E+03  0.60878451000E+03  0.17208069624E+03 0.  0.
        -24    2    3    3    0    0 -0.66625404368E+02  0.15068389470E+03  0.55508104667E+03  0.58459711359E+03  0.80586824082E+02 0.  0.
          6    2    1    2  501    0  0.89993629215E+02 -0.14759294203E+03  0.44313007365E+03  0.50577212784E+03  0.17192630191E+03 0.  0.
         24    2    5    5    0    0  0.12136306921E+03 -0.12385686064E+03  0.28667071574E+03  0.34437490357E+03  0.79652108858E+02 0.  0.
          5    1    5    5  501    0 -0.31369440000E+02 -0.23736081392E+02  0.15645935791E+03  0.16139722427E+03  0.47000000000E+01 0. -1.
        -13    1    6    6    0    0  0.20848950108E+02  0.96488746066E+01  0.45397046600E+02  0.50878987233E+02  0.00000000000E+00 0.  1.
         14    1    6    6    0    0  0.10051411911E+03 -0.13350573525E+03  0.24127366914E+03  0.29349591633E+03  0.00000000000E+00 0. -1.
         -5    1    3    3    0  503 -0.23368224846E+02 -0.30909526678E+01  0.27041124750E+01  0.24187396411E+02  0.47000000000E+01 0.  1.
         11    1    4    4    0    0 -0.35164724459E+02  0.14721521252E+03  0.47291917246E+03  0.49654951447E+03  0.00000000000E+00 0. -1.
        -12    1    4    4    0    0 -0.31460679909E+02  0.34686821803E+01  0.82161874213E+02  0.88047599119E+02  0.00000000000E+00 0.  1.
</event>
<event>
12    1  0.8633375E-002  0.1881835E+03  0.7818608E-02  0.1160689E+00
         21   -1    0    0  503  502  0.00000000000E+00  0.00000000000E+00  0.67568627101E+03  0.67568627101E+03  0.00000000000E+00 0. -1.
         21   -1    0    0  501  503 -0.00000000000E+00 -0.00000000000E+00 -0.53711863233E+02  0.53711863233E+02  0.00000000000E+00 0. -1.
          6    2    1    2  501    0  0.46042633544E+02  0.58774848019E+02  0.37935301223E+03  0.42235063383E+03  0.16999100901E+03 0.  0.
         24    2    3    3    0    0  0.91855607130E+02  0.56160999673E+02  0.22952410981E+03  0.26558185265E+03  0.79125805065E+02 0.  0.
         -6    2    1    2    0  502 -0.46042633544E+02 -0.58774848019E+02  0.24262139554E+03  0.30704750041E+03  0.17273858593E+03 0.  0.
        -24    2    5    5    0    0 -0.57584991283E+02  0.25653825867E+02  0.14487372129E+03  0.17728570010E+03  0.80421852370E+02 0.  0.
          5    1    3    3  501    0 -0.45812973587E+02  0.26138483458E+01  0.14982890242E+03  0.15676878118E+03  0.47000000000E+01 0. -1.
        -13    1    4    4    0    0  0.85870791407E+02  0.73792643038E+02  0.17972007917E+03  0.21241104924E+03  0.00000000000E+00 0.  1.
         14    1    4    4    0    0  0.59848157239E+01 -0.17631643365E+02  0.49804030640E+02  0.53170803407E+02  0.00000000000E+00 0. -1.
         -5    1    5    5    0  502  0.11542357740E+02 -0.84428673886E+02  0.97747674252E+02  0.12976180030E+03  0.47000000000E+01 0.  1.
         13    1    6    6    0    0 -0.11693886932E+02  0.49203796906E+02  0.73870654898E+02  0.89524489815E+02  0.00000000000E+00 0. -1.
        -14    1    6    6    0    0 -0.45891104351E+02 -0.23549971039E+02  0.71003066390E+02  0.87761210289E+02  0.00000000000E+00 0.  1.
</event>
<event>
12    1  0.8633375E-002  0.1914746E+03  0.7818608E-02  0.1157168E+00
         21   -1    0    0  501  502  0.00000000000E+00  0.00000000000E+00  0.10144369681E+03  0.10144369681E+03  0.00000000000E+00 0.  1.
         21   -1    0    0  502  503 -0.00000000000E+00 -0.00000000000E+00 -0.41999532241E+03  0.41999532241E+03  0.00000000000E+00 0.  1.
         -6    2    1    2    0  503 -0.55518084872E+02  0.59158366944E+02 -0.61638811492E+02  0.20102255568E+03  0.17328806849E+03 0.  0.
        -24    2    3    3    0    0  0.10301506998E+02 -0.15630433964E+02 -0.44615878024E+02  0.99842252857E+02  0.87335372967E+02 0.  0.
          6    2    1    2  501    0  0.55518084872E+02 -0.59158366944E+02 -0.25691281410E+03  0.32041646354E+03  0.17343744098E+03 0.  0.
         24    2    5    5    0    0  0.55732229609E+02 -0.10988106807E+02 -0.52559702818E+02  0.11041002576E+03  0.78746628625E+02 0.  0.
          5    1    5    5  501    0 -0.21414473682E+00 -0.48170260137E+02 -0.20435311128E+03  0.21000643778E+03  0.47000000000E+01 0. -1.
        -11    1    6    6    0    0  0.34551749577E+02 -0.40914858479E+02 -0.10425966583E+02  0.54557765922E+02  0.00000000000E+00 0.  1.
         12    1    6    6    0    0  0.21180480031E+02  0.29926751672E+02 -0.42133736235E+02  0.55852259839E+02  0.00000000000E+00 0. -1.
         -5    1    3    3    0  503 -0.65819591869E+02  0.74788800908E+02 -0.17022933468E+02  0.10118030282E+03  0.47000000000E+01 0.  1.
         13    1    4    4    0    0  0.33104991201E+02 -0.24014712545E+01  0.13650510977E+02  0.35889329285E+02  0.00000000000E+00 0. -1.
        -14    1    4    4    0    0 -0.22803484203E+02 -0.13228962709E+02 -0.58266389001E+02  0.63952923572E+02  0.00000000000E+00 0.  1.
</event>
<event>
12    1  0.8633375E-002  0.1944493E+03  0.7818608E-02  0.1154628E+00
         21   -1    0    0  501  502  0.00000000000E+00  0.00000000000E+00  0.54391471239E+02  0.54391471239E+02  0.00000000000E+00 0. -1.
         21   -1    0    0  502  503 -0.00000000000E+00 -0.00000000000E+00 -0.69932314104E+03  0.69932314104E+03  0.00000000000E+00 0. -1.
         -6    2    1    2    0  503 -0.18325007154E+02 -0.88437532325E+02 -0.35725899143E+03  0.40648834097E+03  0.17158607572E+03 0.  0.
        -24    2    3    3    0    0 -0.54636699316E+02 -0.93935705316E+01 -0.12985392793E+03  0.16296906085E+03  0.81384667586E+02 0.  0.
          6    2    1    2  501    0  0.18325007154E+02  0.88437532325E+02 -0.28767267837E+03  0.34722627130E+03  0.17220194712E+03 0.  0.
         24    2    5    5    0    0  0.63565242357E+02  0.25630740898E+02 -0.11201448149E+03  0.15521256330E+03  0.82741892818E+02 0.  0.
          5    1    5    5  501    0 -0.45240235203E+02  0.62806791427E+02 -0.17565819688E+03  0.19201370800E+03  0.47000000000E+01 0. -1.
        -13    1    6    6    0    0  0.34891474821E+02 -0.23481060018E+02 -0.78887464218E+02  0.89398026854E+02  0.00000000000E+00 0.  1.
         14    1    6    6    0    0  0.28673767536E+02  0.49111800916E+02 -0.33127017272E+02  0.65814536443E+02  0.00000000000E+00 0. -1.
         -5    1    3    3    0  503  0.36311692162E+02 -0.79043961794E+02 -0.22740506350E+03  0.24351928012E+03  0.47000000000E+01 0.  1.
         13    1    4    4    0    0  0.16880025911E+02 -0.31870689201E+01 -0.61469721273E+02  0.63824911410E+02  0.00000000000E+00 0. -1.
        -14    1    4    4    0    0 -0.71516725227E+02 -0.62065016115E+01 -0.68384206655E+02  0.99144149445E+02  0.00000000000E+00 0.  1.
</event>
<event>
12    1  0.8633375E-002  0.2628393E+03  0.7818608E-02  0.1105532E+00
         21   -1    0    0  503  502  0.00000000000E+00  0.00000000000E+00  0.17870206550E+03  0.17870206550E+03  0.00000000000E+00 0. -1.
         21   -1    0    0  501  503 -0.00000000000E+00 -0.00000000000E+00 -0.39381419271E+03  0.39381419271E+03  0.00000000000E+00 0.  1.
          6    2    1    2  501    0  0.18541513797E+03  0.71864024660E+02 -0.14835240966E+03  0.30133120700E+03  0.17102294416E+03 0.  0.
         24    2    3    3    0    0  0.19760726784E+03  0.25735810965E+02 -0.12295235655E+03  0.24707521353E+03  0.78853756328E+02 0.  0.
         -6    2    1    2    0  502 -0.18541513797E+03 -0.71864024660E+02 -0.66759717554E+02  0.27118505121E+03  0.17187571289E+03 0.  0.
        -24    2    5    5    0    0 -0.12058482062E+03 -0.77070925883E+02  0.19361117935E+02  0.16316204359E+03  0.75936638073E+02 0.  0.
          5    1    3    3  501    0 -0.12192129873E+02  0.46128213695E+02 -0.25400053109E+02  0.54255993470E+02  0.47000000000E+01 0. -1.
        -13    1    4    4    0    0  0.19391713340E+03  0.34835590835E+02 -0.12904355643E+03  0.23551987702E+03  0.00000000000E+00 0.  1.
         14    1    4    4    0    0  0.36901344455E+01 -0.90997798704E+01  0.60911998772E+01  0.11555336510E+02  0.00000000000E+00 0. -1.
         -5    1    5    5    0  502 -0.64830317356E+02  0.52069012227E+01 -0.86120835489E+02  0.10802300761E+03  0.47000000000E+01 0.  1.
         11    1    6    6    0    0 -0.37352106543E+02 -0.55387509101E+02 -0.18301286635E+02  0.69266825538E+02  0.00000000000E+00 0. -1.
        -12    1    6    6    0    0 -0.83232714073E+02 -0.21683416782E+02  0.37662404570E+02  0.93895218053E+02  0.00000000000E+00 0.  1.
</event>
<event>
12    1  0.8633375E-002  0.2416672E+03  0.7818608E-02  0.1118772E+00
         21   -1    0    0  501  502  0.00000000000E+00  0.00000000000E+00  0.46265933976E+03  0.46265933976E+03  0.00000000000E+00 0.  1.
         21   -1    0    0  502  503 -0.00000000000E+00 -0.00000000000E+00 -0.18466450271E+03  0.18466450271E+03  0.00000000000E+00 0. -1.
         -6    2    1    2    0  503  0.12608137362E+03  0.11291221630E+03 -0.43381594043E+02  0.24553007508E+03  0.17250325708E+03 0.  0.
        -24    2    3    3    0    0  0.44922126949E+02  0.26735955151E+02 -0.76675920542E+02  0.12247003492E+03  0.79918107308E+02 0.  0.
          6    2    1    2  501    0 -0.12608137362E+03 -0.11291221630E+03  0.32137643110E+03  0.40179376739E+03  0.17178399135E+03 0.  0.
         24    2    5    5    0    0 -0.67827639046E+00 -0.75203946938E+02  0.13366741193E+03  0.17287322168E+03  0.79762648323E+02 0.  0.
          5    1    5    5  501    0 -0.12540309723E+03 -0.37708269364E+02  0.18770901916E+03  0.22892054571E+03  0.47000000000E+01 0. -1.
        -11    1    6    6    0    0 -0.40060084164E+02 -0.34931628516E+02  0.69402006383E+02  0.87416631736E+02  0.00000000000E+00 0.  1.
         12    1    6    6    0    0  0.39381807773E+02 -0.40272318422E+02  0.64265405551E+02  0.85456589946E+02  0.00000000000E+00 0. -1.
         -5    1    3    3    0  503  0.81159246669E+02  0.86176261150E+02  0.33294326499E+02  0.12306004015E+03  0.47000000000E+01 0.  1.
         13    1    4    4    0    0  0.59966994789E+02  0.41607707703E+02 -0.50219825556E+02  0.88596121152E+02  0.00000000000E+00 0. -1.
        -14    1    4    4    0    0 -0.15044867840E+02 -0.14871752552E+02 -0.26456094987E+02  0.33873913772E+02  0.00000000000E+00 0.  1.
</event>
<event>
12    1  0.8633375E-002  0.3124601E+03  0.7818608E-02  0.1079261E+00
         21   -1    0    0  501  502  0.00000000000E+00  0.00000000000E+00  0.28170112796E+03  0.28170112796E+03  0.00000000000E+00 0. -1.
         21   -1    0    0  502  503 -0.00000000000E+00 -0.00000000000E+00 -0.36875282447E+03  0.36875282447E+03  0.00000000000E+00 0. -1.
         -6    2    1    2    0  503  0.12897655593E+03 -0.22582892934E+03 -0.12469443302E+03  0.33573457628E+03  0.17185850801E+03 0.  0.
        -24    2    3    3    0    0  0.10466436312E+03 -0.16485339579E+03 -0.15674183218E+03  0.26253468418E+03  0.78899856972E+02 0.  0.
          6    2    1    2  501    0 -0.12897655593E+03  0.22582892934E+03  0.37642736510E+02  0.31471937615E+03  0.17319830485E+03 0.  0.
         24    2    5    5    0    0 -0.28917868582E+02  0.80548050925E+02  0.70954231183E+02  0.13513646988E+03  0.76831835441E+02 0.  0.
          5    1    5    5  501    0 -0.10005868734E+03  0.14528087842E+03 -0.33311494673E+02  0.17958290627E+03  0.47000000000E+01 0. -1.
        -11    1    6    6    0    0 -0.35500096231E+01  0.22022293715E+02 -0.15887066796E+02  0.27385815310E+02  0.00000000000E+00 0.  1.
         12    1    6    6    0    0 -0.25367858959E+02  0.58525757210E+02  0.86841297979E+02  0.10775065457E+03  0.00000000000E+00 0. -1.
         -5    1    3    3    0  503  0.24312192807E+02 -0.60975533552E+02  0.32047399155E+02  0.73199892101E+02  0.47000000000E+01 0.  1.
         13    1    4    4    0    0  0.14224829833E+02 -0.59604984392E+02 -0.12812059259E+02  0.62603904116E+02  0.00000000000E+00 0. -1.
        -14    1    4    4    0    0  0.90439533285E+02 -0.10524841140E+03 -0.14392977292E+03  0.19993078006E+03  0.00000000000E+00 0.  1.
</event>
<event>
12    1  0.8633375E-002  0.1887306E+03  0.7818608E-02  0.1159660E+00
         21   -1    0    0  501  502  0.00000000000E+00  0.00000000000E+00  0.95396637299E+02  0.95396637299E+02  0.00000000000E+00 0.  1.
         21   -1    0    0  502  503 -0.00000000000E+00 -0.00000000000E+00 -0.40363956106E+03  0.40363956106E+03  0.00000000000E+00 0.  1.
         -6    2    1    2    0  503  0.36409466999E+02  0.69995900898E+02 -0.85409947200E+02  0.20715716902E+03  0.17144724602E+03 0.  0.
        -24    2    3    3    0    0 -0.37316212904E+02  0.14629917023E+02 -0.14181791837E+02  0.90553532010E+02  0.79951764972E+02 0.  0.
          6    2    1    2  501    0 -0.36409466999E+02 -0.69995900898E+02 -0.22283297656E+03  0.29187902934E+03  0.17121260729E+03 0.  0.
         24    2    5    5    0    0 -0.39838160088E+02 -0.38315033620E+02 -0.23703801677E+03  0.25667524467E+03  0.81486434646E+02 0.  0.
          5    1    5    5  501    0  0.34286930886E+01 -0.31680867278E+02  0.14205040208E+02  0.35203784670E+02  0.47000000000E+01 0. -1.
        -11    1    6    6    0    0  0.42810223478E+01 -0.34420836312E+02 -0.18552468026E+03  0.18873931257E+03  0.00000000000E+00 0.  1.
         12    1    6    6    0    0 -0.44119182435E+02 -0.38941973082E+01 -0.51513336508E+02  0.67935932095E+02  0.00000000000E+00 0. -1.
         -5    1    3    3    0  503  0.73725679903E+02  0.55365983875E+02 -0.71228155363E+02  0.11660363701E+03  0.47000000000E+01 0.  1.
         11    1    4    4    0    0 -0.28358546707E+02  0.34799321184E+02 -0.37466754270E+02  0.58471853073E+02  0.00000000000E+00 0. -1.
        -12    1    4    4    0    0 -0.89576661970E+01 -0.20169404161E+02  0.23284962433E+02  0.32081678937E+02  0.00000000000E+00 0.  1.
</event>
<event>
12    1  0.8633375E-002  0.2421238E+03  0.7818608E-02  0.1119431E+00
         21   -1    0    0  503  502  0.00000000000E+00  0.00000000000E+00  0.10044552465E+04  0.10044552465E+04  0.00000000000E+00 0.  1.
         21   -1    0    0  501  503 -0.00000000000E+00 -0.00000000000E+00 -0.68831770810E+02  0.68831770810E+02  0.00000000000E+00 0. -1.
          6    2    1    2  501    0 -0.10895566604E+03 -0.13017430438E+03  0.23901077815E+03  0.33579588408E+03  0.16375602892E+03 0.  0.
         24    2    3    3    0    0 -0.65596879415E+01 -0.10249744128E+03  0.13728400405E+03  0.18875380966E+03  0.78945220985E+02 0.  0.
         -6    2    1    2    0  502  0.10895566604E+03  0.13017430438E+03  0.69661269751E+03  0.73749113320E+03  0.17264771800E+03 0.  0.
        -24    2    5    5    0    0  0.50609810960E+02  0.10521181817E+03  0.26487672254E+03  0.30109062151E+03  0.82855323108E+02 0.  0.
          5    1    3    3  501    0 -0.10239597810E+03 -0.27676863104E+02  0.10172677410E+03  0.14704207442E+03  0.47000000000E+01 0. -1.
        -11    1    4    4    0    0  0.22110534783E+02 -0.81659313738E+02  0.12559969061E+03  0.15143447939E+03  0.00000000000E+00 0.  1.
         12    1    4    4    0    0 -0.28670222725E+02 -0.20838127542E+02  0.11684313444E+02  0.37319330262E+02  0.00000000000E+00 0. -1.
         -5    1    5    5    0  502  0.58345855084E+02  0.24962486215E+02  0.43173597497E+03  0.43640051169E+03  0.47000000000E+01 0.  1.
         11    1    6    6    0    0 -0.21011733136E+02  0.41513286248E+02  0.72270126362E+02  0.85952411420E+02  0.00000000000E+00 0. -1.
        -12    1    6    6    0    0  0.71621544096E+02  0.63698531921E+02  0.19260659618E+03  0.21513821009E+03  0.00000000000E+00 0.  1.
</event>
<event>
12    1  0.8633375E-002  0.2375877E+03  0.7818608E-02  0.1121465E+00
         21   -1    0    0  501  502  0.00000000000E+00  0.00000000000E+00  0.52237853531E+03  0.52237853531E+03  0.00000000000E+00 0.  1.
         21   -1    0    0  502  503 -0.00000000000E+00 -0.00000000000E+00 -0.11314000664E+03  0.11314000664E+03  0.00000000000E+00 0. -1.
         -6    2    1    2    0  503 -0.15171362752E+03  0.61049116370E+02  0.13644866594E+03  0.27398202003E+03  0.17234816354E+03 0.  0.
        -24    2    3    3    0    0 -0.16222203002E+03  0.65060242447E+02  0.15825201475E+03  0.24900219467E+03  0.80059793939E+02 0.  0.
          6    2    1    2  501    0  0.15171362752E+03 -0.61049116370E+02  0.27278986273E+03  0.36153652192E+03  0.17190208868E+03 0.  0.
         24    2    5    5    0    0  0.70284520512E+02 -0.43329956613E+02  0.53583095967E+02  0.12697658356E+03  0.80215370320E+02 0.  0.
          5    1    5    5  501    0  0.81429107004E+02 -0.17719159757E+02  0.21920676676E+03  0.23455993836E+03  0.47000000000E+01 0. -1.
        -13    1    6    6    0    0  0.57394440345E+02 -0.18888461933E+02  0.71829482720E+02  0.93863573151E+02  0.00000000000E+00 0.  1.
         14    1    6    6    0    0  0.12890080166E+02 -0.24441494680E+02 -0.18246386753E+02  0.33113010410E+02  0.00000000000E+00 0. -1.
         -5    1    3    3    0  503  0.10508402502E+02 -0.40111260769E+01 -0.21803348810E+02  0.24979825358E+02  0.47000000000E+01 0.  1.
         13    1    4    4    0    0 -0.52844245705E+02  0.25920213979E+02  0.84937488109E+01  0.59468609919E+02  0.00000000000E+00 0. -1.
        -14    1    4    4    0    0 -0.10937778431E+03  0.39140028469E+02  0.14975826594E+03  0.18953358475E+03  0.00000000000E+00 0.  1.
</event>
<event>
12    1  0.8633375E-002  0.1907828E+03  0.7818608E-02  0.1158053E+00
         21   -1    0    0  501  502  0.00000000000E+00  0.00000000000E+00  0.77041629759E+02  0.77041629759E+02  0.00000000000E+00 0.  1.
         21   -1    0    0  502  503 -0.00000000000E+00 -0.00000000000E+00 -0.51341632498E+03  0.51341632498E+03  0.00000000000E+00 0.  1.
         -6    2    1    2    0  503 -0.62800190426E+02  0.52909575940E+02 -0.30414006914E+03  0.35832852927E+03  0.17074796071E+03 0.  0.
        -24    2    3    3    0    0  0.88458695651E+01  0.45157759134E+02 -0.77124281019E+02  0.12010278206E+03  0.79743657537E+02 0.  0.
          6    2    1    2  501    0  0.62800190426E+02 -0.52909575940E+02 -0.13223462608E+03  0.23212942547E+03  0.17220565232E+03 0.  0.
         24    2    5    5    0    0  0.87468140376E+02 -0.45735732413E+02 -0.34651306093E+02  0.13111177293E+03  0.79038921969E+02 0.  0.
          5    1    5    5  501    0 -0.24667949950E+02 -0.71738435261E+01 -0.97583319986E+02  0.10101765254E+03  0.47000000000E+01 0. -1.
        -11    1    6    6    0    0  0.59107704775E+02 -0.27109280214E+02  0.18897614800E+02  0.67718193144E+02  0.00000000000E+00 0.  1.
         12    1    6    6    0    0  0.28360435601E+02 -0.18626452199E+02 -0.53548920893E+02  0.63393579784E+02  0.00000000000E+00 0. -1.
         -5    1    3    3    0  503 -0.71646059991E+02  0.77518168059E+01 -0.22701578812E+03  0.23822574721E+03  0.47000000000E+01 0.  1.
         13    1    4    4    0    0  0.16646269390E+02 -0.10133780952E+02 -0.57828172948E+02  0.61023678908E+02  0.00000000000E+00 0. -1.
        -14    1    4    4    0    0 -0.78003998249E+01  0.55291540086E+02 -0.19296108071E+02  0.59079103152E+02  0.00000000000E+00 0.  1.
</event>
<event>
12    1  0.8633375E-002  0.1952492E+03  0.7818608E-02  0.1154549E+00
         21   -1    0    0  503  502  0.00000000000E+00  0.00000000000E+00  0.99054389253E+02  0.99054389253E+02  0.00000000000E+00 0.  1.
         21   -1    0    0  501  503 -0.00000000000E+00 -0.00000000000E+00 -0.64621910827E+03  0.64621910827E+03  0.00000000000E+00 0.  1.
          6    2    1    2  501    0  0.40194053661E+02  0.82726658702E+02 -0.51492098291E+03  0.55069581653E+03  0.17222950299E+03 0.  0.
         24    2    3    3    0    0  0.10573930154E+02 -0.16346304399E+02 -0.14598460654E+03  0.16751316617E+03  0.79813193314E+02 0.  0.
         -6    2    1    2    0  502 -0.40194053661E+02 -0.82726658702E+02 -0.32243736109E+02  0.19457768099E+03  0.16840888756E+03 0.  0.
        -24    2    5    5    0    0  0.36726725205E+02 -0.31476625333E+02  0.69288790609E+01  0.94079144077E+02  0.80394313844E+02 0.  0.
          5    1    3    3  501    0  0.29620123508E+02  0.99072963101E+02 -0.36893637637E+03  0.38318265037E+03  0.47000000000E+01 0. -1.
        -13    1    4    4    0    0 -0.86163986331E+01  0.30410531998E+02 -0.56957946022E+02  0.65140236389E+02  0.00000000000E+00 0.  1.
         14    1    4    4    0    0  0.19190328787E+02 -0.46756836397E+02 -0.89026660515E+02  0.10237292978E+03  0.00000000000E+00 0. -1.
         -5    1    5    5    0  502 -0.76920778867E+02 -0.51250033369E+02 -0.39172615170E+02  0.10049853691E+03  0.47000000000E+01 0.  1.
         11    1    6    6    0    0 -0.25664059762E+02 -0.12692812729E+02  0.92800200597E+00  0.28646337395E+02  0.00000000000E+00 0. -1.
        -12    1    6    6    0    0  0.62390784967E+02 -0.18783812604E+02  0.60008770549E+01  0.65432806681E+02  0.00000000000E+00 0.  1.
</event>
<event>
12    1  0.8633375E-002  0.1958137E+03  0.7818608E-02  0.1153513E+00
         21   -1    0    0  503  502  0.00000000000E+00  0.00000000000E+00  0.16224009150E+03  0.16224009150E+03  0.00000000000E+00 0. -1.
         21   -1    0    0  501  503 -0.00000000000E+00 -0.00000000000E+00 -0.38788739708E+03  0.38788739708E+03  0.00000000000E+00 0.  1.
          6    2    1    2  501    0 -0.21086779738E+02  0.87127946225E+02 -0.28520944354E+03  0.34545545567E+03  0.17308701245E+03 0.  0.
         24    2    3    3    0    0 -0.22325938213E+02 -0.16146225628E+02 -0.79467690491E+02  0.11519723317E+03  0.78715567572E+02 0.  0.
         -6    2    1    2    0  502  0.21086779738E+02 -0.87127946225E+02  0.59562137955E+02  0.20467203291E+03  0.17408923426E+03 0.  0.
        -24    2    5    5    0    0  0.12610880979E+02 -0.12145763501E+03  0.77222919689E+02  0.16486799288E+03  0.79417153876E+02 0.  0.
          5    1    3    3  501    0  0.12391584755E+01  0.10327417185E+03 -0.20574175305E+03  0.23025822251E+03  0.47000000000E+01 0. -1.
        -13    1    4    4    0    0 -0.45280412388E+02 -0.55538346237E+01 -0.77385107219E+02  0.89831039426E+02  0.00000000000E+00 0.  1.
         14    1    4    4    0    0  0.22954474175E+02 -0.10592391004E+02 -0.20825832724E+01  0.25366193741E+02  0.00000000000E+00 0. -1.
         -5    1    5    5    0  502  0.84758987588E+01  0.34329688781E+02 -0.17660781734E+02  0.39804040034E+02  0.47000000000E+01 0.  1.
         11    1    6    6    0    0 -0.32169151207E+02 -0.40179043756E+02  0.38678467184E+02  0.64383489112E+02  0.00000000000E+00 0. -1.
        -12    1    6    6    0    0  0.44780032186E+02 -0.81278591250E+02  0.38544452504E+02  0.10048450377E+03  0.00000000000E+00 0.  1.
</event>
<event>
12    1  0.8633375E-002  0.2049549E+03  0.7818608E-02  0.1145686E+00
         21   -1    0    0  501  502  0.00000000000E+00  0.00000000000E+00  0.65983553482E+03  0.65983553482E+03  0.00000000000E+00 0. -1.
         21   -1    0    0  502  503 -0.00000000000E+00 -0.00000000000E+00 -0.94167079789E+02  0.94167079789E+02  0.00000000000E+00 0. -1.
         -6    2    1    2    0  503  0.10878369441E+03 -0.25682388275E+02  0.68072637695E+02  0.21596389052E+03  0.17179359932E+03 0.  0.
        -24    2    3    3    0    0  0.82734209496E+02  0.27451804601E+02 -0.10179051790E+02  0.11774355136E+03  0.78494457099E+02 0.  0.
          6    2    1    2  501    0 -0.10878369441E+03  0.25682388275E+02  0.49759581734E+03  0.53803872409E+03  0.17143685122E+03 0.  0.
         24    2    5    5    0    0  0.69036372676E+01  0.11085201682E+02  0.14506975310E+03  0.16669878208E+03  0.81072244196E+02 0.  0.
          5    1    5    5  501    0 -0.11568733167E+03  0.14597186593E+02  0.35252606424E+03  0.37133994201E+03  0.47000000000E+01 0. -1.
        -11    1    6    6    0    0  0.19462681682E+02  0.70038446527E+01  0.15086583452E+03  0.15227721380E+03  0.00000000000E+00 0.  1.
         12    1    6    6    0    0 -0.12559044415E+02  0.40813570289E+01 -0.57960814189E+01  0.14421568279E+02  0.00000000000E+00 0. -1.
         -5    1    3    3    0  503  0.26049484912E+02 -0.53134192876E+02  0.78251689485E+02  0.98220339156E+02  0.47000000000E+01 0.  1.
         11    1    4    4    0    0  0.30867756450E+02 -0.24543462457E+02  0.11660305147E+02  0.41123748051E+02  0.00000000000E+00 0. -1.
        -12    1    4    4    0    0  0.51866453046E+02  0.51995267058E+02 -0.21839356937E+02  0.76619803311E+02  0.00000000000E+00 0.  1.
</event>
<event>
12    1  0.8633375E-002  0.2238440E+03  0.7818608E-02  0.1131517E+00
         21   -1    0    0  503  502  0.00000000000E+00  0.00000000000E+00  0.10049301677E+03  0.10049301677E+03  0.00000000000E+00 0.  1.
         21   -1    0    0  501  503 -0.00000000000E+00 -0.00000000000E+00 -0.49306560643E+03  0.49306560643E+03  0.00000000000E+00 0.  1.
          6    2    1    2  501    0 -0.75105759225E+02 -0.11931984849E+03 -0.20218506698E+03  0.30163707918E+03  0.17386208590E+03 0.  0.
         24    2    3    3    0    0 -0.79020694186E+02 -0.14026028176E+03 -0.11768808619E+03  0.21436934044E+03  0.78654381581E+02 0.  0.
         -6    2    1    2    0  502  0.75105759225E+02  0.11931984849E+03 -0.19038752268E+03  0.29192154402E+03  0.17056575787E+03 0.  0.
        -24    2    5    5    0    0  0.22145538551E+01  0.34439769897E+02 -0.14706496086E+03  0.17185202280E+03  0.81939081205E+02 0.  0.
          5    1    3    3  501    0  0.39149349603E+01  0.20940433268E+02 -0.84496980795E+02  0.87267738739E+02  0.47000000000E+01 0. -1.
        -11    1    4    4    0    0 -0.94563282720E+02 -0.11510934606E+03 -0.91180046870E+02  0.17466017558E+03  0.00000000000E+00 0.  1.
         12    1    4    4    0    0  0.15542588534E+02 -0.25150935704E+02 -0.26508039317E+02  0.39709164856E+02  0.00000000000E+00 0. -1.
         -5    1    5    5    0  502  0.72891205370E+02  0.84880078595E+02 -0.43322561819E+02  0.12006952122E+03  0.47000000000E+01 0.  1.
         11    1    6    6    0    0  0.31477367471E+02  0.27933625423E+02 -0.13150920478E+03  0.13807890148E+03  0.00000000000E+00 0. -1.
        -12    1    6    6    0    0 -0.29262813615E+02  0.65061444737E+01 -0.15555756082E+02  0.33773121323E+02  0.00000000000E+00 0.  1.
</event>
<event>
12    1  0.8633375E-002  0.1882741E+03  0.7818608E-02  0.1160117E+00
         21   -1    0    0  501  502  0.00000000000E+00  0.00000000000E+00  0.17147085471E+03  0.17147085471E+03  0.00000000000E+00 0. -1.
         21   -1    0    0  502  503 -0.00000000000E+00 -0.00000000000E+00 -0.63339824811E+03  0.63339824811E+03  0.00000000000E+00 0.  1.
         -6    2    1    2    0  503 -0.41821566217E+00  0.76310860241E+02 -0.56150748200E+03  0.59223119032E+03  0.17211510148E+03 0.  0.
        -24    2    3    3    0    0 -0.45122339172E+02  0.10159693912E+03 -0.36647251570E+03  0.39049231821E+03  0.76316330392E+02 0.  0.
          6    2    1    2  501    0  0.41821566217E+00 -0.76310860241E+02  0.99580088594E+02  0.21263791251E+03  0.17168332911E+03 0.  0.
         24    2    5    5    0    0  0.12096139634E+01  0.18684979976E+02  0.83388857959E+02  0.11615432883E+03  0.78660885013E+02 0.  0.
          5    1    5    5  501    0 -0.79139830127E+00 -0.94995840217E+02  0.16191230634E+02  0.96483583677E+02  0.47000000000E+01 0. -1.
        -13    1    6    6    0    0  0.69615687177E+01  0.29032200010E+02 -0.20251655281E+01  0.29923792739E+02  0.00000000000E+00 0.  1.
         14    1    6    6    0    0 -0.57519547542E+01 -0.10347220034E+02  0.85414023487E+02  0.86230536089E+02  0.00000000000E+00 0. -1.
         -5    1    3    3    0  503  0.44704123510E+02 -0.25286078880E+02 -0.19503496629E+03  0.20173887211E+03  0.47000000000E+01 0.  1.
         13    1    4    4    0    0 -0.14396085177E+02  0.19518905584E+02 -0.15594009890E+02  0.28834147951E+02  0.00000000000E+00 0. -1.
        -14    1    4    4    0    0 -0.30726253996E+02  0.82078033537E+02 -0.35087850581E+03  0.36165817026E+03  0.00000000000E+00 0.  1.
</event>
<event>
12    1  0.8633375E-002  0.1808421E+03  0.7818608E-02  0.1167381E+00
         21   -1    0    0  501  502  0.00000000000E+00  0.00000000000E+00  0.76055452229E+03  0.76055452229E+03  0.00000000000E+00 0.  1.
         21   -1    0    0  502  503 -0.00000000000E+00 -0.00000000000E+00 -0.63707224320E+02  0.63707224320E+02  0.00000000000E+00 0.  1.
         -6    2    1    2    0  503 -0.11067860939E+02  0.51824048021E+02  0.11234205141E+03  0.21289577376E+03  0.17290356986E+03 0.  0.
        -24    2    3    3    0    0 -0.65229215540E+02  0.71012670501E+02  0.74810213221E+02  0.14410344539E+03  0.76626268599E+02 0.  0.
          6    2    1    2  501    0  0.11067860939E+02 -0.51824048021E+02  0.58450524656E+03  0.61136597285E+03  0.17121255796E+03 0.  0.
         24    2    5    5    0    0 -0.19823252234E+02  0.15772639633E+02  0.15651687812E+03  0.17694715813E+03  0.78555879132E+02 0.  0.
          5    1    5    5  501    0  0.30891113174E+02 -0.67596687655E+02  0.42798836844E+03  0.43441881472E+03  0.47000000000E+01 0. -1.
        -11    1    6    6    0    0 -0.98117962891E+01 -0.30455260285E+02  0.88450489071E+02  0.94059998099E+02  0.00000000000E+00 0.  1.
         12    1    6    6    0    0 -0.10011455945E+02  0.46227899918E+02  0.68066389044E+02  0.82887160034E+02  0.00000000000E+00 0. -1.
         -5    1    3    3    0  503  0.54161354601E+02 -0.19188622480E+02  0.37531838188E+02  0.68792328370E+02  0.47000000000E+01 0.  1.
         11    1    4    4    0    0 -0.39899998053E+02 -0.25370875168E+00  0.51115530284E+02  0.64844981679E+02  0.00000000000E+00 0. -1.
        -12    1    4    4    0    0 -0.25329217487E+02  0.71266379253E+02  0.23694682937E+02  0.79258463711E+02  0.00000000000E+00 0.  1.
</event>
<event>
12    1  0.8633375E-002  0.3572352E+03  0.7818608E-02  0.1059692E+00
         21   -1    0    0  501  502  0.00000000000E+00  0.00000000000E+00  0.39458832757E+03  0.39458832757E+03  0.00000000000E+00 0. -1.
         21   -1    0    0  502  503 -0.00000000000E+00 -0.00000000000E+00 -0.39270795276E+03  0.39270795276E+03  0.00000000000E+00 0.  1.
         -6    2    1    2    0  503  0.21624018523E+03  0.22661351188E+03 -0.16449624586E+03  0.39328869442E+03  0.17176577302E+03 0.  0.
        -24    2    3    3    0    0  0.11786943114E+03  0.14581519327E+03 -0.17072524322E+03  0.26575021411E+03  0.79503422826E+02 0.  0.
          6    2    1    2  501    0 -0.21624018523E+03 -0.22661351188E+03  0.16637662067E+03  0.39400758591E+03  0.17160214560E+03 0.  0.
         24    2    5    5    0    0 -0.54428731654E+02 -0.98152693856E+02  0.15329018323E+02  0.13803376605E+03  0.78879044288E+02 0.  0.
          5    1    5    5  501    0 -0.16181145358E+03 -0.12846081802E+03  0.15104760235E+03  0.25597381985E+03  0.47000000000E+01 0. -1.
        -13    1    6    6    0    0 -0.74547365384E+02 -0.85388720587E+02  0.12347972268E+02  0.11402199660E+03  0.00000000000E+00 0.  1.
         14    1    6    6    0    0  0.20118633731E+02 -0.12763973269E+02  0.29810460546E+01  0.24011769455E+02  0.00000000000E+00 0. -1.
         -5    1    3    3    0  503  0.98370754099E+02  0.80798318610E+02  0.62289973615E+01  0.12753848031E+03  0.47000000000E+01 0.  1.
         11    1    4    4    0    0  0.22306105286E+02  0.34410155526E+02 -0.53638988987E+00  0.41011082045E+02  0.00000000000E+00 0. -1.
        -12    1    4    4    0    0  0.95563325850E+02  0.11140503774E+03 -0.17018885333E+03  0.22473913206E+03  0.00000000000E+00 0.  1.
</event>
<event>
12    1  0.8633375E-002  0.1912540E+03  0.7818608E-02  0.1157387E+00
         21   -1    0    0  503  502  0.00000000000E+00  0.00000000000E+00  0.95774593637E+03  0.95774593637E+03  0.00000000000E+00 0. -1.
         21   -1    0    0  501  503 -0.00000000000E+00 -0.00000000000E+00 -0.41736187988E+02  0.41736187988E+02  0.00000000000E+00 0. -1.
          6    2    1    2  501    0  0.84499135529E+02  0.56514686171E+01  0.31168553064E+03  0.36568562848E+03  0.17148196950E+03 0.  0.
         24    2    3    3    0    0  0.41455278194E+02 -0.16537008223E+02  0.30217836377E+03  0.31611165970E+03  0.81380618911E+02 0.  0.
         -6    2    1    2    0  502 -0.84499135529E+02 -0.56514686171E+01  0.60432421774E+03  0.63379649588E+03  0.17122556771E+03 0.  0.
        -24    2    5    5    0    0 -0.34492138252E+02  0.62042217205E+02  0.34331474413E+03  0.35951348475E+03  0.79661708908E+02 0.  0.
          5    1    3    3  501    0  0.43043857335E+02  0.22188476840E+02  0.95071668682E+01  0.49573968780E+02  0.47000000000E+01 0. -1.
        -11    1    4    4    0    0  0.60814775362E+02 -0.23426815322E+02  0.27132121297E+03  0.27903844392E+03  0.00000000000E+00 0.  1.
         12    1    4    4    0    0 -0.19359497168E+02  0.68898070996E+01  0.30857150803E+02  0.37073215778E+02  0.00000000000E+00 0. -1.
         -5    1    5    5    0  502 -0.50006997278E+02 -0.67693685822E+02  0.26100947361E+03  0.27428301112E+03  0.47000000000E+01 0.  1.
         13    1    6    6    0    0 -0.35766005274E+02 -0.58033539157E+01  0.15975763688E+03  0.16381510490E+03  0.00000000000E+00 0. -1.
        -14    1    6    6    0    0  0.12738670223E+01  0.67845571121E+02  0.18355710725E+03  0.19569837986E+03  0.00000000000E+00 0.  1.
</event>
<event>
12    1  0.8633375E-002  0.2537409E+03  0.7818608E-02  0.1111561E+00
         21   -1    0    0  501  502  0.00000000000E+00  0.00000000000E+00  0.32543393596E+02  0.32543393596E+02  0.00000000000E+00 0. -1.
         21   -1    0    0  502  503 -0.00000000000E+00 -0.00000000000E+00 -0.20323309804E+04  0.20323309804E+04  0.00000000000E+00 0.  1.
         -6    2    1    2    0  503  0.17756278955E+03  0.51445084405E+02 -0.12165671438E+04  0.12427469823E+04  0.17380824425E+03 0.  0.
        -24    2    3    3    0    0  0.10879452751E+03  0.73936001356E+02 -0.51490767755E+03  0.53735134030E+03  0.79459203455E+02 0.  0.
          6    2    1    2  501    0 -0.17756278955E+03 -0.51445084405E+02 -0.78322044309E+03  0.82212739175E+03  0.16817860997E+03 0.  0.
         24    2    5    5    0    0 -0.17704019048E+03 -0.85617006201E+02 -0.73600971414E+03  0.76365572103E+03  0.52785037247E+02 0.  0.
          5    1    5    5  501    0 -0.52259906931E+00  0.34171921796E+02 -0.47210728950E+02  0.58471670723E+02  0.47000000000E+01 0. -1.
        -13    1    6    6    0    0 -0.15065004000E+03 -0.87486876898E+02 -0.58662272559E+03  0.61194412356E+03  0.00000000000E+00 0.  1.
         14    1    6    6    0    0 -0.26390150483E+02  0.18698706969E+01 -0.14938698855E+03  0.15171159747E+03  0.00000000000E+00 0. -1.
         -5    1    3    3    0  503  0.68768262040E+02 -0.22490916952E+02 -0.70165946620E+03  0.70539564198E+03  0.47000000000E+01 0.  1.
         13    1    4    4    0    0  0.97934348120E+02  0.40975784705E+02 -0.27210137267E+03  0.29207757272E+03  0.00000000000E+00 0. -1.
        -14    1    4    4    0    0  0.10860179390E+02  0.32960216651E+02 -0.24280630488E+03  0.24527376759E+03  0.00000000000E+00 0.  1.
</event>
<event>
12    1  0.8633375E-002  0.1798357E+03  0.7818608E-02  0.1168031E+00
         21   -1    0    0  501  502  0.00000000000E+00  0.00000000000E+00  0.15352009342E+03  0.15352009342E+03  0.00000000000E+00 0.  1.
         21   -1    0    0  502  503 -0.00000000000E+00 -0.00000000000E+00 -0.73743904419E+03  0.73743904419E+03  0.00000000000E+00 0.  1.
         -6    2    1    2    0  503 -0.19693792869E+01  0.52938632271E+02 -0.66865559888E+03  0.69241693000E+03  0.17185609619E+03 0.  0.
        -24    2    3    3    0    0 -0.47078790582E+02 -0.20849396622E+02 -0.37529893341E+03  0.38654153810E+03  0.76902284723E+02 0.  0.
          6    2    1    2  501    0  0.19693792869E+01 -0.52938632271E+02  0.84736648103E+02  0.19854220761E+03  0.17155853645E+03 0.  0.
         24    2    5    5    0    0 -0.36679690897E+02 -0.26527753938E+02  0.11166960189E+03  0.14433188460E+03  0.79451063377E+02 0.  0.
          5    1    5    5  501    0  0.38649070183E+02 -0.26410878334E+02 -0.26932953792E+02  0.54210323005E+02  0.47000000000E+01 0. -1.
        -13    1    6    6    0    0 -0.91116883976E+01 -0.52664075788E+02  0.64388630818E+02  0.83680484719E+02  0.00000000000E+00 0.  1.
         14    1    6    6    0    0 -0.27568002499E+02  0.26136321851E+02  0.47280971076E+02  0.60651399882E+02  0.00000000000E+00 0. -1.
         -5    1    3    3    0  503  0.45109411295E+02  0.73788028893E+02 -0.29335666547E+03  0.30587539190E+03  0.47000000000E+01 0.  1.
         13    1    4    4    0    0  0.14760147836E+01 -0.28213830881E+02 -0.48949928492E+02  0.56518088891E+02  0.00000000000E+00 0. -1.
        -14    1    4    4    0    0 -0.48554805365E+02  0.73644342588E+01 -0.32634900492E+03  0.33002344921E+03  0.00000000000E+00 0.  1.
</event>
<event>
12    1  0.8633375E-002  0.2008784E+03  0.7818608E-02  0.1149508E+00
         21   -1    0    0  503  502  0.00000000000E+00  0.00000000000E+00  0.93885665313E+02  0.93885665313E+02  0.00000000000E+00 0.  1.
         21   -1    0    0  501  503 -0.00000000000E+00 -0.00000000000E+00 -0.48610287823E+03  0.48610287823E+03  0.00000000000E+00 0.  1.
          6    2    1    2  501    0  0.54802523408E+02 -0.82253223675E+02 -0.30023255687E+03  0.36123638974E+03  0.17488062125E+03 0.  0.
         24    2    3    3    0    0  0.83615467573E+02 -0.11030123932E+03 -0.25349473509E+03  0.29940281538E+03  0.78895851148E+02 0.  0.
         -6    2    1    2    0  502 -0.54802523408E+02  0.82253223675E+02 -0.91984656050E+02  0.21875215381E+03  0.17211164536E+03 0.  0.
        -24    2    5    5    0    0 -0.69433181875E+02  0.27015106044E+02 -0.11248423873E+03  0.15786185329E+03  0.81956562043E+02 0.  0.
          5    1    3    3  501    0 -0.28812944164E+02  0.28048015642E+02 -0.46737821776E+02  0.61833574352E+02  0.47000000000E+01 0. -1.
        -13    1    4    4    0    0 -0.49343294470E+01 -0.21069043918E+02 -0.93272000478E+02  0.95749246952E+02  0.00000000000E+00 0.  1.
         14    1    4    4    0    0  0.88549797020E+02 -0.89232195400E+02 -0.16022273461E+03  0.20365356843E+03  0.00000000000E+00 0. -1.
         -5    1    5    5    0  502  0.14630658467E+02  0.55238117632E+02  0.20499582682E+02  0.60890300515E+02  0.47000000000E+01 0.  1.
         13    1    6    6    0    0 -0.28783826879E+02  0.26637177531E+02 -0.10364348457E+01  0.39231646841E+02  0.00000000000E+00 0. -1.
        -14    1    6    6    0    0 -0.40649354996E+02  0.37792851229E+00 -0.11144780389E+03  0.11863020645E+03  0.00000000000E+00 0.  1.
</event>
<event>
12    1  0.8633375E-002  0.1921194E+03  0.7818608E-02  0.1156690E+00
         21   -1    0    0  503  502  0.00000000000E+00  0.00000000000E+00  0.18140443139E+03  0.18140443139E+03  0.00000000000E+00 0. -1.
         21   -1    0    0  501  503 -0.00000000000E+00 -0.00000000000E+00 -0.77980656936E+03  0.77980656936E+03  0.00000000000E+00 0. -1.
          6    2    1    2  501    0 -0.83144619356E+02  0.15094637132E+02 -0.71270567211E+03  0.73814580075E+03  0.17253687231E+03 0.  0.
         24    2    3    3    0    0  0.11465756208E+02  0.31500156702E+02 -0.45584696850E+03  0.46388543566E+03  0.79180270852E+02 0.  0.
         -6    2    1    2    0  502  0.83144619356E+02 -0.15094637132E+02  0.11430353414E+03  0.22306520001E+03  0.17190668905E+03 0.  0.
        -24    2    5    5    0    0  0.50684125132E+02  0.11176902392E+02  0.14505446800E+03  0.17099229527E+03  0.74187348437E+02 0.  0.
          5    1    3    3  501    0 -0.94610375564E+02 -0.16405519570E+02 -0.25685870361E+03  0.27426036508E+03  0.47000000000E+01 0. -1.
        -11    1    4    4    0    0  0.30644207183E+02 -0.15480079445E+02 -0.15188331591E+03  0.15571525919E+03  0.00000000000E+00 0.  1.
         12    1    4    4    0    0 -0.19178450975E+02  0.46980236147E+02 -0.30396365260E+03  0.30817017648E+03  0.00000000000E+00 0. -1.
         -5    1    5    5    0  502  0.32460494224E+02 -0.26271539523E+02 -0.30750933863E+02  0.52072904736E+02  0.47000000000E+01 0.  1.
         13    1    6    6    0    0  0.56965449593E+02  0.18890344443E+02  0.14873398468E+03  0.16038611461E+03  0.00000000000E+00 0. -1.
        -14    1    6    6    0    0 -0.62813244606E+01 -0.77134420511E+01 -0.36795166803E+01  0.10606180663E+02  0.00000000000E+00 0.  1.
</event>
<event>
12    1  0.8633375E-002  0.1967113E+03  0.7818608E-02  0.1152690E+00
         21   -1    0    0  503  502  0.00000000000E+00  0.00000000000E+00  0.30872332548E+03  0.30872332548E+03  0.00000000000E+00 0. -1.
         21   -1    0    0  501  503 -0.00000000000E+00 -0.00000000000E+00 -0.30777062460E+03  0.30777062460E+03  0.00000000000E+00 0. -1.
          6    2    1    2  501    0  0.16877641829E+02 -0.92939289889E+02 -0.23712364349E+03  0.30766443724E+03  0.17177664928E+03 0.  0.
         24    2    3    3    0    0 -0.52452141030E+02 -0.32764532555E+02 -0.15080460587E+03  0.18156651312E+03  0.79997673974E+02 0.  0.
         -6    2    1    2    0  502 -0.16877641829E+02  0.92939289889E+02  0.23807634437E+03  0.30882951285E+03  0.17254783644E+03 0.  0.
        -24    2    5    5    0    0  0.44293154579E+01  0.10443334855E+03  0.91107878734E+02  0.15980629417E+03  0.79444716408E+02 0.  0.
          5    1    3    3  501    0  0.69329782859E+02 -0.60174757334E+02 -0.86319037618E+02  0.12609792412E+03  0.47000000000E+01 0. -1.
        -13    1    4    4    0    0 -0.55207331182E+02 -0.16324559171E+02 -0.15416349742E+03  0.16456222101E+03  0.00000000000E+00 0.  1.
         14    1    4    4    0    0  0.27551901514E+01 -0.16439973384E+02  0.33588915446E+01  0.17004292106E+02  0.00000000000E+00 0. -1.
         -5    1    5    5    0  502 -0.21306957287E+02 -0.11494058657E+02  0.14696846564E+03  0.14902321868E+03  0.47000000000E+01 0.  1.
         13    1    6    6    0    0  0.24589316819E+02  0.63701996979E+02  0.91730025538E+02  0.11435460859E+03  0.00000000000E+00 0. -1.
        -14    1    6    6    0    0 -0.20160001361E+02  0.40731351568E+02 -0.62214680432E+00  0.45451685580E+02  0.00000000000E+00 0.  1.
</event>
<event>
12    1  0.8633375E-002  0.1832892E+03  0.7818608E-02  0.1164834E+00
         21   -1    0    0  503  502  0.00000000000E+00  0.00000000000E+00  0.11804566796E+03  0.11804566796E+03  0.00000000000E+00 0. -1.
         21   -1    0    0  501  503 -0.00000000000E+00 -0.00000000000E+00 -0.35521264317E+03  0.35521264317E+03  0.00000000000E+00 0. -1.
          6    2    1    2  501    0  0.53413948862E+02 -0.23698335882E+02 -0.22476091590E+03  0.28954975288E+03  0.17293619928E+03 0.  0.
         24    2    3    3    0    0  0.33060795755E+02  0.22780712013E+02 -0.22035485223E+03  0.23840235675E+03  0.81654428812E+02 0.  0.
         -6    2    1    2    0  502 -0.53413948862E+02  0.23698335882E+02 -0.12406059307E+02  0.18370855824E+03  0.17372467587E+03 0.  0.
        -24    2    5    5    0    0 -0.95604284779E+02  0.68312199311E+01  0.19866531028E+02  0.12777883330E+03  0.82133466687E+02 0.  0.
          5    1    3    3  501    0  0.20353153107E+02 -0.46479047895E+02 -0.44060636733E+01  0.51147396138E+02  0.47000000000E+01 0. -1.
        -13    1    4    4    0    0  0.32365872538E+02  0.18065882812E+02 -0.29195787446E+02  0.47183893772E+02  0.00000000000E+00 0.  1.
         14    1    4    4    0    0  0.69492321716E+00  0.47148292008E+01 -0.19115906478E+03  0.19121846297E+03  0.00000000000E+00 0. -1.
         -5    1    5    5    0  502  0.42190335917E+02  0.16867115951E+02 -0.32272590335E+02  0.55929724943E+02  0.47000000000E+01 0.  1.
         11    1    6    6    0    0 -0.37246941107E+02  0.22195627810E+02  0.44925924011E+02  0.62436521075E+02  0.00000000000E+00 0. -1.
        -12    1    6    6    0    0 -0.58357343672E+02 -0.15364407878E+02 -0.25059392983E+02  0.65342312223E+02  0.00000000000E+00 0.  1.
</event>
<event>
12    1  0.8633375E-002  0.2624338E+03  0.7818608E-02  0.1105717E+00
         21   -1    0    0  503  502  0.00000000000E+00  0.00000000000E+00  0.69492195939E+03  0.69492195939E+03  0.00000000000E+00 0. -1.
         21   -1    0    0  501  503 -0.00000000000E+00 -0.00000000000E+00 -0.15904855406E+03  0.15904855406E+03  0.00000000000E+00 0.  1.
          6    2    1    2  501    0  0.95848773533E+02  0.17291658743E+03  0.57143373996E+01  0.26249595657E+03  0.17258140099E+03 0.  0.
         24    2    3    3    0    0  0.11553862743E+03  0.17085246389E+03 -0.27735987046E+02  0.22334285761E+03  0.81074090958E+02 0.  0.
         -6    2    1    2    0  502 -0.95848773533E+02 -0.17291658743E+03  0.53015906793E+03  0.59147455688E+03  0.17229736077E+03 0.  0.
        -24    2    5    5    0    0 -0.60049745209E+02 -0.83387050971E+02  0.44438611835E+03  0.46233820566E+03  0.75618926586E+02 0.  0.
          5    1    3    3  501    0 -0.19689853895E+02  0.20641235380E+01  0.33450324446E+02  0.39153098957E+02  0.47000000000E+01 0. -1.
        -11    1    4    4    0    0  0.64720344712E+02  0.12051850134E+03  0.18693781590E+02  0.13806842381E+03  0.00000000000E+00 0.  1.
         12    1    4    4    0    0  0.50818282715E+02  0.50333962552E+02 -0.46429768636E+02  0.85274433800E+02  0.00000000000E+00 0. -1.
         -5    1    5    5    0  502 -0.35799028324E+02 -0.89529536455E+02  0.85772949579E+02  0.12913635122E+03  0.47000000000E+01 0.  1.
         13    1    6    6    0    0  0.16223606668E+02 -0.17422100411E+02  0.13042465894E+03  0.13257951069E+03  0.00000000000E+00 0. -1.
        -14    1    6    6    0    0 -0.76273351877E+02 -0.65964950560E+02  0.31396145942E+03  0.32975869497E+03  0.00000000000E+00 0.  1.
</event>
<event>
12    1  0.8633375E-002  0.4777673E+03  0.7818608E-02  0.1019823E+00
         21   -1    0    0  503  502  0.00000000000E+00  0.00000000000E+00  0.19188863991E+04  0.19188863991E+04  0.00000000000E+00 0.  1.
         21   -1    0    0  501  503 -0.00000000000E+00 -0.00000000000E+00 -0.13995465466E+03  0.13995465466E+03  0.00000000000E+00 0. -1.
          6    2    1    2  501    0  0.33124712667E+03 -0.29632391245E+03  0.48741926291E+03  0.68179126799E+03  0.17242179454E+03 0.  0.
         24    2    3    3    0    0  0.28044743353E+03 -0.16596830923E+03  0.36706298983E+03  0.49718109876E+03  0.79104764801E+02 0.  0.
         -6    2    1    2    0  502 -0.33124712667E+03  0.29632391245E+03  0.12915124816E+04  0.13770497858E+04  0.17529718347E+03 0.  0.
        -24    2    5    5    0    0 -0.26920368461E+03  0.15070827494E+03  0.83635776858E+03  0.89513568003E+03  0.81178572679E+02 0.  0.
          5    1    3    3  501    0  0.50799693142E+02 -0.13035560323E+03  0.12035627308E+03  0.18461016923E+03  0.47000000000E+01 0. -1.
        -13    1    4    4    0    0  0.18679368741E+03 -0.14396842429E+03  0.29083899039E+03  0.37444105969E+03  0.00000000000E+00 0.  1.
         14    1    4    4    0    0  0.93653746118E+02 -0.21999884935E+02  0.76223999440E+02  0.12274003906E+03  0.00000000000E+00 0. -1.
         -5    1    5    5    0  502 -0.62043442063E+02  0.14561563751E+03  0.45515471299E+03  0.48191410577E+03  0.47000000000E+01 0.  1.
         13    1    6    6    0    0 -0.68062165968E+02  0.77297807146E+02  0.22756334862E+03  0.24978488157E+03  0.00000000000E+00 0. -1.
        -14    1    6    6    0    0 -0.20114151864E+03  0.73410467795E+02  0.60879441996E+03  0.64535079846E+03  0.00000000000E+00 0.  1.
</event>
<event>
12    1  0.8633375E-002  0.1892816E+03  0.7818608E-02  0.1159194E+00
         21   -1    0    0  501  502  0.00000000000E+00  0.00000000000E+00  0.14806900784E+04  0.14806900784E+04  0.00000000000E+00 0.  1.
         21   -1    0    0  502  503 -0.00000000000E+00 -0.00000000000E+00 -0.29559705933E+02  0.29559705933E+02  0.00000000000E+00 0.  1.
         -6    2    1    2    0  503  0.27489294041E+02 -0.72881729695E+02  0.40308771255E+03  0.44531700752E+03  0.17251123258E+03 0.  0.
        -24    2    3    3    0    0  0.70407315934E+02 -0.70323725444E+02  0.22596383068E+03  0.26298911739E+03  0.90559409202E+02 0.  0.
          6    2    1    2  501    0 -0.27489294041E+02  0.72881729695E+02  0.10480426600E+04  0.10649327769E+04  0.17210750802E+03 0.  0.
         24    2    5    5    0    0 -0.85502496989E+02  0.32639770197E+02  0.68589110629E+03  0.69593306839E+03  0.74163295541E+02 0.  0.
          5    1    5    5  501    0  0.58013202948E+02  0.40241959498E+02  0.36215155367E+03  0.36899970846E+03  0.47000000000E+01 0. -1.
        -11    1    6    6    0    0 -0.42919977469E+02  0.53514139749E+02  0.46285113482E+03  0.46790710683E+03  0.00000000000E+00 0.  1.
         12    1    6    6    0    0 -0.42582519520E+02 -0.20874369552E+02  0.22303997147E+03  0.22802596156E+03  0.00000000000E+00 0. -1.
         -5    1    3    3    0  503 -0.42918021893E+02 -0.25580042514E+01  0.17712388187E+03  0.18232789013E+03  0.47000000000E+01 0.  1.
         11    1    4    4    0    0 -0.19046296990E+01  0.12793563434E+02  0.15964942607E+01  0.13032715509E+02  0.00000000000E+00 0. -1.
        -12    1    4    4    0    0  0.72311945633E+02 -0.83117288877E+02  0.22436733642E+03  0.24995640188E+03  0.00000000000E+00 0.  1.
</event>
<event>
12    1  0.8633375E-002  0.2023873E+03  0.7818608E-02  0.1148041E+00
         21   -1    0    0  503  502  0.00000000000E+00  0.00000000000E+00  0.12737261955E+04  0.12737261955E+04  0.00000000000E+00 0. -1.
         21   -1    0    0  501  503 -0.00000000000E+00 -0.00000000000E+00 -0.32734851925E+02  0.32734851925E+02  0.00000000000E+00 0. -1.
          6    2    1    2  501    0 -0.63378088139E+02 -0.84578040714E+02  0.72514759774E+03  0.75286097310E+03  0.17259889709E+03 0.  0.
         24    2    3    3    0    0 -0.57625425210E+02  0.17840263063E+02  0.37567832031E+03  0.38861728001E+03  0.79058366803E+02 0.  0.
         -6    2    1    2    0  502  0.63378088139E+02  0.84578040714E+02  0.51584374583E+03  0.55360007432E+03  0.17090361363E+03 0.  0.
        -24    2    5    5    0    0  0.69928768755E+02  0.68071119114E+02  0.18668672685E+03  0.22393081124E+03  0.75956331430E+02 0.  0.
          5    1    3    3  501    0 -0.57526629287E+01 -0.10241830378E+03  0.34946927744E+03  0.36424369309E+03  0.47000000000E+01 0. -1.
        -13    1    4    4    0    0 -0.14313154082E+02  0.45583224001E+02  0.16771253355E+03  0.17438517884E+03  0.00000000000E+00 0.  1.
         14    1    4    4    0    0 -0.43312271128E+02 -0.27742960938E+02  0.20796578676E+03  0.21423210117E+03  0.00000000000E+00 0. -1.
         -5    1    5    5    0  502 -0.65506806162E+01  0.16506921600E+02  0.32915701898E+03  0.32966926308E+03  0.47000000000E+01 0.  1.
         13    1    6    6    0    0  0.82907618044E+01  0.36250576096E+02  0.12728308916E+03  0.13260401873E+03  0.00000000000E+00 0. -1.
        -14    1    6    6    0    0  0.61638006951E+02  0.31820543019E+02  0.59403637692E+02  0.91326792509E+02  0.00000000000E+00 0.  1.
</event>
<event>
12    1  0.8633375E-002  0.2143746E+03  0.7818608E-02  0.1138387E+00
         21   -1    0    0  503  502  0.00000000000E+00  0.00000000000E+00  0.10345838837E+04  0.10345838837E+04  0.00000000000E+00 0. -1.
         21   -1    0    0  501  503 -0.00000000000E+00 -0.00000000000E+00 -0.49883615219E+02  0.49883615219E+02  0.00000000000E+00 0. -1.
          6    2    1    2  501    0  0.10874884063E+03  0.64704979990E+02  0.30749400138E+03  0.37414025254E+03  0.17150895870E+03 0.  0.
         24    2    3    3    0    0  0.63250614999E+02  0.70161936035E+02  0.30348190372E+03  0.32790115834E+03  0.80588871407E+02 0.  0.
         -6    2    1    2    0  502 -0.10874884063E+03 -0.64704979990E+02  0.67720626711E+03  0.71032724639E+03  0.17304168275E+03 0.  0.
        -24    2    5    5    0    0 -0.12747982896E+03 -0.87587175014E+01  0.54288220576E+03  0.56354210522E+03  0.80813322534E+02 0.  0.
          5    1    3    3  501    0  0.45498225631E+02 -0.54569560442E+01  0.40120976658E+01  0.46239094201E+02  0.47000000000E+01 0. -1.
        -13    1    4    4    0    0  0.17445354746E+01 -0.11029936080E+01  0.13411672910E+03  0.13413260984E+03  0.00000000000E+00 0.  1.
         14    1    4    4    0    0  0.61506079525E+02  0.71264929643E+02  0.16936517462E+03  0.19376854850E+03  0.00000000000E+00 0. -1.
         -5    1    5    5    0  502  0.18730988325E+02 -0.55946262489E+02  0.13432406135E+03  0.14678514117E+03  0.47000000000E+01 0.  1.
         11    1    6    6    0    0 -0.32929006541E+02  0.19049229584E+02  0.28396627524E+03  0.28650312056E+03  0.00000000000E+00 0. -1.
        -12    1    6    6    0    0 -0.94550822414E+02 -0.27807947086E+02  0.25891593052E+03  0.27703898465E+03  0.00000000000E+00 0.  1.
</event>
<event>
12    1  0.8633375E-002  0.2025416E+03  0.7818608E-02  0.1147785E+00
         21   -1    0    0  501  502  0.00000000000E+00  0.00000000000E+00  0.11286398386E+03  0.11286398386E+03  0.00000000000E+00 0.  1.
         21   -1    0    0  502  503 -0.00000000000E+00 -0.00000000000E+00 -0.41484987403E+03  0.41484987403E+03  0.00000000000E+00 0. -1.
         -6    2    1    2    0  503  0.23608442713E+02 -0.10305328424E+03 -0.24545596706E+03  0.31823220068E+03  0.17275926553E+03 0.  0.
        -24    2    3    3    0    0 -0.37143595534E+02 -0.10102339701E+03 -0.12366519147E+03  0.18203376599E+03  0.79106503829E+02 0.  0.
          6    2    1    2  501    0 -0.23608442713E+02  0.10305328424E+03 -0.56529923113E+02  0.20948165721E+03  0.17178356889E+03 0.  0.
         24    2    5    5    0    0 -0.50080255471E+02  0.13615441864E+02  0.70616132822E+01  0.96495560627E+02  0.81043905344E+02 0.  0.
          5    1    5    5  501    0  0.26471812758E+02  0.89437842374E+02 -0.63591536396E+02  0.11298609658E+03  0.47000000000E+01 0. -1.
        -13    1    6    6    0    0 -0.17809887641E+01  0.32230829020E+02  0.25926406983E+02  0.41402618750E+02  0.00000000000E+00 0.  1.
         14    1    6    6    0    0 -0.48299266707E+02 -0.18615387155E+02 -0.18864793701E+02  0.55092941877E+02  0.00000000000E+00 0. -1.
         -5    1    3    3    0  503  0.60752038246E+02 -0.20298872310E+01 -0.12179077559E+03  0.13619843469E+03  0.47000000000E+01 0.  1.
         11    1    4    4    0    0  0.10035418630E+02 -0.37231071213E+02 -0.85907938222E+02  0.94164941142E+02  0.00000000000E+00 0. -1.
        -12    1    4    4    0    0 -0.47179014164E+02 -0.63792325795E+02 -0.37757253246E+02  0.87868824850E+02  0.00000000000E+00 0.  1.
</event>
<event>
12    1  0.8633375E-002  0.2176792E+03  0.7818608E-02  0.1135772E+00
         21   -1    0    0  501  502  0.00000000000E+00  0.00000000000E+00  0.27971490653E+03  0.27971490653E+03  0.00000000000E+00 0. -1.
         21   -1    0    0  502  503 -0.00000000000E+00 -0.00000000000E+00 -0.37768512573E+03  0.37768512573E+03  0.00000000000E+00 0. -1.
         -6    2    1    2    0  503  0.78064371473E+02 -0.10672694586E+03 -0.29347304382E+03  0.36539111077E+03  0.17291486146E+03 0.  0.
        -24    2    3    3    0    0  0.18389769143E+02 -0.27812070430E+02 -0.23319911138E+03  0.24944434428E+03  0.82030241226E+02 0.  0.
          6    2    1    2  501    0 -0.78064371473E+02  0.10672694586E+03  0.19550282462E+03  0.29200892149E+03  0.17193943332E+03 0.  0.
         24    2    5    5    0    0 -0.29775852778E+02  0.32078798891E+02  0.17476010286E+02  0.92961782589E+02  0.80130090102E+02 0.  0.
          5    1    5    5  501    0 -0.48288518694E+02  0.74648146966E+02  0.17802681434E+03  0.19904713890E+03  0.47000000000E+01 0. -1.
        -11    1    6    6    0    0 -0.53062422431E+02  0.39092883343E+02  0.63363898509E+01  0.66211962957E+02  0.00000000000E+00 0.  1.
         12    1    6    6    0    0  0.23286569653E+02 -0.70140844520E+01  0.11139620435E+02  0.26749819632E+02  0.00000000000E+00 0. -1.
         -5    1    3    3    0  503  0.59674602329E+02 -0.78914875427E+02 -0.60273932441E+02  0.11594676649E+03  0.47000000000E+01 0.  1.
         13    1    4    4    0    0  0.26346699814E+02 -0.11024904728E+02 -0.18689998913E+02  0.34132289327E+02  0.00000000000E+00 0. -1.
        -14    1    4    4    0    0 -0.79569306706E+01 -0.16787165703E+02 -0.21450911246E+03  0.21531205495E+03  0.00000000000E+00 0.  1.
</event>
<event>
12    1  0.8633375E-002  0.1833378E+03  0.7818608E-02  0.1164825E+00
         21   -1    0    0  501  502  0.00000000000E+00  0.00000000000E+00  0.61022459798E+02  0.61022459798E+02  0.00000000000E+00 0. -1.
         21   -1    0    0  502  503 -0.00000000000E+00 -0.00000000000E+00 -0.18192872162E+04  0.18192872162E+04  0.00000000000E+00 0. -1.
         -6    2    1    2    0  503  0.39064407598E+02 -0.47641053839E+02 -0.16656544520E+04  0.16757140227E+04  0.17267609664E+03 0.  0.
        -24    2    3    3    0    0 -0.30190295958E+02 -0.69851983311E+02 -0.93562100040E+03  0.94205165495E+03  0.79271121232E+02 0.  0.
          6    2    1    2  501    0 -0.39064407598E+02  0.47641053839E+02 -0.92610304436E+02  0.20459565336E+03  0.17171783523E+03 0.  0.
         24    2    5    5    0    0 -0.57625843893E+02  0.85126235852E+02 -0.96227259943E+02  0.16234830842E+03  0.80808871882E+02 0.  0.
          5    1    5    5  501    0  0.18561436295E+02 -0.37485182013E+02  0.36169555074E+01  0.42247344947E+02  0.47000000000E+01 0. -1.
        -11    1    6    6    0    0 -0.31554706551E+02 -0.73706692251E+01 -0.38178316667E+02  0.50076043512E+02  0.00000000000E+00 0.  1.
         12    1    6    6    0    0 -0.26071137342E+02  0.92496905077E+02 -0.58048943276E+02  0.11227226490E+03  0.00000000000E+00 0. -1.
         -5    1    3    3    0  503  0.69254703556E+02  0.22210929472E+02 -0.73003345161E+03  0.73366236773E+03  0.47000000000E+01 0.  1.
         11    1    4    4    0    0 -0.26555913852E+02 -0.63169271478E+02 -0.93017619114E+03  0.93269679960E+03  0.00000000000E+00 0. -1.
        -12    1    4    4    0    0 -0.36343821064E+01 -0.66827118336E+01 -0.54448092602E+01  0.93548553503E+01  0.00000000000E+00 0.  1.
</event>
<event>
12    1  0.8633375E-002  0.2027123E+03  0.7818608E-02  0.1148380E+00
         21   -1    0    0  501  502  0.00000000000E+00  0.00000000000E+00  0.19133229990E+02  0.19133229990E+02  0.00000000000E+00 0.  1.
         21   -1    0    0  502  503 -0.00000000000E+00 -0.00000000000E+00 -0.21627780121E+04  0.21627780121E+04  0.00000000000E+00 0. -1.
         -6    2    1    2    0  503  0.37606498886E+02 -0.94311016634E+02 -0.12660015162E+04  0.12821279582E+04  0.17545211768E+03 0.  0.
        -24    2    3    3    0    0 -0.23886527536E+02 -0.50958601615E+02 -0.26871943827E+03  0.28200073774E+03  0.64396694812E+02 0.  0.
          6    2    1    2  501    0 -0.37606498886E+02  0.94311016634E+02 -0.87764326593E+03  0.89978328389E+03  0.17042135759E+03 0.  0.
         24    2    5    5    0    0  0.11537067481E+02 -0.10887769120E+02 -0.23652026144E+03  0.24821389271E+03  0.73597928099E+02 0.  0.
          5    1    5    5  501    0 -0.49143566367E+02  0.10519878575E+03 -0.64112300449E+03  0.65156939118E+03  0.47000000000E+01 0. -1.
        -13    1    6    6    0    0 -0.27093446967E+01  0.28578192792E+02 -0.56570615294E+02  0.63437277422E+02  0.00000000000E+00 0.  1.
         14    1    6    6    0    0  0.14246412177E+02 -0.39465961912E+02 -0.17994964615E+03  0.18477661529E+03  0.00000000000E+00 0. -1.
         -5    1    3    3    0  503  0.61493026423E+02 -0.43352415019E+02 -0.99728207788E+03  0.10001272204E+04  0.47000000000E+01 0.  1.
         13    1    4    4    0    0  0.20757109254E+02 -0.28429544477E+02 -0.12312505956E+03  0.12805809961E+03  0.00000000000E+00 0. -1.
        -14    1    4    4    0    0 -0.44643636790E+02 -0.22529057138E+02 -0.14559437872E+03  0.15394263813E+03  0.00000000000E+00 0.  1.
</event>
<event>
12    1  0.8633375E-002  0.1939016E+03  0.7818608E-02  0.1156248E+00
         21   -1    0    0  501  502  0.00000000000E+00  0.00000000000E+00  0.66114848664E+02  0.66114848664E+02  0.00000000000E+00 0. -1.
         21   -1    0    0  502  503 -0.00000000000E+00 -0.00000000000E+00 -0.55327609939E+03  0.55327609939E+03  0.00000000000E+00 0. -1.
         -6    2    1    2    0  503  0.13624898722E+02  0.85918360607E+02 -0.22662727746E+03  0.29462060487E+03  0.16695441107E+03 0.  0.
        -24    2    3    3    0    0  0.24413709259E+02  0.12150519919E+03 -0.20092742931E+03  0.24917400205E+03  0.79726462467E+02 0.  0.
          6    2    1    2  501    0 -0.13624898722E+02 -0.85918360607E+02 -0.26053397327E+03  0.32477034318E+03  0.17329230227E+03 0.  0.
         24    2    5    5    0    0 -0.59891275813E+02 -0.89584989261E+01 -0.10517484425E+03  0.14526561642E+03  0.79831897320E+02 0.  0.
          5    1    5    5  501    0  0.46266377090E+02 -0.76959861680E+02 -0.15535912902E+03  0.17950472676E+03  0.47000000000E+01 0. -1.
        -11    1    6    6    0    0 -0.62742426833E+02 -0.36264136777E+02 -0.71308232731E+02  0.10166889296E+03  0.00000000000E+00 0.  1.
         12    1    6    6    0    0  0.28511510199E+01  0.27305637851E+02 -0.33866611517E+02  0.43596723458E+02  0.00000000000E+00 0. -1.
         -5    1    3    3    0  503 -0.10788810536E+02 -0.35586838588E+02 -0.25699848147E+02  0.45446602824E+02  0.47000000000E+01 0.  1.
         11    1    4    4    0    0  0.19126123665E+02  0.78640869262E+02 -0.18705248582E+03  0.20381076364E+03  0.00000000000E+00 0. -1.
        -12    1    4    4    0    0  0.52875855937E+01  0.42864329932E+02 -0.13874943488E+02  0.45363238407E+02  0.00000000000E+00 0.  1.
</event>
<event>
12    1  0.8633375E-002  0.2686621E+03  0.7818608E-02  0.1102567E+00
         21   -1    0    0  503  502  0.00000000000E+00  0.00000000000E+00  0.27538928410E+03  0.27538928410E+03  0.00000000000E+00 0. -1.
         21   -1    0    0  501  503 -0.00000000000E+00 -0.00000000000E+00 -0.32545156387E+03  0.32545156387E+03  0.00000000000E+00 0.  1.
          6    2    1    2  501    0  0.19538092636E+03  0.47050008977E+02 -0.16130441217E+03  0.31336627402E+03  0.17830282830E+03 0.  0.
         24    2    3    3    0    0  0.50811327510E+02  0.56663635407E+02 -0.23688392902E+02  0.11348368478E+03  0.80776532305E+02 0.  0.
         -6    2    1    2    0  502 -0.19538092636E+03 -0.47050008977E+02  0.11124213240E+03  0.28747457395E+03  0.17285661376E+03 0.  0.
        -24    2    5    5    0    0 -0.11277564083E+03 -0.52856611956E+02 -0.98753995035E+00  0.14792193446E+03  0.79798225956E+02 0.  0.
          5    1    3    3  501    0  0.14456959885E+03 -0.96136264294E+01 -0.13761601927E+03  0.19988258925E+03  0.47000000000E+01 0. -1.
        -13    1    4    4    0    0 -0.68498293834E+01  0.49178911278E+01 -0.34267158019E+02  0.35289430916E+02  0.00000000000E+00 0.  1.
         14    1    4    4    0    0  0.57661156893E+02  0.51745744279E+02  0.10578765117E+02  0.78194253859E+02  0.00000000000E+00 0. -1.
         -5    1    5    5    0  502 -0.82605285529E+02  0.58066029784E+01  0.11222967235E+03  0.13955263950E+03  0.47000000000E+01 0.  1.
         13    1    6    6    0    0 -0.89959842521E+02 -0.16492566000E+02  0.28551181774E+02  0.95812045069E+02  0.00000000000E+00 0. -1.
        -14    1    6    6    0    0 -0.22815798311E+02 -0.36364045956E+02 -0.29538721725E+02  0.52109889387E+02  0.00000000000E+00 0.  1.
</event>
<event>
12    1  0.8633375E-002  0.2321736E+03  0.7818608E-02  0.1125150E+00
         21   -1    0    0  501  502  0.00000000000E+00  0.00000000000E+00  0.98461693937E+03  0.98461693937E+03  0.00000000000E+00 0. -1.
         21   -1    0    0  502  503 -0.00000000000E+00 -0.00000000000E+00 -0.59282617338E+02  0.59282617338E+02  0.00000000000E+00 0.  1.
         -6    2    1    2    0  503  0.15523924269E+03 -0.14083285586E+02  0.31745195223E+03  0.39318799070E+03  0.17182401650E+03 0.  0.
        -24    2    3    3    0    0  0.52311610579E+02  0.17797058232E+02  0.24543388378E+03  0.26349934062E+03  0.78363711746E+02 0.  0.
          6    2    1    2  501    0 -0.15523924269E+03  0.14083285586E+02  0.60788236980E+03  0.65071156601E+03  0.17206686265E+03 0.  0.
         24    2    5    5    0    0 -0.10783843118E+03  0.28674900771E+02  0.57534795576E+03  0.59121089154E+03  0.77805339800E+02 0.  0.
          5    1    5    5  501    0 -0.47400811513E+02 -0.14591615185E+02  0.32534414037E+02  0.59500674471E+02  0.47000000000E+01 0. -1.
        -11    1    6    6    0    0 -0.46775136782E+02 -0.10500611103E+02  0.10662147178E+03  0.11690301322E+03  0.00000000000E+00 0.  1.
         12    1    6    6    0    0 -0.61063294398E+02  0.39175511873E+02  0.46872648398E+03  0.47430787832E+03  0.00000000000E+00 0. -1.
         -5    1    3    3    0  503  0.10292763211E+03 -0.31880343818E+02  0.72018068455E+02  0.12968865008E+03  0.47000000000E+01 0.  1.
         13    1    4    4    0    0  0.21888142785E+02 -0.29013287672E+02  0.13430127815E+03  0.13913193368E+03  0.00000000000E+00 0. -1.
        -14    1    4    4    0    0  0.30423467794E+02  0.46810345904E+02  0.11113260562E+03  0.12436740694E+03  0.00000000000E+00 0.  1.
</event>
<event>
12    1  0.8633375E-002  0.1804958E+03  0.7818608E-02  0.1167450E+00
         21   -1    0    0  501  502  0.00000000000E+00  0.00000000000E+00  0.33100120929E+03  0.33100120929E+03  0.00000000000E+00 0.  1.
         21   -1    0    0  502  503 -0.00000000000E+00 -0.00000000000E+00 -0.12318555370E+03  0.12318555370E+03  0.00000000000E+00 0.  1.
         -6    2    1    2    0  503  0.13233965738E+02 -0.52381195943E+02  0.16311737390E+01  0.18050316853E+03  0.17222022409E+03 0.  0.
        -24    2    3    3    0    0  0.31544280593E+02 -0.16792961569E+02 -0.61537196458E+02  0.10557571663E+03  0.77989487733E+02 0.  0.
          6    2    1    2  501    0 -0.13233965738E+02  0.52381195943E+02  0.20618448185E+03  0.27368359446E+03  0.17167335781E+03 0.  0.
         24    2    5    5    0    0 -0.19160642718E+02 -0.37173353857E+02  0.10135585027E+03  0.13560291193E+03  0.79788175018E+02 0.  0.
          5    1    5    5  501    0  0.59266769802E+01  0.89554549800E+02  0.10482863157E+03  0.13808068253E+03  0.47000000000E+01 0. -1.
        -11    1    6    6    0    0  0.22849093139E+02 -0.11274757620E+02  0.75921632949E+02  0.80083054178E+02  0.00000000000E+00 0.  1.
         12    1    6    6    0    0 -0.42009735858E+02 -0.25898596237E+02  0.25434217324E+02  0.55519857752E+02  0.00000000000E+00 0. -1.
         -5    1    3    3    0  503 -0.18310314854E+02 -0.35588234374E+02  0.63168370197E+02  0.74927451907E+02  0.47000000000E+01 0.  1.
         11    1    4    4    0    0 -0.17450793866E+02  0.60176669201E+01  0.56919030337E+01  0.19316839334E+02  0.00000000000E+00 0. -1.
        -12    1    4    4    0    0  0.48995074458E+02 -0.22810628489E+02 -0.67229099491E+02  0.86258877292E+02  0.00000000000E+00 0.  1.
</event>
<event>
12    1  0.8633375E-002  0.2308503E+03  0.7818608E-02  0.1126137E+00
         21   -1    0    0  501  502  0.00000000000E+00  0.00000000000E+00  0.16299914383E+03  0.16299914383E+03  0.00000000000E+00 0.  1.
         21   -1    0    0  502  503 -0.00000000000E+00 -0.00000000000E+00 -0.36769518669E+03  0.36769518669E+03  0.00000000000E+00 0. -1.
         -6    2    1    2    0  503 -0.80386280888E+02 -0.13416268284E+03 -0.19160630882E+03  0.30000807199E+03  0.16979483519E+03 0.  0.
        -24    2    3    3    0    0 -0.53710072467E+01 -0.97651661248E+01 -0.97347032594E+02  0.12677720119E+03  0.80447546870E+02 0.  0.
          6    2    1    2  501    0  0.80386280888E+02  0.13416268284E+03 -0.13089734048E+02  0.23068625854E+03  0.16906575383E+03 0.  0.
         24    2    5    5    0    0  0.74823938128E+02  0.17509915823E+02  0.14671464796E+02  0.11055473948E+03  0.78114529210E+02 0.  0.
          5    1    5    5  501    0  0.55623427597E+01  0.11665276702E+03 -0.27761198844E+02  0.12013151906E+03  0.47000000000E+01 0. -1.
        -11    1    6    6    0    0  0.16008569673E+02  0.42597935081E+02  0.34738945846E+01  0.45639087630E+02  0.00000000000E+00 0.  1.
         12    1    6    6    0    0  0.58815368455E+02 -0.25088019258E+02  0.11197570211E+02  0.64915651852E+02  0.00000000000E+00 0. -1.
         -5    1    3    3    0  503 -0.75015273641E+02 -0.12439751671E+03 -0.94259276222E+02  0.17323087080E+03  0.47000000000E+01 0.  1.
         11    1    4    4    0    0 -0.18955834396E+02  0.16162210947E+02 -0.94083060511E+02  0.97325037866E+02  0.00000000000E+00 0. -1.
        -12    1    4    4    0    0  0.13584827149E+02 -0.25927377072E+02 -0.32639720829E+01  0.29452163321E+02  0.00000000000E+00 0.  1.
</event>
<event>
12    1  0.8633375E-002  0.1741463E+03  0.7818608E-02  0.1173712E+00
         21   -1    0    0  503  502  0.00000000000E+00  0.00000000000E+00  0.86494591038E+03  0.86494591038E+03  0.00000000000E+00 0. -1.
         21   -1    0    0  501  503 -0.00000000000E+00 -0.00000000000E+00 -0.39213965948E+02  0.39213965948E+02  0.00000000000E+00 0. -1.
          6    2    1    2  501    0  0.27078292689E+02  0.60901978332E+00  0.26357492613E+03  0.31564697267E+03  0.17154493531E+03 0.  0.
         24    2    3    3    0    0 -0.26674839295E+02  0.43183616128E+02  0.20565313335E+03  0.22576360640E+03  0.78100083014E+02 0.  0.
         -6    2    1    2    0  502 -0.27078292689E+02 -0.60901978332E+00  0.56215701830E+03  0.58851290366E+03  0.17202709005E+03 0.  0.
        -24    2    5    5    0    0  0.53067400141E+01 -0.58729290603E+02  0.41628674014E+03  0.42811656868E+03  0.80696067446E+02 0.  0.
          5    1    3    3  501    0  0.53753131984E+02 -0.42574596344E+02  0.57921792786E+02  0.89883366268E+02  0.47000000000E+01 0. -1.
        -11    1    4    4    0    0 -0.17464471674E+02  0.65654826134E+00  0.16592356397E+03  0.16684144541E+03  0.00000000000E+00 0.  1.
         12    1    4    4    0    0 -0.92103676213E+01  0.42527067866E+02  0.39729569381E+02  0.58922160994E+02  0.00000000000E+00 0. -1.
         -5    1    5    5    0  502 -0.32385032703E+02  0.58120270820E+02  0.14587027816E+03  0.16039633498E+03  0.47000000000E+01 0.  1.
         11    1    6    6    0    0 -0.33410574949E+02 -0.47452233168E+02  0.20706413801E+03  0.21504310777E+03  0.00000000000E+00 0. -1.
        -12    1    6    6    0    0  0.38717314963E+02 -0.11277057434E+02  0.20922260213E+03  0.21307346091E+03  0.00000000000E+00 0.  1.
</event>
<event>
12    1  0.8633375E-002  0.1860569E+03  0.7818608E-02  0.1162566E+00
         21   -1    0    0  503  502  0.00000000000E+00  0.00000000000E+00  0.63374639258E+03  0.63374639258E+03  0.00000000000E+00 0. -1.
         21   -1    0    0  501  503 -0.00000000000E+00 -0.00000000000E+00 -0.91037950673E+02  0.91037950673E+02  0.00000000000E+00 0.  1.
          6    2    1    2  501    0 -0.30108012112E+01  0.67097821398E+02  0.39265969770E+02  0.18806142568E+03  0.17121361186E+03 0.  0.
         24    2    3    3    0    0  0.31027386972E+02  0.99839241537E+02  0.77697870943E+01  0.13109917177E+03  0.78714994464E+02 0.  0.
         -6    2    1    2    0  502  0.30108012112E+01 -0.67097821398E+02  0.50344247214E+03  0.53672291757E+03  0.17351076318E+03 0.  0.
        -24    2    5    5    0    0 -0.36477687507E+02 -0.92063515136E+00  0.38768146733E+03  0.39757745069E+03  0.80246120972E+02 0.  0.
          5    1    3    3  501    0 -0.34038188183E+02 -0.32741420139E+02  0.31496182675E+02  0.56962253911E+02  0.47000000000E+01 0. -1.
        -13    1    4    4    0    0  0.11245981062E+02  0.27746716045E+01 -0.24347935557E+02  0.26962805092E+02  0.00000000000E+00 0.  1.
         14    1    4    4    0    0  0.19781405910E+02  0.97064569933E+02  0.32117722651E+02  0.10413636667E+03  0.00000000000E+00 0. -1.
         -5    1    5    5    0  502  0.39488488718E+02 -0.66177186247E+02  0.11576100481E+03  0.13914546688E+03  0.47000000000E+01 0.  1.
         11    1    6    6    0    0 -0.16431730172E+02  0.12563483638E+02  0.18941196466E+02  0.28046600528E+02  0.00000000000E+00 0. -1.
        -12    1    6    6    0    0 -0.20045957334E+02 -0.13484118789E+02  0.36874027086E+03  0.36953085016E+03  0.00000000000E+00 0.  1.
</event>
<event>
12    1  0.8633375E-002  0.1860788E+03  0.7818608E-02  0.1162591E+00
         21   -1    0    0  503  502  0.00000000000E+00  0.00000000000E+00  0.31472555338E+03  0.31472555338E+03  0.00000000000E+00 0. -1.
         21   -1    0    0  501  503 -0.00000000000E+00 -0.00000000000E+00 -0.27865099263E+03  0.27865099263E+03  0.00000000000E+00 0. -1.
          6    2    1    2  501    0 -0.40627880368E+01  0.66407093846E+02 -0.21374903962E+03  0.28186870426E+03  0.17127435926E+03 0.  0.
         24    2    3    3    0    0 -0.28016912300E+02  0.10060646384E+03 -0.11170515827E+03  0.17151273161E+03  0.77665737487E+02 0.  0.
         -6    2    1    2    0  502  0.40627880368E+01 -0.66407093846E+02  0.24982360037E+03  0.31150784176E+03  0.17377829500E+03 0.  0.
        -24    2    5    5    0    0 -0.26273812161E+02  0.40904158612E+01  0.49102073947E+02  0.96562664197E+02  0.78780008527E+02 0.  0.
          5    1    3    3  501    0  0.23954124264E+02 -0.34199369992E+02 -0.10204388135E+03  0.11035597265E+03  0.47000000000E+01 0. -1.
        -13    1    4    4    0    0 -0.92512490696E+01  0.35206377533E+02  0.46774786736E+01  0.36700864228E+02  0.00000000000E+00 0.  1.
         14    1    4    4    0    0 -0.18765663231E+02  0.65400086305E+02 -0.11638263694E+03  0.13481186738E+03  0.00000000000E+00 0. -1.
         -5    1    5    5    0  502  0.30336600198E+02 -0.70497509707E+02  0.20072152643E+03  0.21494517756E+03  0.47000000000E+01 0.  1.
         11    1    6    6    0    0 -0.48319943530E+02  0.11280326479E+02  0.53491817915E+02  0.72961889313E+02  0.00000000000E+00 0. -1.
        -12    1    6    6    0    0  0.22046131369E+02 -0.71899106175E+01 -0.43897439684E+01  0.23600774884E+02  0.00000000000E+00 0.  1.
</event>
<event>
12    1  0.8633375E-002  0.3278624E+03  0.7818608E-02  0.1072090E+00
         21   -1    0    0  503  502  0.00000000000E+00  0.00000000000E+00  0.18993980558E+03  0.18993980558E+03  0.00000000000E+00 0. -1.
         21   -1    0    0  501  503 -0.00000000000E+00 -0.00000000000E+00 -0.81073349910E+03  0.81073349910E+03  0.00000000000E+00 0. -1.
          6    2    1    2  501    0  0.10497370784E+01 -0.27893409623E+03 -0.58536419538E+03  0.67092848099E+03  0.17230337598E+03 0.  0.
         24    2    3    3    0    0  0.64959136188E+02 -0.10098786351E+03 -0.25028570931E+03  0.28615717896E+03  0.69460469584E+02 0.  0.
         -6    2    1    2    0  502 -0.10497370784E+01  0.27893409623E+03 -0.35429498136E+02  0.32974482370E+03  0.17225291704E+03 0.  0.
        -24    2    5    5    0    0  0.66378613452E+02  0.15857473743E+03 -0.21057511869E+02  0.19095865113E+03  0.80434569439E+02 0.  0.
          5    1    3    3  501    0 -0.63909399109E+02 -0.17794623273E+03 -0.33507848607E+03  0.38477130203E+03  0.47000000000E+01 0. -1.
        -13    1    4    4    0    0  0.55586052368E+02 -0.28541911447E+02 -0.14622063145E+03  0.15901233597E+03  0.00000000000E+00 0.  1.
         14    1    4    4    0    0  0.93730838198E+01 -0.72445952061E+02 -0.10406507786E+03  0.12714484299E+03  0.00000000000E+00 0. -1.
         -5    1    5    5    0  502 -0.67428350530E+02  0.12035935880E+03 -0.14371986267E+02  0.13878617256E+03  0.47000000000E+01 0.  1.
         11    1    6    6    0    0  0.13700400107E+02  0.11576941829E+03  0.85815833892E+01  0.11689269758E+03  0.00000000000E+00 0. -1.
        -12    1    6    6    0    0  0.52678213345E+02  0.42805319148E+02 -0.29639095258E+02  0.74065953556E+02  0.00000000000E+00 0.  1.
</event>
<event>
12    1  0.8633375E-002  0.5284358E+03  0.7818608E-02  0.1006620E+00
         21   -1    0    0  503  502  0.00000000000E+00  0.00000000000E+00  0.17805873592E+04  0.17805873592E+04  0.00000000000E+00 0. -1.
         21   -1    0    0  501  503 -0.00000000000E+00 -0.00000000000E+00 -0.27764151528E+03  0.27764151528E+03  0.00000000000E+00 0.  1.
          6    2    1    2  501    0 -0.39093733814E+03  0.31099473055E+03  0.72459176876E+02  0.53325790728E+03  0.17194167203E+03 0.  0.
         24    2    3    3    0    0 -0.36174396414E+03  0.28743079197E+03  0.20228724982E+02  0.46877827955E+03  0.76607560326E+02 0.  0.
         -6    2    1    2    0  502  0.39093733814E+03 -0.31099473055E+03  0.14304866670E+04  0.15249709672E+04  0.17232127384E+03 0.  0.
        -24    2    5    5    0    0  0.34533089518E+03 -0.21267189218E+03  0.10149318924E+04  0.10954885008E+04  0.74334032275E+02 0.  0.
          5    1    3    3  501    0 -0.29193374002E+02  0.23563938579E+02  0.52230451894E+02  0.64479627729E+02  0.47000000000E+01 0. -1.
        -13    1    4    4    0    0 -0.21403141142E+03  0.16669857310E+03  0.49506335202E+02  0.27576935394E+03  0.00000000000E+00 0.  1.
         14    1    4    4    0    0 -0.14771255272E+03  0.12073221888E+03 -0.29277610220E+02  0.19300892561E+03  0.00000000000E+00 0. -1.
         -5    1    5    5    0  502  0.45606442962E+02 -0.98322838366E+02  0.41555477467E+03  0.42948246639E+03  0.47000000000E+01 0.  1.
         11    1    6    6    0    0  0.21119621598E+03 -0.16981776860E+03  0.69321192389E+03  0.74430147629E+03  0.00000000000E+00 0. -1.
        -12    1    6    6    0    0  0.13413467920E+03 -0.42854123584E+02  0.32171996846E+03  0.35118702450E+03  0.00000000000E+00 0.  1.
</event>
<event>
12    1  0.8633375E-002  0.1999735E+03  0.7818608E-02  0.1149903E+00
         21   -1    0    0  501  502  0.00000000000E+00  0.00000000000E+00  0.65375986216E+03  0.65375986216E+03  0.00000000000E+00 0. -1.
         21   -1    0    0  502  503 -0.00000000000E+00 -0.00000000000E+00 -0.74414267201E+02  0.74414267201E+02  0.00000000000E+00 0. -1.
         -6    2    1    2    0  503 -0.76710445494E+02  0.66137631922E+02  0.13527859780E+03  0.24143261078E+03  0.17242600651E+03 0.  0.
        -24    2    3    3    0    0 -0.50876827618E+02  0.10812431440E+03  0.12651537561E+03  0.19114204127E+03  0.79055807656E+02 0.  0.
          6    2    1    2  501    0  0.76710445494E+02 -0.66137631922E+02  0.44406699717E+03  0.48674151859E+03  0.17164827159E+03 0.  0.
         24    2    5    5    0    0 -0.10159551604E+02 -0.49207344474E+02  0.32088932861E+03  0.33499218890E+03  0.82007476303E+02 0.  0.
          5    1    5    5  501    0  0.86869997098E+02 -0.16930287448E+02  0.12317766856E+03  0.15174932969E+03  0.47000000000E+01 0. -1.
        -11    1    6    6    0    0 -0.72033418459E+01 -0.35754947176E+02  0.41444978396E+02  0.55208609977E+02  0.00000000000E+00 0.  1.
         12    1    6    6    0    0 -0.29562097581E+01 -0.13452397299E+02  0.27944435021E+03  0.27978357892E+03  0.00000000000E+00 0. -1.
         -5    1    3    3    0  503 -0.25833617876E+02 -0.41986682476E+02  0.87632221835E+01  0.50290569503E+02  0.47000000000E+01 0.  1.
         13    1    4    4    0    0  0.75577129069E+01  0.61218352748E+02  0.28994104766E+02  0.68157639695E+02  0.00000000000E+00 0. -1.
        -14    1    4    4    0    0 -0.58434540525E+02  0.46905961650E+02  0.97521270846E+02  0.12298440158E+03  0.00000000000E+00 0.  1.
</event>
<event>
12    1  0.8633375E-002  0.1888303E+03  0.7818608E-02  0.1159689E+00
         21   -1    0    0  501  502  0.00000000000E+00  0.00000000000E+00  0.36598293481E+03  0.36598293481E+03  0.00000000000E+00 0. -1.
         21   -1    0    0  502  503 -0.00000000000E+00 -0.00000000000E+00 -0.10961383070E+03  0.10961383070E+03  0.00000000000E+00 0. -1.
         -6    2    1    2    0  503 -0.34049735544E+02 -0.66619581258E+02  0.47889606602E+02  0.19480839193E+03  0.17337630186E+03 0.  0.
        -24    2    3    3    0    0 -0.17367632482E+02  0.90286897605E+01  0.79178567192E+02  0.11113018374E+03  0.75481920612E+02 0.  0.
          6    2    1    2  501    0  0.34049735544E+02  0.66619581258E+02  0.20847949751E+03  0.28078837358E+03  0.17257130919E+03 0.  0.
         24    2    5    5    0    0  0.23694965991E+02 -0.21158219158E+02  0.53645288940E+02  0.10244071970E+03  0.81284453473E+02 0.  0.
          5    1    5    5  501    0  0.10354769554E+02  0.87777800416E+02  0.15483420858E+03  0.17834765388E+03  0.47000000000E+01 0. -1.
        -13    1    6    6    0    0 -0.21309306832E+02 -0.20095294535E+02  0.49129409769E+02  0.57197957344E+02  0.00000000000E+00 0.  1.
         14    1    6    6    0    0  0.45004272823E+02 -0.10629246222E+01  0.45158791711E+01  0.45242762358E+02  0.00000000000E+00 0. -1.
         -5    1    3    3    0  503 -0.16682103062E+02 -0.75648271018E+02 -0.31288960590E+02  0.83678208187E+02  0.47000000000E+01 0.  1.
         13    1    4    4    0    0 -0.10247746818E+02 -0.28291187513E+02  0.91351133563E+01  0.31446111075E+02  0.00000000000E+00 0. -1.
        -14    1    4    4    0    0 -0.71198856644E+01  0.37319877273E+02  0.70043453836E+02  0.79684072667E+02  0.00000000000E+00 0.  1.
</event>
<event>
12    1  0.8633375E-002  0.2744542E+03  0.7818608E-02  0.1098782E+00
         21   -1    0    0  501  502  0.00000000000E+00  0.00000000000E+00  0.20162386435E+03  0.20162386435E+03  0.00000000000E+00 0.  1.
         21   -1    0    0  502  503 -0.00000000000E+00 -0.00000000000E+00 -0.13159556035E+04  0.13159556035E+04  0.00000000000E+00 0.  1.
         -6    2    1    2    0  503 -0.17565381282E+03 -0.12147398406E+03 -0.11994106985E+04  0.12304109694E+04  0.17238021655E+03 0.  0.
        -24    2    3    3    0    0 -0.50940270188E+02 -0.11145824457E+03 -0.63803347716E+03  0.65524120537E+03  0.85067431084E+02 0.  0.
          6    2    1    2  501    0  0.17565381282E+03  0.12147398406E+03  0.85078959406E+02  0.28716849844E+03  0.17209627074E+03 0.  0.
         24    2    5    5    0    0  0.82361623609E+02  0.53165477509E+02 -0.23522034201E+02  0.12846830800E+03  0.79629234732E+02 0.  0.
          5    1    5    5  501    0  0.93292189210E+02  0.68308506550E+02  0.10860099361E+03  0.15870019044E+03  0.47000000000E+01 0. -1.
        -13    1    6    6    0    0  0.63946588327E+02  0.57914161264E+01  0.13468433239E+02  0.65605680801E+02  0.00000000000E+00 0.  1.
         14    1    6    6    0    0  0.18415035282E+02  0.47374061382E+02 -0.36990467440E+02  0.62862627194E+02  0.00000000000E+00 0. -1.
         -5    1    3    3    0  503 -0.12471354263E+03 -0.10015739484E+02 -0.56137722139E+03  0.57516976402E+03  0.47000000000E+01 0.  1.
         13    1    4    4    0    0 -0.12198618483E+02 -0.79525548435E+01 -0.28366718985E+03  0.28404070838E+03  0.00000000000E+00 0. -1.
        -14    1    4    4    0    0 -0.38741651705E+02 -0.10350568973E+03 -0.35436628731E+03  0.37120049699E+03  0.00000000000E+00 0.  1.
</event>
<event>
12    1  0.8633375E-002  0.2329540E+03  0.7818608E-02  0.1125003E+00
         21   -1    0    0  503  502  0.00000000000E+00  0.00000000000E+00  0.72450613831E+03  0.72450613831E+03  0.00000000000E+00 0.  1.
         21   -1    0    0  501  503 -0.00000000000E+00 -0.00000000000E+00 -0.89098779754E+02  0.89098779754E+02  0.00000000000E+00 0.  1.
          6    2    1    2  501    0  0.56530863365E+02  0.14216672727E+03  0.14950981957E+03  0.27475061110E+03  0.17241692288E+03 0.  0.
         24    2    3    3    0    0  0.65138808328E+02  0.69591357776E+02  0.21536545009E+02  0.12730390895E+03  0.81587015114E+02 0.  0.
         -6    2    1    2    0  502 -0.56530863365E+02 -0.14216672727E+03  0.48589753899E+03  0.53885430696E+03  0.17567136615E+03 0.  0.
        -24    2    5    5    0    0 -0.53906473185E+02 -0.15812427158E+02  0.13186203081E+03  0.16290813046E+03  0.77430763241E+02 0.  0.
          5    1    3    3  501    0 -0.86079449626E+01  0.72575369493E+02  0.12797327456E+03  0.14744670215E+03  0.47000000000E+01 0. -1.
        -13    1    4    4    0    0  0.59619108558E+02  0.87023915102E+02  0.25650556841E+02  0.10856127749E+03  0.00000000000E+00 0.  1.
         14    1    4    4    0    0  0.55196997692E+01 -0.17432557326E+02 -0.41140118318E+01  0.18742631454E+02  0.00000000000E+00 0. -1.
         -5    1    5    5    0  502 -0.26243901796E+01 -0.12635430011E+03  0.35403550817E+03  0.37594617650E+03  0.47000000000E+01 0.  1.
         13    1    6    6    0    0 -0.62347567587E+02 -0.25793909315E+02  0.61348410049E+02  0.91193049940E+02  0.00000000000E+00 0. -1.
        -14    1    6    6    0    0  0.84410944019E+01  0.99814821567E+01  0.70513620766E+02  0.71715080522E+02  0.00000000000E+00 0.  1.
</event>
<event>
12    1  0.8633375E-002  0.1774560E+03  0.7818608E-02  0.1171037E+00
         21   -1    0    0  503  502  0.00000000000E+00  0.00000000000E+00  0.22189027881E+03  0.22189027881E+03  0.00000000000E+00 0. -1.
         21   -1    0    0  501  503 -0.00000000000E+00 -0.00000000000E+00 -0.14245173591E+03  0.14245173591E+03  0.00000000000E+00 0. -1.
          6    2    1    2  501    0  0.27004532040E+02 -0.19782991663E+02  0.13259519578E+02  0.17494745710E+03  0.17120217983E+03 0.  0.
         24    2    3    3    0    0  0.26244767186E+02  0.29394074235E+02  0.59108876338E+02  0.10754408502E+03  0.80740767619E+02 0.  0.
         -6    2    1    2    0  502 -0.27004532040E+02  0.19782991663E+02  0.66179023320E+02  0.18939455762E+03  0.17426997395E+03 0.  0.
        -24    2    5    5    0    0 -0.21700950343E+02  0.56369143728E+02  0.96246137906E+02  0.14151140943E+03  0.84343039579E+02 0.  0.
          5    1    3    3  501    0  0.75976485357E+00 -0.49177065898E+02 -0.45849356760E+02  0.67403372084E+02  0.47000000000E+01 0. -1.
        -11    1    4    4    0    0 -0.23342833942E+02 -0.10784500806E+02  0.13033443477E+02  0.28828180708E+02  0.00000000000E+00 0.  1.
         12    1    4    4    0    0  0.49587601129E+02  0.40178575041E+02  0.46075432861E+02  0.78715904310E+02  0.00000000000E+00 0. -1.
         -5    1    5    5    0  502 -0.53035816967E+01 -0.36586152065E+02 -0.30067114586E+02  0.47883148197E+02  0.47000000000E+01 0.  1.
         11    1    6    6    0    0 -0.53622473452E+02  0.26963199368E+02  0.61284829762E+02  0.85780033448E+02  0.00000000000E+00 0. -1.
        -12    1    6    6    0    0  0.31921523109E+02  0.29405944360E+02  0.34961308144E+02  0.55731375978E+02  0.00000000000E+00 0.  1.
</event>
<event>
12    1  0.8633375E-002  0.2131766E+03  0.7818608E-02  0.1139422E+00
         21   -1    0    0  503  502  0.00000000000E+00  0.00000000000E+00  0.15513345344E+03  0.15513345344E+03  0.00000000000E+00 0. -1.
         21   -1    0    0  501  503 -0.00000000000E+00 -0.00000000000E+00 -0.31583480344E+03  0.31583480344E+03  0.00000000000E+00 0.  1.
          6    2    1    2  501    0  0.12386821602E+03  0.10517461696E+01 -0.14736227039E+03  0.25915226499E+03  0.17349298719E+03 0.  0.
         24    2    3    3    0    0  0.71365370427E+02 -0.30566396732E+02 -0.16304410508E+03  0.19571516468E+03  0.75456774252E+02 0.  0.
         -6    2    1    2    0  502 -0.12386821602E+03 -0.10517461696E+01 -0.13339079616E+02  0.21181599188E+03  0.17129986066E+03 0.  0.
        -24    2    5    5    0    0 -0.12676643048E+03 -0.40656411597E+02  0.24115778874E+02  0.15702652579E+03  0.79706256396E+02 0.  0.
          5    1    3    3  501    0  0.52502845597E+02  0.31618142901E+02  0.15681834692E+02  0.63437100309E+02  0.47000000000E+01 0. -1.
        -11    1    4    4    0    0  0.83971799977E+02 -0.37577392650E+02 -0.12639806245E+03  0.15633231854E+03  0.00000000000E+00 0.  1.
         12    1    4    4    0    0 -0.12606429550E+02  0.70109959185E+01 -0.36646042628E+02  0.39382846140E+02  0.00000000000E+00 0. -1.
         -5    1    5    5    0  502  0.28982144564E+01  0.39604665428E+02 -0.37454858489E+02  0.54789466097E+02  0.47000000000E+01 0.  1.
         13    1    6    6    0    0 -0.35032350827E+02 -0.47629965166E+02  0.26963017845E+02  0.64983717326E+02  0.00000000000E+00 0. -1.
        -14    1    6    6    0    0 -0.91734079654E+02  0.69735535687E+01 -0.28472389711E+01  0.92042808459E+02  0.00000000000E+00 0.  1.
</event>
<event>
12    1  0.8633375E-002  0.4812959E+03  0.7818608E-02  0.1018898E+00
         21   -1    0    0  503  502  0.00000000000E+00  0.00000000000E+00  0.14516199510E+03  0.14516199510E+03  0.00000000000E+00 0. -1.
         21   -1    0    0  501  503 -0.00000000000E+00 -0.00000000000E+00 -0.15910786127E+04  0.15910786127E+04  0.00000000000E+00 0.  1.
          6    2    1    2  501    0 -0.42271688654E+03  0.14865942038E+03 -0.70222437387E+03  0.85133120019E+03  0.17566033053E+03 0.  0.
         24    2    3    3    0    0 -0.13736615824E+03  0.10715728168E+03 -0.29784088213E+03  0.35464662820E+03  0.81932260912E+02 0.  0.
         -6    2    1    2    0  502  0.42271688654E+03 -0.14865942038E+03 -0.74369224370E+03  0.88490940760E+03  0.17087222382E+03 0.  0.
        -24    2    5    5    0    0  0.34704680510E+03 -0.17921517612E+03 -0.62648218753E+03  0.74201118262E+03  0.74438562246E+02 0.  0.
          5    1    3    3  501    0 -0.28535072830E+03  0.41502138696E+02 -0.40438349174E+03  0.49668457199E+03  0.47000000000E+01 0. -1.
        -11    1    4    4    0    0 -0.19778518885E+02  0.36477382984E+02 -0.13748292950E+03  0.14360830471E+03  0.00000000000E+00 0.  1.
         12    1    4    4    0    0 -0.11758763935E+03  0.70679898696E+02 -0.16035795264E+03  0.21103832349E+03  0.00000000000E+00 0. -1.
         -5    1    5    5    0  502  0.75670081440E+02  0.30555755749E+02 -0.11721005617E+03  0.14289822498E+03  0.47000000000E+01 0.  1.
         11    1    6    6    0    0  0.16561482144E+03 -0.63800242097E+02 -0.22501860540E+03  0.28658700730E+03  0.00000000000E+00 0. -1.
        -12    1    6    6    0    0  0.18143198366E+03 -0.11541493403E+03 -0.40146358213E+03  0.45542417532E+03  0.00000000000E+00 0.  1.
</event>
<event>
12    1  0.8633375E-002  0.2094224E+03  0.7818608E-02  0.1142411E+00
         21   -1    0    0  501  502  0.00000000000E+00  0.00000000000E+00  0.17367303027E+04  0.17367303027E+04  0.00000000000E+00 0.  1.
         21   -1    0    0  502  503 -0.00000000000E+00 -0.00000000000E+00 -0.27446969076E+02  0.27446969076E+02  0.00000000000E+00 0. -1.
         -6    2    1    2    0  503 -0.57791247619E+02 -0.10205086886E+03  0.59595980106E+03  0.63168489949E+03  0.17350365882E+03 0.  0.
        -24    2    3    3    0    0 -0.82212654072E+02 -0.39955840372E+02  0.21721218042E+03  0.24707594510E+03  0.74229385380E+02 0.  0.
          6    2    1    2  501    0  0.57791247619E+02  0.10205086886E+03  0.11133235326E+04  0.11324923723E+04  0.17115921535E+03 0.  0.
         24    2    5    5    0    0  0.40856874826E+02  0.97459464191E+02  0.45064260085E+03  0.46956254099E+03  0.79010093107E+02 0.  0.
          5    1    5    5  501    0  0.16934372793E+02  0.45914046649E+01  0.66268093176E+03  0.66292983135E+03  0.47000000000E+01 0. -1.
        -13    1    6    6    0    0 -0.22873052129E+02  0.40250671306E+02  0.15520820865E+03  0.16196567873E+03  0.00000000000E+00 0.  1.
         14    1    6    6    0    0  0.63729926956E+02  0.57208792885E+02  0.29543439220E+03  0.30759686226E+03  0.00000000000E+00 0. -1.
         -5    1    3    3    0  503  0.24421406453E+02 -0.62095028484E+02  0.37874762064E+03  0.38460895439E+03  0.47000000000E+01 0.  1.
         11    1    4    4    0    0 -0.84448822861E+02 -0.35545395829E+02  0.22201743406E+03  0.24018080663E+03  0.00000000000E+00 0. -1.
        -12    1    4    4    0    0  0.22361687893E+01 -0.44104445423E+01 -0.48052536410E+01  0.68951384663E+01  0.00000000000E+00 0.  1.
</event>
<event>
12    1  0.8633375E-002  0.1787434E+03  0.7818608E-02  0.1169056E+00
         21   -1    0    0  501  502  0.00000000000E+00  0.00000000000E+00  0.22770154564E+03  0.22770154564E+03  0.00000000000E+00 0. -1.
         21   -1    0    0  502  503 -0.00000000000E+00 -0.00000000000E+00 -0.16589855988E+03  0.16589855988E+03  0.00000000000E+00 0. -1.
         -6    2    1    2    0  503 -0.23846569405E+02 -0.38200248717E+02  0.10833155747E+03  0.20890000521E+03  0.17284550315E+03 0.  0.
        -24    2    3    3    0    0 -0.36246165645E+02 -0.41868889321E+02  0.14180882679E+03  0.17270571737E+03  0.81552026589E+02 0.  0.
          6    2    1    2  501    0  0.23846569405E+02  0.38200248717E+02 -0.46528571707E+02  0.18470010031E+03  0.17297774769E+03 0.  0.
         24    2    5    5    0    0  0.30226179543E+01  0.46045098161E+02  0.36638299023E+02  0.98479470506E+02  0.78908515839E+02 0.  0.
          5    1    5    5  501    0  0.20823951451E+02 -0.78448494435E+01 -0.83166870730E+02  0.86220629804E+02  0.47000000000E+01 0. -1.
        -13    1    6    6    0    0  0.60646366602E+00  0.58263451327E+02 -0.15747572747E+01  0.58287883983E+02  0.00000000000E+00 0.  1.
         14    1    6    6    0    0  0.24161542883E+01 -0.12218353167E+02  0.38213056298E+02  0.40191586523E+02  0.00000000000E+00 0. -1.
         -5    1    3    3    0  503  0.12399596240E+02  0.36686406040E+01 -0.33477269321E+02  0.36194287837E+02  0.47000000000E+01 0.  1.
         11    1    4    4    0    0 -0.41569075612E+02  0.11384133751E+02  0.80594914984E+02  0.91395442282E+02  0.00000000000E+00 0. -1.
        -12    1    4    4    0    0  0.53229099678E+01 -0.53253023072E+02  0.61213911806E+02  0.81310275091E+02  0.00000000000E+00 0.  1.
</event>
<event>
12    1  0.8633375E-002  0.2545082E+03  0.7818608E-02  0.1112170E+00
         21   -1    0    0  501  502  0.00000000000E+00  0.00000000000E+00  0.12265092349E+03  0.12265092349E+03  0.00000000000E+00 0.  1.
         21   -1    0    0  502  503 -0.00000000000E+00 -0.00000000000E+00 -0.54555471412E+03  0.54555471412E+03  0.00000000000E+00 0.  1.
         -6    2    1    2    0  503 -0.17375147442E+03 -0.72782082988E+02 -0.11761100488E+03  0.27074102440E+03  0.15485976674E+03 0.  0.
        -24    2    3    3    0    0 -0.10052306060E+03 -0.33544149914E+02 -0.70670726270E+01  0.13237893804E+03  0.79019896322E+02 0.  0.
          6    2    1    2  501    0  0.17375147442E+03  0.72782082988E+02 -0.30529278574E+03  0.39746461321E+03  0.17113628272E+03 0.  0.
         24    2    5    5    0    0  0.11614799937E+03  0.85732164146E+02 -0.29367938244E+03  0.33710878436E+03  0.80959194023E+02 0.  0.
          5    1    5    5  501    0  0.57603475054E+02 -0.12950081158E+02 -0.11613403302E+02  0.60355828854E+02  0.47000000000E+01 0. -1.
        -11    1    6    6    0    0  0.30863205991E+02  0.35704181004E+02 -0.31073616748E+02  0.56505713720E+02  0.00000000000E+00 0.  1.
         12    1    6    6    0    0  0.85284793376E+02  0.50027983142E+02 -0.26260576569E+03  0.28060307064E+03  0.00000000000E+00 0. -1.
         -5    1    3    3    0  503 -0.73228413818E+02 -0.39237933075E+02 -0.11054393226E+03  0.13836208636E+03  0.47000000000E+01 0.  1.
         11    1    4    4    0    0 -0.10515540101E+02  0.21588915092E+02 -0.11729057926E+02  0.26725056376E+02  0.00000000000E+00 0. -1.
        -12    1    4    4    0    0 -0.90007520502E+02 -0.55133065006E+02  0.46619852988E+01  0.10565388166E+03  0.00000000000E+00 0.  1.
</event>
<event>
12    1  0.8633375E-002  0.1870949E+03  0.7818608E-02  0.1161205E+00
         21   -1    0    0  503  502  0.00000000000E+00  0.00000000000E+00  0.15854589534E+03  0.15854589534E+03  0.00000000000E+00 0.  1.
         21   -1    0    0  501  503 -0.00000000000E+00 -0.00000000000E+00 -0.22624507792E+03  0.22624507792E+03  0.00000000000E+00 0.  1.
          6    2    1    2  501    0 -0.36102758435E+02 -0.64102166881E+02 -0.25856253818E+01  0.18668931228E+03  0.17156257429E+03 0.  0.
         24    2    3    3    0    0  0.10993793675E+02 -0.76961568364E+02 -0.46722704231E+02  0.12070733628E+03  0.79644858200E+02 0.  0.
         -6    2    1    2    0  502  0.36102758435E+02  0.64102166881E+02 -0.65113557197E+02  0.19810166099E+03  0.17202324200E+03 0.  0.
        -24    2    5    5    0    0  0.21241687195E+02  0.54292220262E+02 -0.11079652593E+03  0.14884610167E+03  0.80501163781E+02 0.  0.
          5    1    3    3  501    0 -0.47096552110E+02  0.12859401483E+02  0.44137078849E+02  0.65981975997E+02  0.47000000000E+01 0. -1.
        -13    1    4    4    0    0  0.38131913074E+02 -0.27275951566E+02 -0.43574524629E+02  0.64005933515E+02  0.00000000000E+00 0.  1.
         14    1    4    4    0    0 -0.27138119399E+02 -0.49685616798E+02 -0.31481796019E+01  0.56701402769E+02  0.00000000000E+00 0. -1.
         -5    1    5    5    0  502  0.14861071240E+02  0.98099466191E+01  0.45682968731E+02  0.49255559312E+02  0.47000000000E+01 0.  1.
         13    1    6    6    0    0 -0.22091966298E+02 -0.79965934329E+01 -0.27489035299E+02  0.36161409585E+02  0.00000000000E+00 0. -1.
        -14    1    6    6    0    0  0.43333653493E+02  0.62288813695E+02 -0.83307490628E+02  0.11268469209E+03  0.00000000000E+00 0.  1.
</event>
<event>
12    1  0.8633375E-002  0.2376095E+03  0.7818608E-02  0.1122161E+00
         21   -1    0    0  501  502  0.00000000000E+00  0.00000000000E+00  0.36140672232E+02  0.36140672232E+02  0.00000000000E+00 0.  1.
         21   -1    0    0  502  503 -0.00000000000E+00 -0.00000000000E+00 -0.19664785463E+04  0.19664785463E+04  0.00000000000E+00 0. -1.
         -6    2    1    2    0  503  0.11909787779E+03 -0.10716145038E+03 -0.14425685626E+04  0.14620062683E+04  0.17547190576E+03 0.  0.
        -24    2    3    3    0    0  0.82598219822E+02 -0.14163026005E+03 -0.99490506047E+03  0.10115120674E+04  0.80243296767E+02 0.  0.
          6    2    1    2  501    0 -0.11909787779E+03  0.10716145038E+03 -0.48776931144E+03  0.54061295023E+03  0.16933865430E+03 0.  0.
         24    2    5    5    0    0 -0.14177881520E+03  0.51393290290E+02 -0.32630354871E+03  0.36822444965E+03  0.79829422473E+02 0.  0.
          5    1    5    5  501    0  0.22680937406E+02  0.55768160087E+02 -0.16146576273E+03  0.17238850059E+03  0.47000000000E+01 0. -1.
        -11    1    6    6    0    0 -0.68513250877E+02  0.32417282478E+02 -0.78495647327E+02  0.10911696659E+03  0.00000000000E+00 0.  1.
         12    1    6    6    0    0 -0.73265564320E+02  0.18976007812E+02 -0.24780790138E+03  0.25910748305E+03  0.00000000000E+00 0. -1.
         -5    1    3    3    0  503  0.36499657969E+02  0.34468809673E+02 -0.44766350218E+03  0.45049420091E+03  0.47000000000E+01 0.  1.
         13    1    4    4    0    0  0.87826172014E+02 -0.11646434014E+03 -0.93522724666E+03  0.94653440609E+03  0.00000000000E+00 0. -1.
        -14    1    4    4    0    0 -0.52279521921E+01 -0.25165919906E+02 -0.59677813812E+02  0.64977661317E+02  0.00000000000E+00 0.  1.
</event>
<event>
12    1  0.8633375E-002  0.1920363E+03  0.7818608E-02  0.1156649E+00
         21   -1    0    0  503  502  0.00000000000E+00  0.00000000000E+00  0.13149052444E+03  0.13149052444E+03  0.00000000000E+00 0. -1.
         21   -1    0    0  501  503 -0.00000000000E+00 -0.00000000000E+00 -0.30077595857E+03  0.30077595857E+03  0.00000000000E+00 0. -1.
          6    2    1    2  501    0 -0.86256527763E+02 -0.41694268568E+01 -0.14092669508E+03  0.23819799592E+03  0.17152369858E+03 0.  0.
         24    2    3    3    0    0 -0.48670791533E+01 -0.49142378791E+02 -0.44721419096E+02  0.10431613054E+03  0.80269470613E+02 0.  0.
         -6    2    1    2    0  502  0.86256527763E+02  0.41694268568E+01 -0.28358739053E+02  0.19406848710E+03  0.17146657663E+03 0.  0.
        -24    2    5    5    0    0  0.10612318631E+03  0.94667427439E+01  0.25205485243E+02  0.13650146701E+03  0.81520452139E+02 0.  0.
          5    1    3    3  501    0 -0.81389448610E+02  0.44972951934E+02 -0.96205275980E+02  0.13388186538E+03  0.47000000000E+01 0. -1.
        -13    1    4    4    0    0  0.22069580880E+02 -0.16342961131E+02  0.14812465140E+02  0.31202049649E+02  0.00000000000E+00 0.  1.
         14    1    4    4    0    0 -0.26936660034E+02 -0.32799417660E+02 -0.59533884236E+02  0.73114080893E+02  0.00000000000E+00 0. -1.
         -5    1    5    5    0  502 -0.19866658551E+02 -0.52973158871E+01 -0.53564224296E+02  0.57567020090E+02  0.47000000000E+01 0.  1.
         11    1    6    6    0    0 -0.72672389345E+01  0.15645928276E+02  0.14323598144E+02  0.22422606832E+02  0.00000000000E+00 0. -1.
        -12    1    6    6    0    0  0.11339042525E+03 -0.61791855323E+01  0.10881887099E+02  0.11407886017E+03  0.00000000000E+00 0.  1.
</event>
<event>
12    1  0.8633375E-002  0.3247833E+03  0.7818608E-02  0.1073495E+00
         21   -1    0    0  503  502  0.00000000000E+00  0.00000000000E+00  0.28099227831E+03  0.28099227831E+03  0.00000000000E+00 0.  1.
         21   -1    0    0  501  503 -0.00000000000E+00 -0.00000000000E+00 -0.41843929838E+03  0.41843929838E+03  0.00000000000E+00 0. -1.
          6    2    1    2  501    0 -0.10751707220E+03  0.25243570770E+03 -0.18125019808E+03  0.37193520771E+03  0.17378278711E+03 0.  0.
         24    2    3    3    0    0 -0.11967265774E+03  0.12182148336E+03 -0.14700716327E+03  0.23627935899E+03  0.71097191316E+02 0.  0.
         -6    2    1    2    0  502  0.10751707220E+03 -0.25243570770E+03  0.43803178017E+02  0.32749636897E+03  0.17335352881E+03 0.  0.
        -24    2    5    5    0    0  0.71469433382E+02 -0.68055029684E+02 -0.19109349991E+02  0.12931528292E+03  0.81350526526E+02 0.  0.
          5    1    3    3  501    0  0.12155585541E+02  0.13061422434E+03 -0.34243034817E+02  0.13565584873E+03  0.47000000000E+01 0. -1.
        -13    1    4    4    0    0 -0.89181302696E+02  0.40467573031E+02 -0.82861906924E+02  0.12828493613E+03  0.00000000000E+00 0.  1.
         14    1    4    4    0    0 -0.30491355045E+02  0.81353910326E+02 -0.64145256342E+02  0.10799442286E+03  0.00000000000E+00 0. -1.
         -5    1    5    5    0  502  0.36047638818E+02 -0.18438067801E+03  0.62912528009E+02  0.19818108605E+03  0.47000000000E+01 0.  1.
         11    1    6    6    0    0  0.41686381652E+02 -0.11024455754E+02  0.26353062292E+02  0.50534908055E+02  0.00000000000E+00 0. -1.
        -12    1    6    6    0    0  0.29783051730E+02 -0.57030573929E+02 -0.45462412284E+02  0.78780374864E+02  0.00000000000E+00 0.  1.
</event>
<event>
12    1  0.8633375E-002  0.2056991E+03  0.7818608E-02  0.1145123E+00
         21   -1    0    0  501  502  0.00000000000E+00  0.00000000000E+00  0.87201233267E+03  0.87201233267E+03  0.00000000000E+00 0.  1.
         21   -1    0    0  502  503 -0.00000000000E+00 -0.00000000000E+00 -0.14645068525E+03  0.14645068525E+03  0.00000000000E+00 0.  1.
         -6    2    1    2    0  503 -0.57237544636E+02  0.96895493331E+02 -0.53739306236E+02  0.21260301478E+03  0.17218378471E+03 0.  0.
        -24    2    3    3    0    0 -0.51426208271E+02  0.22650467100E+02 -0.87449911840E+02  0.13072145104E+03  0.79264822743E+02 0.  0.
          6    2    1    2  501    0  0.57237544636E+02 -0.96895493331E+02  0.77930095366E+03  0.80586000314E+03  0.17156775671E+03 0.  0.
         24    2    5    5    0    0  0.82685303898E+02 -0.11699155046E+03  0.53774050013E+03  0.56208760382E+03  0.79080633031E+02 0.  0.
          5    1    5    5  501    0 -0.25447759262E+02  0.20096057131E+02  0.24156045353E+03  0.24377239932E+03  0.47000000000E+01 0. -1.
        -11    1    6    6    0    0  0.11395328120E+02 -0.32961230030E+02  0.27458550271E+03  0.27679142777E+03  0.00000000000E+00 0.  1.
         12    1    6    6    0    0  0.71289975777E+02 -0.84030320432E+02  0.26315499742E+03  0.28529617604E+03  0.00000000000E+00 0. -1.
         -5    1    3    3    0  503 -0.58113363650E+01  0.74245026230E+02  0.33710605604E+02  0.81881563740E+02  0.47000000000E+01 0.  1.
         13    1    4    4    0    0 -0.31089410880E+02 -0.72081032985E+01  0.42180190561E+01  0.32191612367E+02  0.00000000000E+00 0. -1.
        -14    1    4    4    0    0 -0.20336797391E+02  0.29858570399E+02 -0.91667930896E+02  0.98529838674E+02  0.00000000000E+00 0.  1.
</event>
<event>
12    1  0.8633375E-002  0.2016404E+03  0.7818608E-02  0.1148593E+00
         21   -1    0    0  501  502  0.00000000000E+00  0.00000000000E+00  0.30939199014E+03  0.30939199014E+03  0.00000000000E+00 0. -1.
         21   -1    0    0  502  503 -0.00000000000E+00 -0.00000000000E+00 -0.25281652777E+03  0.25281652777E+03  0.00000000000E+00 0.  1.
         -6    2    1    2    0  503  0.72997719560E+01  0.10335489507E+03 -0.16704158634E+03  0.26184295611E+03  0.17298358620E+03 0.  0.
        -24    2    3    3    0    0  0.15267356615E+02  0.40244837303E+02 -0.88413253634E+01  0.91268121014E+02  0.79993510810E+02 0.  0.
          6    2    1    2  501    0 -0.72997719560E+01 -0.10335489507E+03  0.22361704871E+03  0.30036556180E+03  0.17169555975E+03 0.  0.
         24    2    5    5    0    0 -0.47545978118E+02 -0.80540893520E+02  0.73157964075E+02  0.14288457271E+03  0.79476146400E+02 0.  0.
          5    1    5    5  501    0  0.40246206162E+02 -0.22814001547E+02  0.15045908463E+03  0.15748098909E+03  0.47000000000E+01 0. -1.
        -13    1    6    6    0    0 -0.27116736782E+01  0.13621613033E+01 -0.14499747835E+02  0.14813890267E+02  0.00000000000E+00 0.  1.
         14    1    6    6    0    0 -0.44834304439E+02 -0.81903054823E+02  0.87657711910E+02  0.12807068244E+03  0.00000000000E+00 0. -1.
         -5    1    3    3    0  503 -0.79675846592E+01  0.63110057763E+02 -0.15820026097E+03  0.17057483510E+03  0.47000000000E+01 0.  1.
         13    1    4    4    0    0 -0.70580745299E+01  0.44629941634E+02  0.24118075373E+02  0.51218450445E+02  0.00000000000E+00 0. -1.
        -14    1    4    4    0    0  0.22325431145E+02 -0.43851043306E+01 -0.32959400736E+02  0.40049670569E+02  0.00000000000E+00 0.  1.
</event>
<event>
12    1  0.8633375E-002  0.1797264E+03  0.7818608E-02  0.1168309E+00
         21   -1    0    0  501  502  0.00000000000E+00  0.00000000000E+00  0.11751108072E+03  0.11751108072E+03  0.00000000000E+00 0. -1.
         21   -1    0    0  502  503 -0.00000000000E+00 -0.00000000000E+00 -0.65833989153E+03  0.65833989153E+03  0.00000000000E+00 0. -1.
         -6    2    1    2    0  503  0.17545263138E+02 -0.45475005903E+02 -0.56737120763E+03  0.59515685139E+03  0.17299068786E+03 0.  0.
        -24    2    3    3    0    0 -0.12455171231E+01 -0.39049550367E+02 -0.56647086543E+03  0.57472940618E+03  0.88871988007E+02 0.  0.
          6    2    1    2  501    0 -0.17545263138E+02  0.45475005903E+02  0.26542396819E+02  0.18069412086E+03  0.17195945471E+03 0.  0.
         24    2    5    5    0    0  0.56578727636E+02  0.28448420138E+02  0.68164885263E+01  0.10198279963E+03  0.79646480624E+02 0.  0.
          5    1    5    5  501    0 -0.74123990773E+02  0.17026585764E+02  0.19725908293E+02  0.78711321225E+02  0.47000000000E+01 0. -1.
        -13    1    6    6    0    0  0.42246883605E+02 -0.21918913032E+02 -0.62699270410E+01  0.48005727866E+02  0.00000000000E+00 0.  1.
         14    1    6    6    0    0  0.14331844030E+02  0.50367333170E+02  0.13086415567E+02  0.53977071766E+02  0.00000000000E+00 0. -1.
         -5    1    3    3    0  503  0.18790780261E+02 -0.64254555362E+01 -0.90034220091E+00  0.20427445208E+02  0.47000000000E+01 0.  1.
         13    1    4    4    0    0  0.12922675747E+02 -0.64257228838E+02 -0.32579829584E+03  0.33232591921E+03  0.00000000000E+00 0. -1.
        -14    1    4    4    0    0 -0.14168192870E+02  0.25207678471E+02 -0.24067256959E+03  0.24240348697E+03  0.00000000000E+00 0.  1.
</event>
<event>
12    1  0.8633375E-002  0.1841267E+03  0.7818608E-02  0.1163926E+00
         21   -1    0    0  503  502  0.00000000000E+00  0.00000000000E+00  0.21838209246E+03  0.21838209246E+03  0.00000000000E+00 0.  1.
         21   -1    0    0  501  503 -0.00000000000E+00 -0.00000000000E+00 -0.23297691835E+03  0.23297691835E+03  0.00000000000E+00 0.  1.
          6    2    1    2  501    0 -0.48164064538E+02 -0.45078617267E+02 -0.13782763860E+03  0.22979870102E+03  0.17163661085E+03 0.  0.
         24    2    3    3    0    0 -0.24267266382E+02 -0.64127153840E+02 -0.15733804097E+03  0.19323848346E+03  0.88795609545E+02 0.  0.
         -6    2    1    2    0  502  0.48164064538E+02  0.45078617267E+02  0.12323281271E+03  0.22156030979E+03  0.17190342026E+03 0.  0.
        -24    2    5    5    0    0 -0.37078115849E+02  0.26096837171E+02  0.43923181529E+02  0.10349827147E+03  0.82017161237E+02 0.  0.
          5    1    3    3  501    0 -0.23896798155E+02  0.19048536573E+02  0.19510402374E+02  0.36560217566E+02  0.47000000000E+01 0. -1.
        -13    1    4    4    0    0 -0.50874714442E+02 -0.32079272164E+02 -0.13048595842E+03  0.14367985808E+03  0.00000000000E+00 0.  1.
         14    1    4    4    0    0  0.26607448060E+02 -0.32047881676E+02 -0.26852082553E+02  0.49558625381E+02  0.00000000000E+00 0. -1.
         -5    1    5    5    0  502  0.85242180387E+02  0.18981780096E+02  0.79309631177E+02  0.11806203831E+03  0.47000000000E+01 0.  1.
         13    1    6    6    0    0  0.41738617960E+00 -0.22403834736E+02 -0.73459509157E+01  0.23581115685E+02  0.00000000000E+00 0. -1.
        -14    1    6    6    0    0 -0.37495502028E+02  0.48500671907E+02  0.51269132445E+02  0.79917155790E+02  0.00000000000E+00 0.  1.
</event>
<event>
12    1  0.8633375E-002  0.1774837E+03  0.7818608E-02  0.1170741E+00
         21   -1    0    0  503  502  0.00000000000E+00  0.00000000000E+00  0.45092827342E+03  0.45092827342E+03  0.00000000000E+00 0. -1.
         21   -1    0    0  501  503 -0.00000000000E+00 -0.00000000000E+00 -0.69731851255E+02  0.69731851255E+02  0.00000000000E+00 0. -1.
          6    2    1    2  501    0 -0.34715415298E+02  0.51324992428E+01  0.16470022405E+03  0.24071180546E+03  0.17200147347E+03 0.  0.
         24    2    3    3    0    0  0.44205862116E+02  0.12564513580E+02  0.11012962974E+03  0.14435910633E+03  0.81234173758E+02 0.  0.
         -6    2    1    2    0  502  0.34715415298E+02 -0.51324992428E+01  0.21649619811E+03  0.27994831922E+03  0.17397975465E+03 0.  0.
        -24    2    5    5    0    0  0.55436018569E+02  0.53992500243E+02  0.16561592999E+03  0.19910278348E+03  0.78898288241E+02 0.  0.
          5    1    3    3  501    0 -0.78921277414E+02 -0.74320143369E+01  0.54570594315E+02  0.96352699130E+02  0.47000000000E+01 0. -1.
        -11    1    4    4    0    0  0.30571509334E+02 -0.31798278346E+02  0.36171340699E+02  0.57044838300E+02  0.00000000000E+00 0.  1.
         12    1    4    4    0    0  0.13634352782E+02  0.44362791926E+02  0.73958289040E+02  0.87314268026E+02  0.00000000000E+00 0. -1.
         -5    1    5    5    0  502 -0.20720603271E+02 -0.59124999486E+02  0.50880268123E+02  0.80845535736E+02  0.47000000000E+01 0.  1.
         11    1    6    6    0    0  0.55429585538E+02 -0.99696362617E+00  0.79224368765E+02  0.96695054142E+02  0.00000000000E+00 0. -1.
        -12    1    6    6    0    0  0.64330311368E-02  0.54989463869E+02  0.86391561222E+02  0.10240772934E+03  0.00000000000E+00 0.  1.
</event>
<event>
12    1  0.8633375E-002  0.2152541E+03  0.7818608E-02  0.1140276E+00
         21   -1    0    0  503  502  0.00000000000E+00  0.00000000000E+00  0.34477227974E+02  0.34477227974E+02  0.00000000000E+00 0. -1.
         21   -1    0    0  501  503 -0.00000000000E+00 -0.00000000000E+00 -0.12575756416E+04  0.12575756416E+04  0.00000000000E+00 0. -1.
          6    2    1    2  501    0 -0.74776329601E+02 -0.10399290891E+03 -0.62254030935E+03  0.65870384469E+03  0.17299795856E+03 0.  0.
         24    2    3    3    0    0 -0.21831112442E+02 -0.12169431043E+03 -0.53368024302E+03  0.55365748814E+03  0.80224121800E+02 0.  0.
         -6    2    1    2    0  502  0.74776329601E+02  0.10399290891E+03 -0.60055810429E+03  0.63334902490E+03  0.15509650590E+03 0.  0.
        -24    2    5    5    0    0  0.79981034344E+02  0.37581082297E+02 -0.50161260047E+03  0.51397598610E+03  0.68897095278E+02 0.  0.
          5    1    3    3  501    0 -0.52945217159E+02  0.17701401520E+02 -0.88860066331E+02  0.10504635655E+03  0.47000000000E+01 0. -1.
        -13    1    4    4    0    0  0.18050349089E+02  0.11683650823E+01 -0.73298201548E+02  0.75497063051E+02  0.00000000000E+00 0.  1.
         14    1    4    4    0    0 -0.39881461530E+02 -0.12286267552E+03 -0.46038204148E+03  0.47816042509E+03  0.00000000000E+00 0. -1.
         -5    1    5    5    0  502 -0.52047047438E+01  0.66411826617E+02 -0.98945503819E+02  0.11937303880E+03  0.47000000000E+01 0.  1.
         11    1    6    6    0    0  0.69320834423E+02  0.95463343788E+01 -0.22219051353E+03  0.23294878168E+03  0.00000000000E+00 0. -1.
        -12    1    6    6    0    0  0.10660199921E+02  0.28034747918E+02 -0.27942208694E+03  0.28102720442E+03  0.00000000000E+00 0.  1.
</event>
<event>
12    1  0.8633375E-002  0.1902931E+03  0.7818608E-02  0.1158391E+00
         21   -1    0    0  501  502  0.00000000000E+00  0.00000000000E+00  0.53664243930E+03  0.53664243930E+03  0.00000000000E+00 0. -1.
         21   -1    0    0  502  503 -0.00000000000E+00 -0.00000000000E+00 -0.93785503472E+02  0.93785503472E+02  0.00000000000E+00 0. -1.
         -6    2    1    2    0  503 -0.15094111731E+02 -0.78004533161E+02  0.38897894122E+03  0.43265461572E+03  0.17196761437E+03 0.  0.
        -24    2    3    3    0    0  0.44664011341E+02 -0.52799802300E+02  0.32465090136E+03  0.34118605040E+03  0.78911470629E+02 0.  0.
          6    2    1    2  501    0  0.15094111731E+02  0.78004533161E+02  0.53877994616E+02  0.19777332706E+03  0.17291301625E+03 0.  0.
         24    2    5    5    0    0 -0.58172016999E+02  0.49249689192E+02  0.15206236636E+02  0.10995327504E+03  0.77775173498E+02 0.  0.
          5    1    5    5  501    0  0.73266128730E+02  0.28754843969E+02  0.38671757980E+02  0.87820052015E+02  0.47000000000E+01 0. -1.
        -11    1    6    6    0    0 -0.19553709714E+02  0.39251635089E+02  0.42934809030E+02  0.61371298236E+02  0.00000000000E+00 0.  1.
         12    1    6    6    0    0 -0.38618307285E+02  0.99980541023E+01 -0.27728572394E+02  0.48581976806E+02  0.00000000000E+00 0. -1.
         -5    1    3    3    0  503 -0.59758123072E+02 -0.25204730860E+02  0.64328039852E+02  0.91468565322E+02  0.47000000000E+01 0.  1.
         11    1    4    4    0    0  0.60521301316E+02 -0.22786271626E+02  0.15126877209E+03  0.16451225941E+03  0.00000000000E+00 0. -1.
        -12    1    4    4    0    0 -0.15857289975E+02 -0.30013530674E+02  0.17338212928E+03  0.17667379098E+03  0.00000000000E+00 0.  1.
</event>
<event>
12    1  0.8633375E-002  0.2050456E+03  0.7818608E-02  0.1146469E+00
         21   -1    0    0  503  502  0.00000000000E+00  0.00000000000E+00  0.49107193783E+03  0.49107193783E+03  0.00000000000E+00 0. -1.
         21   -1    0    0  501  503 -0.00000000000E+00 -0.00000000000E+00 -0.91856603339E+02  0.91856603339E+02  0.00000000000E+00 0. -1.
          6    2    1    2  501    0 -0.90328867064E+02  0.46536141290E+02  0.28408417802E+03  0.34777143691E+03  0.17296310433E+03 0.  0.
         24    2    3    3    0    0 -0.85012342271E+02 -0.11638690927E+02  0.94667834827E+02  0.14949582669E+03  0.77617303373E+02 0.  0.
         -6    2    1    2    0  502  0.90328867064E+02 -0.46536141290E+02  0.11513115648E+03  0.23515710426E+03  0.17809762441E+03 0.  0.
        -24    2    5    5    0    0  0.16071685259E+02  0.34370914623E+02  0.25152516255E+02  0.93106668001E+02  0.81219109286E+02 0.  0.
          5    1    3    3  501    0 -0.53165247929E+01  0.58174832216E+02  0.18941634319E+03  0.19827561022E+03  0.47000000000E+01 0. -1.
        -11    1    4    4    0    0 -0.33657694617E+02  0.22630400336E+02  0.53392477397E+01  0.40908226468E+02  0.00000000000E+00 0.  1.
         12    1    4    4    0    0 -0.51354647654E+02 -0.34269091263E+02  0.89328587087E+02  0.10858760022E+03  0.00000000000E+00 0. -1.
         -5    1    5    5    0  502  0.74257181804E+02 -0.80907055913E+02  0.89978640221E+02  0.14205043626E+03  0.47000000000E+01 0.  1.
         11    1    6    6    0    0 -0.10742484648E+02 -0.22684863190E+02 -0.34719147147E+00  0.25102281496E+02  0.00000000000E+00 0. -1.
        -12    1    6    6    0    0  0.26814169908E+02  0.57055777814E+02  0.25499707726E+02  0.68004386505E+02  0.00000000000E+00 0.  1.
</event>
<event>
12    1  0.8633375E-002  0.1856472E+03  0.7818608E-02  0.1162729E+00
         21   -1    0    0  501  502  0.00000000000E+00  0.00000000000E+00  0.28106145613E+03  0.28106145613E+03  0.00000000000E+00 0.  1.
         21   -1    0    0  502  503 -0.00000000000E+00 -0.00000000000E+00 -0.12289041383E+03  0.12289041383E+03  0.00000000000E+00 0. -1.
         -6    2    1    2    0  503  0.55644618106E+02 -0.42078904949E+02  0.60547417913E+02  0.19527128918E+03  0.17204048592E+03 0.  0.
        -24    2    3    3    0    0  0.35662513120E+02 -0.80784902622E+02 -0.23743236663E+01  0.11859877559E+03  0.79132906089E+02 0.  0.
          6    2    1    2  501    0 -0.55644618106E+02  0.42078904949E+02  0.97623624391E+02  0.20868058079E+03  0.17073445754E+03 0.  0.
         24    2    5    5    0    0 -0.57704595437E+02  0.97753604115E+02  0.73327792470E+02  0.14771917429E+03  0.59652341541E+02 0.  0.
          5    1    5    5  501    0  0.20599773303E+01 -0.55674699166E+02  0.24295831921E+02  0.60961406501E+02  0.47000000000E+01 0. -1.
        -11    1    6    6    0    0  0.10801367685E+02  0.34868838494E+01  0.98104616011E+01  0.15002435125E+02  0.00000000000E+00 0.  1.
         12    1    6    6    0    0 -0.68505963122E+02  0.94266720266E+02  0.63517330869E+02  0.13271673916E+03  0.00000000000E+00 0. -1.
         -5    1    3    3    0  503  0.19982104987E+02  0.38705997673E+02  0.62921741579E+02  0.76672513582E+02  0.47000000000E+01 0.  1.
         13    1    4    4    0    0  0.18536572369E+02 -0.21400078303E+02 -0.37902967217E+02  0.47309647963E+02  0.00000000000E+00 0. -1.
        -14    1    4    4    0    0  0.17125940750E+02 -0.59384824319E+02  0.35528643550E+02  0.71289127631E+02  0.00000000000E+00 0.  1.
</event>
<event>
12    1  0.8633375E-002  0.1777265E+03  0.7818608E-02  0.1170259E+00
         21   -1    0    0  501  502  0.00000000000E+00  0.00000000000E+00  0.28654759042E+03  0.28654759042E+03  0.00000000000E+00 0.  1.
         21   -1    0    0  502  503 -0.00000000000E+00 -0.00000000000E+00 -0.49140538837E+03  0.49140538837E+03  0.00000000000E+00 0.  1.
         -6    2    1    2    0  503 -0.38345046996E+02  0.35638170033E+01 -0.44521628353E+03  0.47902336098E+03  0.17251897817E+03 0.  0.
        -24    2    3    3    0    0  0.31891845381E+02 -0.39040765317E+02 -0.23111648374E+03  0.24965643713E+03  0.79826288831E+02 0.  0.
          6    2    1    2  501    0  0.38345046996E+02 -0.35638170033E+01  0.24035848558E+03  0.29892961781E+03  0.17350409618E+03 0.  0.
         24    2    5    5    0    0 -0.44122581772E+02 -0.18154556567E+02  0.12364207384E+03  0.15519858343E+03  0.80764148771E+02 0.  0.
          5    1    5    5  501    0  0.82467628767E+02  0.14590739564E+02  0.11671641174E+03  0.14373103438E+03  0.47000000000E+01 0. -1.
        -13    1    6    6    0    0 -0.81858919380E+01  0.19684929230E+02  0.91407361016E+02  0.93860592974E+02  0.00000000000E+00 0.  1.
         14    1    6    6    0    0 -0.35936689834E+02 -0.37839485796E+02  0.32234712827E+02  0.61337990451E+02  0.00000000000E+00 0. -1.
         -5    1    3    3    0  503 -0.70236892376E+02  0.42604582320E+02 -0.21409979979E+03  0.22936692385E+03  0.47000000000E+01 0.  1.
         11    1    4    4    0    0 -0.94740642493E+00 -0.56953999663E+02 -0.14313613819E+03  0.15405391820E+03  0.00000000000E+00 0. -1.
        -12    1    4    4    0    0  0.32839251806E+02  0.17913234346E+02 -0.87980345544E+02  0.95602518931E+02  0.00000000000E+00 0.  1.
</event>
<event>
12    1  0.8633375E-002  0.1770297E+03  0.7818608E-02  0.1170852E+00
         21   -1    0    0  503  502  0.00000000000E+00  0.00000000000E+00  0.24991125979E+03  0.24991125979E+03  0.00000000000E+00 0. -1.
         21   -1    0    0  501  503 -0.00000000000E+00 -0.00000000000E+00 -0.16198783462E+03  0.16198783462E+03  0.00000000000E+00 0. -1.
          6    2    1    2  501    0  0.32446230270E+02 -0.27145490775E+02 -0.54514256205E+02  0.18468111359E+03  0.17130579109E+03 0.  0.
         24    2    3    3    0    0 -0.14838976719E+02 -0.27862637900E+01  0.28251685417E+02  0.86184647504E+02  0.80010482066E+02 0.  0.
         -6    2    1    2    0  502 -0.32446230270E+02  0.27145490775E+02  0.14243768138E+03  0.22721798082E+03  0.17190079174E+03 0.  0.
        -24    2    5    5    0    0 -0.39320421431E+02 -0.43445455003E+02  0.11628347019E+03  0.15147850040E+03  0.77396947900E+02 0.  0.
          5    1    3    3  501    0  0.47285206989E+02 -0.24359226985E+02 -0.82765941622E+02  0.98496466088E+02  0.47000000000E+01 0. -1.
        -13    1    4    4    0    0 -0.11779958775E+02 -0.35568061289E+02 -0.68162908136E+01  0.38083017646E+02  0.00000000000E+00 0.  1.
         14    1    4    4    0    0 -0.30590179445E+01  0.32781797499E+02  0.35067976230E+02  0.48101629857E+02  0.00000000000E+00 0. -1.
         -5    1    5    5    0  502  0.68741911609E+01  0.70590945778E+02  0.26154211188E+02  0.75739480410E+02  0.47000000000E+01 0.  1.
         13    1    6    6    0    0 -0.45604756660E+02  0.76706397406E+00  0.30809749169E+02  0.55042009965E+02  0.00000000000E+00 0. -1.
        -14    1    6    6    0    0  0.62843352296E+01 -0.44212518977E+02  0.85473721018E+02  0.96436490439E+02  0.00000000000E+00 0.  1.
</event>
<event>
12    1  0.8633375E-002  0.2091570E+03  0.7818608E-02  0.1142237E+00
         21   -1    0    0  501  502  0.00000000000E+00  0.00000000000E+00  0.29471199544E+03  0.29471199544E+03  0.00000000000E+00 0. -1.
         21   -1    0    0  502  503 -0.00000000000E+00 -0.00000000000E+00 -0.17732209523E+03  0.17732209523E+03  0.00000000000E+00 0.  1.
         -6    2    1    2    0  503  0.73445741334E+02 -0.93781350474E+02  0.15396102515E+03  0.25970388889E+03  0.17190955186E+03 0.  0.
        -24    2    3    3    0    0  0.70890906027E+02 -0.97954478701E+02  0.18077153746E+03  0.23204822486E+03  0.80916187813E+02 0.  0.
          6    2    1    2  501    0 -0.73445741334E+02  0.93781350474E+02 -0.36571124937E+02  0.21233020179E+03  0.17192279894E+03 0.  0.
         24    2    5    5    0    0 -0.84481085950E+02  0.11333726846E+03 -0.65927027342E+02  0.17507336664E+03  0.79510505406E+02 0.  0.
          5    1    5    5  501    0  0.11035344615E+02 -0.19555917981E+02  0.29355902405E+02  0.37256835143E+02  0.47000000000E+01 0. -1.
        -11    1    6    6    0    0 -0.58034192255E+02  0.17806885232E+02 -0.10819952724E+02  0.61661365614E+02  0.00000000000E+00 0.  1.
         12    1    6    6    0    0 -0.26446893695E+02  0.95530383223E+02 -0.55107074618E+02  0.11341200103E+03  0.00000000000E+00 0. -1.
         -5    1    3    3    0  503  0.25548353072E+01  0.41731282269E+01 -0.26810512306E+02  0.27655664027E+02  0.47000000000E+01 0.  1.
         11    1    4    4    0    0  0.18532402483E+02  0.90907151250E+01  0.55206670782E+02  0.58939524447E+02  0.00000000000E+00 0. -1.
        -12    1    4    4    0    0  0.52358503545E+02 -0.10704519383E+03  0.12556486668E+03  0.17310870041E+03  0.00000000000E+00 0.  1.
</event>
<event>
12    1  0.8633375E-002  0.1832761E+03  0.7818608E-02  0.1165102E+00
         21   -1    0    0  501  502  0.00000000000E+00  0.00000000000E+00  0.27012268998E+03  0.27012268998E+03  0.00000000000E+00 0.  1.
         21   -1    0    0  502  503 -0.00000000000E+00 -0.00000000000E+00 -0.21638589906E+03  0.21638589906E+03  0.00000000000E+00 0.  1.
         -6    2    1    2    0  503  0.57564465660E+02  0.12864731346E+02 -0.13290681916E+03  0.22492501228E+03  0.17160381566E+03 0.  0.
        -24    2    3    3    0    0  0.63774042082E+02  0.68337690382E+02 -0.11035179131E+03  0.16453770148E+03  0.78472727712E+02 0.  0.
          6    2    1    2  501    0 -0.57564465660E+02 -0.12864731346E+02  0.18664361008E+03  0.26158357677E+03  0.17352510317E+03 0.  0.
         24    2    5    5    0    0 -0.37693236589E+02 -0.41614968023E+02  0.20110633577E+03  0.22346924497E+03  0.79637676454E+02 0.  0.
          5    1    5    5  501    0 -0.19871229071E+02  0.28750236677E+02 -0.14462725694E+02  0.38114331797E+02  0.47000000000E+01 0. -1.
        -13    1    6    6    0    0 -0.21788242528E+02 -0.14132937884E+02  0.18687891751E+03  0.18867484532E+03  0.00000000000E+00 0.  1.
         14    1    6    6    0    0 -0.15904994061E+02 -0.27482030139E+02  0.14227418261E+02  0.34794399650E+02  0.00000000000E+00 0. -1.
         -5    1    3    3    0  503 -0.62095764218E+01 -0.55472959036E+02 -0.22555027852E+02  0.60387310794E+02  0.47000000000E+01 0.  1.
         11    1    4    4    0    0  0.92033014608E+00 -0.24627582100E+01  0.10610011008E+02  0.10930897454E+02  0.00000000000E+00 0. -1.
        -12    1    4    4    0    0  0.62853711936E+02  0.70800448592E+02 -0.12096180231E+03  0.15360680403E+03  0.00000000000E+00 0.  1.
</event>
<event>
12    1  0.8633375E-002  0.2232780E+03  0.7818608E-02  0.1131652E+00
         21   -1    0    0  501  502  0.00000000000E+00  0.00000000000E+00  0.11094418604E+03  0.11094418604E+03  0.00000000000E+00 0.  1.
         21   -1    0    0  502  503 -0.00000000000E+00 -0.00000000000E+00 -0.47456322014E+03  0.47456322014E+03  0.00000000000E+00 0.  1.
         -6    2    1    2    0  503  0.10809136295E+03  0.89721515237E+02 -0.25240183325E+03  0.33698626564E+03  0.17354931508E+03 0.  0.
        -24    2    3    3    0    0  0.11766286029E+03  0.21809153197E+02 -0.99146757920E+02  0.16901927307E+03  0.66462374380E+02 0.  0.
          6    2    1    2  501    0 -0.10809136295E+03 -0.89721515237E+02 -0.11121720086E+03  0.24852114054E+03  0.17222020348E+03 0.  0.
         24    2    5    5    0    0 -0.57719970655E+01 -0.89980012597E+02 -0.67455698200E+02  0.13713676744E+03  0.78271981877E+02 0.  0.
          5    1    5    5  501    0 -0.10231936588E+03  0.25849735985E+00 -0.43761502656E+02  0.11138437310E+03  0.47000000000E+01 0. -1.
        -11    1    6    6    0    0 -0.39437647351E+02 -0.28900438241E+02 -0.20255432919E+02  0.52923018828E+02  0.00000000000E+00 0.  1.
         12    1    6    6    0    0  0.33665650286E+02 -0.61079574356E+02 -0.47200265280E+02  0.84213748611E+02  0.00000000000E+00 0. -1.
         -5    1    3    3    0  503 -0.95714973439E+01  0.67912362040E+02 -0.15325507533E+03  0.16796699257E+03  0.47000000000E+01 0.  1.
         11    1    4    4    0    0  0.74582735105E+01 -0.81770476404E+01  0.70023519762E+01  0.13096674581E+02  0.00000000000E+00 0. -1.
        -12    1    4    4    0    0  0.11020458678E+03  0.29986200838E+02 -0.10614910990E+03  0.15592259849E+03  0.00000000000E+00 0.  1.
</event>
<event>
12    1  0.8633375E-002  0.2201824E+03  0.7818608E-02  0.1134117E+00
         21   -1    0    0  503  502  0.00000000000E+00  0.00000000000E+00  0.38720976876E+03  0.38720976876E+03  0.00000000000E+00 0.  1.
         21   -1    0    0  501  503 -0.00000000000E+00 -0.00000000000E+00 -0.12439174199E+03  0.12439174199E+03  0.00000000000E+00 0. -1.
          6    2    1    2  501    0  0.24880138887E+01  0.13760609136E+03  0.11925616180E+03  0.25040433558E+03  0.17186818367E+03 0.  0.
         24    2    3    3    0    0 -0.12504304169E+02  0.34809925748E+02  0.11744416828E+03  0.14639859254E+03  0.79191708415E+02 0.  0.
         -6    2    1    2    0  502 -0.24880138887E+01 -0.13760609136E+03  0.14356186497E+03  0.26119717516E+03  0.16932905435E+03 0.  0.
        -24    2    5    5    0    0  0.16373858164E+02 -0.13531321868E+02  0.12837917620E+02  0.79920703846E+02  0.75969117881E+02 0.  0.
          5    1    3    3  501    0  0.14992318057E+02  0.10279616561E+03  0.18119935197E+01  0.10400574304E+03  0.47000000000E+01 0. -1.
        -11    1    4    4    0    0  0.20698006385E+01 -0.25122994758E+02  0.27144825116E+02  0.37044439135E+02  0.00000000000E+00 0.  1.
         12    1    4    4    0    0 -0.14574104807E+02  0.59932920505E+02  0.90299343160E+02  0.10935415340E+03  0.00000000000E+00 0. -1.
         -5    1    5    5    0  502 -0.18861872052E+02 -0.12407476949E+03  0.13072394735E+03  0.18127647132E+03  0.47000000000E+01 0.  1.
         13    1    6    6    0    0 -0.20747528849E+02 -0.28745118692E+02  0.17496406287E+02  0.39533100497E+02  0.00000000000E+00 0. -1.
        -14    1    6    6    0    0  0.37121387012E+02  0.15213796824E+02 -0.46584886671E+01  0.40387603348E+02  0.00000000000E+00 0.  1.
</event>
<event>
12    1  0.8633375E-002  0.2700561E+03  0.7818608E-02  0.1101521E+00
         21   -1    0    0  503  502  0.00000000000E+00  0.00000000000E+00  0.91242376510E+03  0.91242376510E+03  0.00000000000E+00 0.  1.
         21   -1    0    0  501  503 -0.00000000000E+00 -0.00000000000E+00 -0.81942107107E+02  0.81942107107E+02  0.00000000000E+00 0.  1.
          6    2    1    2  501    0 -0.19818752815E+03 -0.66767243985E+02  0.32853202374E+03  0.42528062078E+03  0.17086297025E+03 0.  0.
         24    2    3    3    0    0 -0.98274428155E+02 -0.90845612664E+02  0.13084448805E+03  0.20242450766E+03  0.77101314363E+02 0.  0.
         -6    2    1    2    0  502  0.19818752815E+03  0.66767243985E+02  0.50194963426E+03  0.56908525143E+03  0.16783452233E+03 0.  0.
        -24    2    5    5    0    0  0.21902238288E+02  0.10138441608E+01  0.18154659572E+03  0.19749379551E+03  0.74591533880E+02 0.  0.
          5    1    3    3  501    0 -0.99913099995E+02  0.24078368679E+02  0.19768753569E+03  0.22285611312E+03  0.47000000000E+01 0. -1.
        -11    1    4    4    0    0  0.84868311453E+01 -0.23910057835E+02  0.84075116142E+01  0.26728326175E+02  0.00000000000E+00 0.  1.
         12    1    4    4    0    0 -0.10676125930E+03 -0.66935554829E+02  0.12243697644E+03  0.17569618148E+03  0.00000000000E+00 0. -1.
         -5    1    5    5    0  502  0.17628528986E+03  0.65753399824E+02  0.32040303854E+03  0.37159145592E+03  0.47000000000E+01 0.  1.
         13    1    6    6    0    0 -0.55858445936E+01  0.29204683445E+02  0.12565915733E+03  0.12912915634E+03  0.00000000000E+00 0. -1.
        -14    1    6    6    0    0  0.27488082882E+02 -0.28190839284E+02  0.55887438388E+02  0.68364639176E+02  0.00000000000E+00 0.  1.
</event>
<event>
12    1  0.8633375E-002  0.2108949E+03  0.7818608E-02  0.1141733E+00
         21   -1    0    0  501  502  0.00000000000E+00  0.00000000000E+00  0.16118040136E+03  0.16118040136E+03  0.00000000000E+00 0.  1.
         21   -1    0    0  502  503 -0.00000000000E+00 -0.00000000000E+00 -0.29259137134E+03  0.29259137134E+03  0.00000000000E+00 0. -1.
         -6    2    1    2    0  503 -0.57710687272E+02 -0.10774736681E+03 -0.12905877415E+03  0.24725050818E+03  0.17186223591E+03 0.  0.
        -24    2    3    3    0    0 -0.25103883283E+02 -0.96959544289E+02 -0.15692641666E+03  0.20277269034E+03  0.80371049013E+02 0.  0.
          6    2    1    2  501    0  0.57710687272E+02  0.10774736681E+03 -0.23521958270E+01  0.20652126452E+03  0.16644963621E+03 0.  0.
         24    2    5    5    0    0 -0.24277896886E+02  0.63781766802E+02 -0.29922425283E+02  0.10937544902E+03  0.80063145459E+02 0.  0.
          5    1    5    5  501    0  0.81988584158E+02  0.43965600007E+02  0.27570229456E+02  0.97145815496E+02  0.47000000000E+01 0. -1.
        -11    1    6    6    0    0  0.18161534527E+02  0.40036452372E+02  0.11557885549E+02  0.45457051964E+02  0.00000000000E+00 0.  1.
         12    1    6    6    0    0 -0.42439431413E+02  0.23745314430E+02 -0.41480310832E+02  0.63918397060E+02  0.00000000000E+00 0. -1.
         -5    1    3    3    0  503 -0.32606803989E+02 -0.10787822520E+02  0.27867642508E+02  0.44477817843E+02  0.47000000000E+01 0.  1.
         11    1    4    4    0    0 -0.54600546115E+02 -0.63926557483E+02 -0.10572171376E+03  0.13507370265E+03  0.00000000000E+00 0. -1.
        -12    1    4    4    0    0  0.29496662833E+02 -0.33032986806E+02 -0.51204702892E+02  0.67698987687E+02  0.00000000000E+00 0.  1.
</event>
<event>
12    1  0.8633375E-002  0.1734568E+03  0.7818608E-02  0.1174507E+00
         21   -1    0    0  501  502  0.00000000000E+00  0.00000000000E+00  0.64392259407E+02  0.64392259407E+02  0.00000000000E+00 0.  1.
         21   -1    0    0  502  503 -0.00000000000E+00 -0.00000000000E+00 -0.57838028180E+03  0.57838028180E+03  0.00000000000E+00 0.  1.
         -6    2    1    2    0  503  0.51856200769E+01 -0.15002751066E+02 -0.39880430834E+03  0.43455500255E+03  0.17187553840E+03 0.  0.
        -24    2    3    3    0    0 -0.31186105038E+02  0.15785932063E+02 -0.11053531306E+03  0.14233599387E+03  0.82581541033E+02 0.  0.
          6    2    1    2  501    0 -0.51856200769E+01  0.15002751066E+02 -0.11518371406E+03  0.20821753866E+03  0.17272892701E+03 0.  0.
         24    2    5    5    0    0 -0.17458498514E+02  0.44230111801E+02  0.36734561169E+01  0.85116039631E+02  0.70499247956E+02 0.  0.
          5    1    5    5  501    0  0.12272878437E+02 -0.29227360735E+02 -0.11885717018E+03  0.12310149903E+03  0.47000000000E+01 0. -1.
        -11    1    6    6    0    0 -0.37800601734E+02  0.53294575836E+01  0.12830272926E+02  0.40272875648E+02  0.00000000000E+00 0.  1.
         12    1    6    6    0    0  0.20342103220E+02  0.38900654218E+02 -0.91568168089E+01  0.44843163983E+02  0.00000000000E+00 0. -1.
         -5    1    3    3    0  503  0.36371725114E+02 -0.30788683129E+02 -0.28826899527E+03  0.29221900868E+03  0.47000000000E+01 0.  1.
         13    1    4    4    0    0 -0.21286339810E+02  0.27504768362E+02 -0.11957479961E+03  0.12453012987E+03  0.00000000000E+00 0. -1.
        -14    1    4    4    0    0 -0.98997652278E+01 -0.11718836299E+02  0.90394865442E+01  0.17805863999E+02  0.00000000000E+00 0.  1.
</event>
<event>
12    1  0.8633375E-002  0.2195885E+03  0.7818608E-02  0.1134499E+00
         21   -1    0    0  503  502  0.00000000000E+00  0.00000000000E+00  0.21888370671E+04  0.21888370671E+04  0.00000000000E+00 0. -1.
         21   -1    0    0  501  503 -0.00000000000E+00 -0.00000000000E+00 -0.24369939818E+02  0.24369939818E+02  0.00000000000E+00 0.  1.
          6    2    1    2  501    0 -0.17803544573E+02 -0.13539102268E+03  0.14407037564E+04  0.14573422431E+04  0.17196338216E+03 0.  0.
         24    2    3    3    0    0 -0.14364726925E+02 -0.14862647622E+03  0.86143563134E+03  0.87789366616E+03  0.79559834817E+02 0.  0.
         -6    2    1    2    0  502  0.17803544573E+02  0.13539102268E+03  0.72376337097E+03  0.75586476383E+03  0.16985413986E+03 0.  0.
        -24    2    5    5    0    0  0.62620341774E+01  0.76225641854E+02  0.65386194873E+03  0.66344156554E+03  0.82278194871E+02 0.  0.
          5    1    3    3  501    0 -0.34388176478E+01  0.13235453544E+02  0.57926812501E+03  0.57944857697E+03  0.47000000000E+01 0. -1.
        -13    1    4    4    0    0 -0.14049870762E+02 -0.28397839191E+02  0.63652219961E+02  0.71101626178E+02  0.00000000000E+00 0.  1.
         14    1    4    4    0    0 -0.31485616291E+00 -0.12022863703E+03  0.79778341138E+03  0.80679203998E+03  0.00000000000E+00 0. -1.
         -5    1    5    5    0  502  0.11541510395E+02  0.59165380827E+02  0.69901422239E+02  0.92423198287E+02  0.47000000000E+01 0.  1.
         11    1    6    6    0    0 -0.54975287211E+01 -0.13014200100E+02  0.30483546715E+02  0.33598197074E+02  0.00000000000E+00 0. -1.
        -12    1    6    6    0    0  0.11759562898E+02  0.89239841954E+02  0.62337840201E+03  0.62984336847E+03  0.00000000000E+00 0.  1.
</event>
<event>
12    1  0.8633375E-002  0.2022701E+03  0.7818608E-02  0.1147839E+00
         21   -1    0    0  503  502  0.00000000000E+00  0.00000000000E+00  0.25142620491E+03  0.25142620491E+03  0.00000000000E+00 0. -1.
         21   -1    0    0  501  503 -0.00000000000E+00 -0.00000000000E+00 -0.19239472111E+03  0.19239472111E+03  0.00000000000E+00 0.  1.
          6    2    1    2  501    0 -0.10124649237E+03  0.35886909014E+02  0.11667028765E+03  0.23350617332E+03  0.17138977362E+03 0.  0.
         24    2    3    3    0    0 -0.10463264331E+03 -0.27371814323E+02  0.96678107441E+02  0.16691105814E+03  0.82555669736E+02 0.  0.
         -6    2    1    2    0  502  0.10124649237E+03 -0.35886909014E+02 -0.57638803844E+02  0.21031475270E+03  0.17138069038E+03 0.  0.
        -24    2    5    5    0    0  0.33740755411E+02  0.41633967395E+02 -0.25358429081E+02  0.10246938471E+03  0.83576905063E+02 0.  0.
          5    1    3    3  501    0  0.33861509380E+01  0.63258723337E+02  0.19992180209E+02  0.66595115181E+02  0.47000000000E+01 0. -1.
        -11    1    4    4    0    0 -0.17328432797E+02 -0.41649021502E+02  0.48274428043E+02  0.66070689251E+02  0.00000000000E+00 0.  1.
         12    1    4    4    0    0 -0.87304210516E+02  0.14277207179E+02  0.48403679398E+02  0.10084036889E+03  0.00000000000E+00 0. -1.
         -5    1    5    5    0  502  0.67505736963E+02 -0.77520876409E+02 -0.32280374763E+02  0.10784536799E+03  0.47000000000E+01 0.  1.
         13    1    6    6    0    0  0.19462404688E+02 -0.54754498625E+01  0.24930291645E+02  0.32098055843E+02  0.00000000000E+00 0. -1.
        -14    1    6    6    0    0  0.14278350723E+02  0.47109417258E+02 -0.50288720725E+02  0.70371328863E+02  0.00000000000E+00 0.  1.
</event>
<event>
12    1  0.8633375E-002  0.1793431E+03  0.7818608E-02  0.1169140E+00
         21   -1    0    0  503  502  0.00000000000E+00  0.00000000000E+00  0.29280404129E+03  0.29280404129E+03  0.00000000000E+00 0.  1.
         21   -1    0    0  501  503 -0.00000000000E+00 -0.00000000000E+00 -0.15591357446E+03  0.15591357446E+03  0.00000000000E+00 0.  1.
          6    2    1    2  501    0  0.34880350700E+02 -0.28464540521E+02 -0.56169062080E+02  0.18521060436E+03  0.17064915910E+03 0.  0.
         24    2    3    3    0    0  0.86617910430E+01  0.21609429479E+02 -0.86824935815E+02  0.12073822317E+03  0.80604931540E+02 0.  0.
         -6    2    1    2    0  502 -0.34880350700E+02  0.28464540521E+02  0.19305952891E+03  0.26350701139E+03  0.17360038715E+03 0.  0.
        -24    2    5    5    0    0 -0.80543440719E+02  0.36839012042E+02  0.17977431219E+03  0.21499065800E+03  0.77832005319E+02 0.  0.
          5    1    3    3  501    0  0.26218559657E+02 -0.50073970000E+02  0.30655873735E+02  0.64472381192E+02  0.47000000000E+01 0. -1.
        -13    1    4    4    0    0 -0.32727700421E+01  0.37249963642E+02 -0.63941338154E+01  0.37936206483E+02  0.00000000000E+00 0.  1.
         14    1    4    4    0    0  0.11934561085E+02 -0.15640534163E+02 -0.80430802000E+02  0.82802016688E+02  0.00000000000E+00 0. -1.
         -5    1    5    5    0  502  0.45663090019E+02 -0.83744715210E+01  0.13285216715E+02  0.48516353392E+02  0.47000000000E+01 0.  1.
         11    1    6    6    0    0  0.14988406051E+02  0.11816758789E+02  0.31851246552E+02  0.37132061768E+02  0.00000000000E+00 0. -1.
        -12    1    6    6    0    0 -0.95531846770E+02  0.25022253253E+02  0.14792306564E+03  0.17785859623E+03  0.00000000000E+00 0.  1.
</event>
<event>
12    1  0.8633375E-002  0.1828728E+03  0.7818608E-02  0.1165251E+00
         21   -1    0    0  503  502  0.00000000000E+00  0.00000000000E+00  0.12537580212E+03  0.12537580212E+03  0.00000000000E+00 0.  1.
         21   -1    0    0  501  503 -0.00000000000E+00 -0.00000000000E+00 -0.29158525468E+03  0.29158525468E+03  0.00000000000E+00 0.  1.
          6    2    1    2  501    0 -0.28316187759E+02  0.55036783550E+02 -0.14526818772E+03  0.23289313564E+03  0.17118852833E+03 0.  0.
         24    2    3    3    0    0 -0.64667003635E+02  0.27847061020E+02 -0.14624847824E+03  0.18724542162E+03  0.93353898485E+02 0.  0.
         -6    2    1    2    0  502  0.28316187759E+02 -0.55036783550E+02 -0.20941264841E+02  0.18406792117E+03  0.17208024000E+03 0.  0.
        -24    2    5    5    0    0 -0.28643549959E+02 -0.18660253032E+02  0.41896679125E+02  0.91664669627E+02  0.74016362641E+02 0.  0.
          5    1    3    3  501    0  0.36350815876E+02  0.27189722530E+02  0.98029051791E+00  0.45647714024E+02  0.47000000000E+01 0. -1.
        -11    1    4    4    0    0  0.61866991544E+00  0.33159696267E+02 -0.77797908689E+01  0.34065721113E+02  0.00000000000E+00 0.  1.
         12    1    4    4    0    0 -0.65285673551E+02 -0.53126352471E+01 -0.13846868737E+03  0.15317970050E+03  0.00000000000E+00 0. -1.
         -5    1    5    5    0  502  0.56959737718E+02 -0.36376530518E+02 -0.62837943966E+02  0.92403251541E+02  0.47000000000E+01 0.  1.
         13    1    6    6    0    0 -0.18497060901E+01  0.27244214558E+02  0.21416611917E+02  0.34703600757E+02  0.00000000000E+00 0. -1.
        -14    1    6    6    0    0 -0.26793843869E+02 -0.45904467590E+02  0.20480067209E+02  0.56961068870E+02  0.00000000000E+00 0.  1.
</event>
<event>
12    1  0.8633375E-002  0.2825058E+03  0.7818608E-02  0.1094376E+00
         21   -1    0    0  501  502  0.00000000000E+00  0.00000000000E+00  0.58313964381E+02  0.58313964381E+02  0.00000000000E+00 0. -1.
         21   -1    0    0  502  503 -0.00000000000E+00 -0.00000000000E+00 -0.14163033853E+04  0.14163033853E+04  0.00000000000E+00 0.  1.
         -6    2    1    2    0  503 -0.21100793228E+03 -0.75914524884E+02 -0.54085626072E+03  0.61002719293E+03  0.17123176920E+03 0.  0.
        -24    2    3    3    0    0 -0.93902334107E+02  0.25800357894E+02 -0.20192953168E+03  0.23726311720E+03  0.77684903288E+02 0.  0.
          6    2    1    2  501    0  0.21100793228E+03  0.75914524884E+02 -0.81713316025E+03  0.86459015680E+03  0.17182018241E+03 0.  0.
         24    2    5    5    0    0  0.89387983999E+02  0.97569816431E+02 -0.53384049289E+03  0.55549924970E+03  0.77997844882E+02 0.  0.
          5    1    5    5  501    0  0.12161994828E+03 -0.21655291547E+02 -0.28329266735E+03  0.30909090709E+03  0.47000000000E+01 0. -1.
        -13    1    6    6    0    0  0.56313568052E+01 -0.12633870558E+02 -0.73820952279E+02  0.75105657976E+02  0.00000000000E+00 0.  1.
         14    1    6    6    0    0  0.83756627194E+02  0.11020368699E+03 -0.46001954062E+03  0.48039359173E+03  0.00000000000E+00 0. -1.
         -5    1    3    3    0  503 -0.11710559817E+03 -0.10171488278E+03 -0.33892672904E+03  0.37276407573E+03  0.47000000000E+01 0.  1.
         11    1    4    4    0    0 -0.98687538495E+02  0.35731345669E+02 -0.20028210757E+03  0.22611696515E+03  0.00000000000E+00 0. -1.
        -12    1    4    4    0    0  0.47852043878E+01 -0.99309877757E+01 -0.16474241147E+01  0.11146152047E+02  0.00000000000E+00 0.  1.
</event>
<event>
12    1  0.8633375E-002  0.1722782E+03  0.7818608E-02  0.1175659E+00
         21   -1    0    0  503  502  0.00000000000E+00  0.00000000000E+00  0.15398475372E+03  0.15398475372E+03  0.00000000000E+00 0. -1.
         21   -1    0    0  501  503 -0.00000000000E+00 -0.00000000000E+00 -0.48077344391E+03  0.48077344391E+03  0.00000000000E+00 0. -1.
          6    2    1    2  501    0  0.53976525237E-01 -0.68311429121E+01 -0.40948130079E+03  0.44424621563E+03  0.17214266460E+03 0.  0.
         24    2    3    3    0    0  0.60332962547E+02 -0.34437017016E+02 -0.26499034598E+03  0.28520104449E+03  0.79333333499E+02 0.  0.
         -6    2    1    2    0  502 -0.53976525237E-01  0.68311429121E+01  0.82692610600E+02  0.19051198200E+03  0.17149367339E+03 0.  0.
        -24    2    5    5    0    0  0.20908205321E+02  0.65953074092E+02  0.38655580313E+02  0.11372548677E+03  0.81561457928E+02 0.  0.
          5    1    3    3  501    0 -0.60278986022E+02  0.27605874104E+02 -0.14449095480E+03  0.15904517113E+03  0.47000000000E+01 0. -1.
        -11    1    4    4    0    0  0.43862400968E+02  0.20045408835E+02 -0.13243916329E+03  0.14094630398E+03  0.00000000000E+00 0.  1.
         12    1    4    4    0    0  0.16470561579E+02 -0.54482425851E+02 -0.13255118270E+03  0.14425474051E+03  0.00000000000E+00 0. -1.
         -5    1    5    5    0  502 -0.20962181846E+02 -0.59121931180E+02  0.44037030287E+02  0.76786495237E+02  0.47000000000E+01 0.  1.
         11    1    6    6    0    0  0.33610523342E+02  0.57276949399E+02 -0.58201222244E+01  0.66664758565E+02  0.00000000000E+00 0. -1.
        -12    1    6    6    0    0 -0.12702318021E+02  0.86761246930E+01  0.44475702538E+02  0.47060728203E+02  0.00000000000E+00 0.  1.
</event>
<event>
12    1  0.8633375E-002  0.2099491E+03  0.7818608E-02  0.1143293E+00
         21   -1    0    0  503  502  0.00000000000E+00  0.00000000000E+00  0.60085989664E+03  0.60085989664E+03  0.00000000000E+00 0. -1.
         21   -1    0    0  501  503 -0.00000000000E+00 -0.00000000000E+00 -0.13922046344E+03  0.13922046344E+03  0.00000000000E+00 0. -1.
          6    2    1    2  501    0 -0.59143420205E+02  0.10636231120E+03 -0.31543005130E+02  0.20406959499E+03  0.16074374959E+03 0.  0.
         24    2    3    3    0    0 -0.90240730945E+02  0.11466704595E+03 -0.10951170594E+02  0.16557121835E+03  0.77472441942E+02 0.  0.
         -6    2    1    2    0  502  0.59143420205E+02 -0.10636231120E+03  0.49318243833E+03  0.53601076508E+03  0.17107816169E+03 0.  0.
        -24    2    5    5    0    0 -0.17837930149E+02 -0.47934040741E+01  0.21626694655E+03  0.23113923347E+03  0.79453033962E+02 0.  0.
          5    1    3    3  501    0  0.31097310739E+02 -0.83047347508E+01 -0.20591834536E+02  0.38498376642E+02  0.47000000000E+01 0. -1.
        -13    1    4    4    0    0 -0.18050817139E+02 -0.10370804805E+02 -0.78109500404E+00  0.20832563478E+02  0.00000000000E+00 0.  1.
         14    1    4    4    0    0 -0.72189913806E+02  0.12503785076E+03 -0.10170075590E+02  0.14473865487E+03  0.00000000000E+00 0. -1.
         -5    1    5    5    0  502  0.76981350355E+02 -0.10156890713E+03  0.27691549179E+03  0.30487153161E+03  0.47000000000E+01 0.  1.
         13    1    6    6    0    0  0.26088591982E+01  0.23615565329E+02  0.17679122970E+03  0.17838060424E+03  0.00000000000E+00 0. -1.
        -14    1    6    6    0    0 -0.20446789348E+02 -0.28408969404E+02  0.39475716852E+02  0.52758629229E+02  0.00000000000E+00 0.  1.
</event>
<event>
12    1  0.8633375E-002  0.1828501E+03  0.7818608E-02  0.1165103E+00
         21   -1    0    0  503  502  0.00000000000E+00  0.00000000000E+00  0.20678823392E+03  0.20678823392E+03  0.00000000000E+00 0. -1.
         21   -1    0    0  501  503 -0.00000000000E+00 -0.00000000000E+00 -0.19845696313E+03  0.19845696313E+03  0.00000000000E+00 0. -1.
          6    2    1    2  501    0  0.50018788181E+02  0.36244367668E+02 -0.83191555709E+02  0.20076885047E+03  0.17196442371E+03 0.  0.
         24    2    3    3    0    0 -0.29085182151E+02  0.23218010745E+02 -0.83006981889E+02  0.12046163931E+03  0.78967231558E+02 0.  0.
         -6    2    1    2    0  502 -0.50018788181E+02 -0.36244367668E+02  0.91522826499E+02  0.20447634658E+03  0.17210059611E+03 0.  0.
        -24    2    5    5    0    0  0.48708806067E+01  0.30226027730E+02  0.80626889220E+02  0.11745910316E+03  0.79740876711E+02 0.  0.
          5    1    3    3  501    0  0.79103970332E+02  0.13026356922E+02 -0.18457381950E+00  0.80307211161E+02  0.47000000000E+01 0. -1.
        -13    1    4    4    0    0 -0.69773654295E+01  0.39239682479E+01 -0.89952318701E+02  0.90307811372E+02  0.00000000000E+00 0.  1.
         14    1    4    4    0    0 -0.22107816721E+02  0.19294042497E+02  0.69453368118E+01  0.30153827941E+02  0.00000000000E+00 0. -1.
         -5    1    5    5    0  502 -0.54889668788E+02 -0.66470395398E+02  0.10895937280E+02  0.87017243424E+02  0.47000000000E+01 0.  1.
         13    1    6    6    0    0 -0.18815084658E+02  0.33781044483E+01 -0.88647690292E+01  0.21071381784E+02  0.00000000000E+00 0. -1.
        -14    1    6    6    0    0  0.23685965265E+02  0.26847923282E+02  0.89491658249E+02  0.96387721371E+02  0.00000000000E+00 0.  1.
</event>
<event>
12    1  0.8633375E-002  0.1853958E+03  0.7818608E-02  0.1163115E+00
         21   -1    0    0  503  502  0.00000000000E+00  0.00000000000E+00  0.39457593817E+03  0.39457593817E+03  0.00000000000E+00 0.  1.
         21   -1    0    0  501  503 -0.00000000000E+00 -0.00000000000E+00 -0.10136394968E+03  0.10136394968E+03  0.00000000000E+00 0.  1.
          6    2    1    2  501    0 -0.62588183801E+02 -0.16538787951E+02  0.24175826020E+03  0.30353643419E+03  0.17174544607E+03 0.  0.
         24    2    3    3    0    0 -0.10511638084E+03 -0.25240047205E+02  0.21094035833E+03  0.25009307602E+03  0.79775926180E+02 0.  0.
         -6    2    1    2    0  502  0.62588183801E+02  0.16538787951E+02  0.51453728292E+02  0.19240345366E+03  0.17372619425E+03 0.  0.
        -24    2    5    5    0    0  0.62069253679E+02  0.71811074113E+02  0.56966486838E+02  0.13665602849E+03  0.80126567898E+02 0.  0.
          5    1    3    3  501    0  0.42528197043E+02  0.87012592543E+01  0.30817901866E+02  0.53443358163E+02  0.47000000000E+01 0. -1.
        -11    1    4    4    0    0 -0.48242130496E+02  0.27772535434E+02  0.10280441139E+03  0.11690750139E+03  0.00000000000E+00 0.  1.
         12    1    4    4    0    0 -0.56874250348E+02 -0.53012582640E+02  0.10813594694E+03  0.13318557464E+03  0.00000000000E+00 0. -1.
         -5    1    5    5    0  502  0.51893012159E+00 -0.55272286162E+02 -0.55127585460E+01  0.55747425168E+02  0.47000000000E+01 0.  1.
         13    1    6    6    0    0  0.20141289863E+01  0.32796357140E+02 -0.14107536700E+02  0.35758640200E+02  0.00000000000E+00 0. -1.
        -14    1    6    6    0    0  0.60055124693E+02  0.39014716973E+02  0.71074023538E+02  0.10089738829E+03  0.00000000000E+00 0.  1.
</event>
<event>
12    1  0.8633375E-002  0.1855998E+03  0.7818608E-02  0.1162657E+00
         21   -1    0    0  503  502  0.00000000000E+00  0.00000000000E+00  0.37623914915E+03  0.37623914915E+03  0.00000000000E+00 0. -1.
         21   -1    0    0  501  503 -0.00000000000E+00 -0.00000000000E+00 -0.14368383752E+03  0.14368383752E+03  0.00000000000E+00 0. -1.
          6    2    1    2  501    0 -0.12507691647E+02  0.68189279599E+02 -0.40686971339E+02  0.19000713680E+03  0.17216579856E+03 0.  0.
         24    2    3    3    0    0  0.13734686848E+02 -0.22964895553E+02 -0.17024390679E+01  0.87344437472E+02  0.83127158065E+02 0.  0.
         -6    2    1    2    0  502  0.12507691647E+02 -0.68189279599E+02  0.27324228297E+03  0.32991584988E+03  0.17139691537E+03 0.  0.
        -24    2    5    5    0    0 -0.71767466878E+01 -0.70859136423E+00  0.47589633423E+02  0.93521415418E+02  0.80184001757E+02 0.  0.
          5    1    3    3  501    0 -0.26242378496E+02  0.91154175152E+02 -0.38984532271E+02  0.10266269933E+03  0.47000000000E+01 0. -1.
        -11    1    4    4    0    0 -0.28674654058E+02  0.75350285417E+01  0.14014201611E+02  0.32793448846E+02  0.00000000000E+00 0.  1.
         12    1    4    4    0    0  0.42409340906E+02 -0.30499924095E+02 -0.15716640679E+02  0.54550988626E+02  0.00000000000E+00 0. -1.
         -5    1    5    5    0  502  0.19684438335E+02 -0.67480688235E+02  0.22565264954E+03  0.23639443446E+03  0.47000000000E+01 0.  1.
         11    1    6    6    0    0 -0.40950777210E+01 -0.37478978210E+02  0.41593875826E+02  0.56138168615E+02  0.00000000000E+00 0. -1.
        -12    1    6    6    0    0 -0.30816689668E+01  0.36770386845E+02  0.59957575963E+01  0.37383246803E+02  0.00000000000E+00 0.  1.
</event>
<event>
12    1  0.8633375E-002  0.2959078E+03  0.7818608E-02  0.1087375E+00
         21   -1    0    0  503  502  0.00000000000E+00  0.00000000000E+00  0.22379272309E+03  0.22379272309E+03  0.00000000000E+00 0.  1.
         21   -1    0    0  501  503 -0.00000000000E+00 -0.00000000000E+00 -0.39294456189E+03  0.39294456189E+03  0.00000000000E+00 0.  1.
          6    2    1    2  501    0  0.69586339744E+02  0.23075153164E+03 -0.60338422943E+02  0.30145678978E+03  0.17072475739E+03 0.  0.
         24    2    3    3    0    0  0.12326541713E+02  0.41345085841E+02  0.20036515841E+02  0.87831634500E+02  0.73834777024E+02 0.  0.
         -6    2    1    2    0  502 -0.69586339744E+02 -0.23075153164E+03 -0.10881341586E+03  0.31528049520E+03  0.17167674026E+03 0.  0.
        -24    2    5    5    0    0  0.27461312502E+01 -0.20250308183E+03 -0.76395028875E+02  0.23100117928E+03  0.80686461093E+02 0.  0.
          5    1    3    3  501    0  0.57259798031E+02  0.18940644580E+03 -0.80374938784E+02  0.21362515528E+03  0.47000000000E+01 0. -1.
        -11    1    4    4    0    0  0.14916124083E+01  0.60777521792E+02  0.50481745616E+01  0.61005050030E+02  0.00000000000E+00 0.  1.
         12    1    4    4    0    0  0.10834929304E+02 -0.19432435951E+02  0.14988341280E+02  0.26826584470E+02  0.00000000000E+00 0. -1.
         -5    1    5    5    0  502 -0.72332470994E+02 -0.28248449814E+02 -0.32418386984E+02  0.84279315918E+02  0.47000000000E+01 0.  1.
         13    1    6    6    0    0 -0.84471576843E+01 -0.20537544666E+02  0.15264069350E+02  0.26946929825E+02  0.00000000000E+00 0. -1.
        -14    1    6    6    0    0  0.11193288935E+02 -0.18196553716E+03 -0.91659098225E+02  0.20405424945E+03  0.00000000000E+00 0.  1.
</event>
<event>
12    1  0.8633375E-002  0.2421367E+03  0.7818608E-02  0.1118378E+00
         21   -1    0    0  501  502  0.00000000000E+00  0.00000000000E+00  0.56012811181E+03  0.56012811181E+03  0.00000000000E+00 0.  1.
         21   -1    0    0  502  503 -0.00000000000E+00 -0.00000000000E+00 -0.16988133888E+03  0.16988133888E+03  0.00000000000E+00 0. -1.
         -6    2    1    2    0  503  0.62282531691E+02  0.15754940288E+03 -0.31021985119E+02  0.24411072955E+03  0.17299351612E+03 0.  0.
        -24    2    3    3    0    0  0.10640580630E+02  0.15914924525E+03  0.93602511014E+01  0.17836678986E+03  0.79280471771E+02 0.  0.
          6    2    1    2  501    0 -0.62282531691E+02 -0.15754940288E+03  0.42126875806E+03  0.48589872114E+03  0.17300078783E+03 0.  0.
         24    2    5    5    0    0 -0.31584139602E+02 -0.18228177352E+03  0.36637757051E+03  0.41815498412E+03  0.79980395989E+02 0.  0.
          5    1    5    5  501    0 -0.30698392089E+02  0.24732370644E+02  0.54891187548E+02  0.67743737017E+02  0.47000000000E+01 0. -1.
        -13    1    6    6    0    0 -0.43534633586E+02 -0.12871794231E+03  0.19108287542E+03  0.23447012235E+03  0.00000000000E+00 0.  1.
         14    1    6    6    0    0  0.11950493985E+02 -0.53563831218E+02  0.17529469508E+03  0.18368486178E+03  0.00000000000E+00 0. -1.
         -5    1    3    3    0  503  0.51641951060E+02 -0.15998423652E+01 -0.40382236221E+02  0.65743939698E+02  0.47000000000E+01 0.  1.
         11    1    4    4    0    0  0.44498390813E+02  0.10549112493E+03  0.98766650511E+01  0.11491750405E+03  0.00000000000E+00 0. -1.
        -12    1    4    4    0    0 -0.33857810182E+02  0.53658120313E+02 -0.51641394967E+00  0.63449285805E+02  0.00000000000E+00 0.  1.
</event>
<event>
12    1  0.8633375E-002  0.2111411E+03  0.7818608E-02  0.1141054E+00
         21   -1    0    0  503  502  0.00000000000E+00  0.00000000000E+00  0.12450433714E+03  0.12450433714E+03  0.00000000000E+00 0.  1.
         21   -1    0    0  501  503 -0.00000000000E+00 -0.00000000000E+00 -0.52180464203E+03  0.52180464203E+03  0.00000000000E+00 0.  1.
          6    2    1    2  501    0 -0.12009319792E+03 -0.73936553009E+01 -0.38213220119E+03  0.43658397191E+03  0.17350361096E+03 0.  0.
         24    2    3    3    0    0 -0.10547383136E+03 -0.63476787605E+02 -0.22578136827E+03  0.26977055350E+03  0.81516216840E+02 0.  0.
         -6    2    1    2    0  502  0.12009319792E+03  0.73936553009E+01 -0.15168103694E+02  0.20972500727E+03  0.17110658953E+03 0.  0.
        -24    2    5    5    0    0  0.15262191063E+03 -0.11135620542E+02 -0.10584881105E+02  0.17171780870E+03  0.77184949747E+02 0.  0.
          5    1    3    3  501    0 -0.14619366553E+02  0.56083132304E+02 -0.15635083292E+03  0.16681341841E+03  0.47000000000E+01 0. -1.
        -11    1    4    4    0    0 -0.95743316667E+02 -0.22410776236E+02 -0.19198973096E+03  0.21570600912E+03  0.00000000000E+00 0.  1.
         12    1    4    4    0    0 -0.97305146962E+01 -0.41066011369E+02 -0.33791637312E+02  0.54064544373E+02  0.00000000000E+00 0. -1.
         -5    1    5    5    0  502 -0.32528712711E+02  0.18529275843E+02 -0.45832225890E+01  0.38007198571E+02  0.47000000000E+01 0.  1.
         11    1    6    6    0    0  0.66568461706E+02  0.14600085962E+01  0.33138658715E+02  0.74375146523E+02  0.00000000000E+00 0. -1.
        -12    1    6    6    0    0  0.86053448921E+02 -0.12595629138E+02 -0.43723539820E+02  0.97342662174E+02  0.00000000000E+00 0.  1.
</event>
<event>
12    1  0.8633375E-002  0.1880624E+03  0.7818608E-02  0.1160824E+00
         21   -1    0    0  503  502  0.00000000000E+00  0.00000000000E+00  0.96625001017E+02  0.96625001017E+02  0.00000000000E+00 0. -1.
         21   -1    0    0  501  503 -0.00000000000E+00 -0.00000000000E+00 -0.37370641483E+03  0.37370641483E+03  0.00000000000E+00 0. -1.
          6    2    1    2  501    0  0.62655454734E+02 -0.41374206307E+02 -0.18293320138E+03  0.26235855596E+03  0.17242367807E+03 0.  0.
         24    2    3    3    0    0  0.35762223940E+02  0.44081077426E+02 -0.88810062230E+02  0.13233122535E+03  0.80014048774E+02 0.  0.
         -6    2    1    2    0  502 -0.62655454734E+02  0.41374206307E+02 -0.94148212428E+02  0.20797285989E+03  0.16956206413E+03 0.  0.
        -24    2    5    5    0    0 -0.39284524094E+02  0.23070680868E+02 -0.13055652942E+03  0.16076189729E+03  0.81999085954E+02 0.  0.
          5    1    3    3  501    0  0.26893230794E+02 -0.85455283733E+02 -0.94123139152E+02  0.13002733061E+03  0.47000000000E+01 0. -1.
        -11    1    4    4    0    0  0.51622932171E+02  0.50159141162E+02 -0.43883023596E+02  0.84300571339E+02  0.00000000000E+00 0.  1.
         12    1    4    4    0    0 -0.15860708231E+02 -0.60780637362E+01 -0.44927038634E+02  0.48030654011E+02  0.00000000000E+00 0. -1.
         -5    1    5    5    0  502 -0.23370930641E+02  0.18303525438E+02  0.36408316997E+02  0.47210962593E+02  0.47000000000E+01 0.  1.
         11    1    6    6    0    0 -0.29718868720E+02  0.14026214253E+02 -0.35261083970E+01  0.33051161624E+02  0.00000000000E+00 0. -1.
        -12    1    6    6    0    0 -0.95656553737E+01  0.90444666152E+01 -0.12703042103E+03  0.12771073567E+03  0.00000000000E+00 0.  1.
</event>
<event>
12    1  0.8633375E-002  0.2454613E+03  0.7818608E-02  0.1116638E+00
         21   -1    0    0  503  502  0.00000000000E+00  0.00000000000E+00  0.10758207428E+04  0.10758207428E+04  0.00000000000E+00 0.  1.
         21   -1    0    0  501  503 -0.00000000000E+00 -0.00000000000E+00 -0.55876157878E+02  0.55876157878E+02  0.00000000000E+00 0.  1.
          6    2    1    2  501    0  0.12273782364E+03  0.11832851816E+03  0.45512127495E+03  0.51584250081E+03  0.17289273891E+03 0.  0.
         24    2    3    3    0    0  0.89741567152E+02  0.37411182163E+02  0.13916304307E+03  0.18798877962E+03  0.80748271065E+02 0.  0.
         -6    2    1    2    0  502 -0.12273782364E+03 -0.11832851816E+03  0.56482330997E+03  0.61585439987E+03  0.17659291829E+03 0.  0.
        -24    2    5    5    0    0 -0.77080916965E+02 -0.43858887872E+01  0.16806284080E+03  0.20051305132E+03  0.77457481962E+02 0.  0.
          5    1    3    3  501    0  0.32996256487E+02  0.80917335996E+02  0.31595823188E+03  0.32785372119E+03  0.47000000000E+01 0. -1.
        -13    1    4    4    0    0  0.16857616835E+02  0.46292080266E+02  0.34518949196E+02  0.60155579910E+02  0.00000000000E+00 0.  1.
         14    1    4    4    0    0  0.72883950317E+02 -0.88808981026E+01  0.10464409388E+03  0.12783319971E+03  0.00000000000E+00 0. -1.
         -5    1    5    5    0  502 -0.45656906674E+02 -0.11394262937E+03  0.39676046917E+03  0.41534134855E+03  0.47000000000E+01 0.  1.
         11    1    6    6    0    0 -0.77625691417E+01 -0.46782826477E+00 -0.80596682830E+01  0.11199758738E+02  0.00000000000E+00 0. -1.
        -12    1    6    6    0    0 -0.69318347823E+02 -0.39180605225E+01  0.17612250908E+03  0.18931329258E+03  0.00000000000E+00 0.  1.
</event>
<event>
12    1  0.8633375E-002  0.2126745E+03  0.7818608E-02  0.1139918E+00
         21   -1    0    0  501  502  0.00000000000E+00  0.00000000000E+00  0.12435584823E+04  0.12435584823E+04  0.00000000000E+00 0. -1.
         21   -1    0    0  502  503 -0.00000000000E+00 -0.00000000000E+00 -0.36887740485E+02  0.36887740485E+02  0.00000000000E+00 0. -1.
         -6    2    1    2    0  503  0.33004461158E+02 -0.11632686240E+03  0.49958809832E+03  0.54207211414E+03  0.17214144058E+03 0.  0.
        -24    2    3    3    0    0  0.25640775136E+02 -0.38843630761E+02  0.12184506362E+03  0.15636527556E+03  0.86241537972E+02 0.  0.
          6    2    1    2  501    0 -0.33004461158E+02  0.11632686240E+03  0.70708264352E+03  0.73837410867E+03  0.17495492627E+03 0.  0.
         24    2    5    5    0    0  0.32171150450E+02  0.77393665546E+01  0.29640837696E+03  0.30858980485E+03  0.79214020276E+02 0.  0.
          5    1    5    5  501    0 -0.65175611608E+02  0.10858749585E+03  0.41067426655E+03  0.42978430382E+03  0.47000000000E+01 0. -1.
        -11    1    6    6    0    0 -0.14047830461E+01 -0.76929038115E+01 -0.18623135841E+01  0.80388056541E+01  0.00000000000E+00 0.  1.
         12    1    6    6    0    0  0.33575933496E+02  0.15432270366E+02  0.29827069055E+03  0.30055099920E+03  0.00000000000E+00 0. -1.
         -5    1    3    3    0  503  0.73636860218E+01 -0.77483231644E+02  0.37774303470E+03  0.38570683858E+03  0.47000000000E+01 0.  1.
         11    1    4    4    0    0  0.16924325350E+02 -0.30824467557E+02  0.13450669234E+03  0.13902744647E+03  0.00000000000E+00 0. -1.
        -12    1    4    4    0    0  0.87164497862E+01 -0.80191632039E+01 -0.12661628723E+02  0.17337829082E+02  0.00000000000E+00 0.  1.
</event>
<event>
12    1  0.8633375E-002  0.1825502E+03  0.7818608E-02  0.1166880E+00
         21   -1    0    0  501  502  0.00000000000E+00  0.00000000000E+00  0.85716206535E+03  0.85716206535E+03  0.00000000000E+00 0.  1.
         21   -1    0    0  502  503 -0.00000000000E+00 -0.00000000000E+00 -0.43251884391E+02  0.43251884391E+02  0.00000000000E+00 0.  1.
         -6    2    1    2    0  503  0.41696937729E+02  0.20610475312E+02  0.57659125388E+03  0.60479918219E+03  0.17652521188E+03 0.  0.
        -24    2    3    3    0    0 -0.28187181050E+02  0.47212511658E+02  0.42824263356E+03  0.43860393092E+03  0.77188837216E+02 0.  0.
          6    2    1    2  501    0 -0.41696937729E+02 -0.20610475312E+02  0.23731892708E+03  0.29561476755E+03  0.17001291519E+03 0.  0.
         24    2    5    5    0    0  0.48924948281E+01 -0.61887128325E+02  0.19416568764E+03  0.21972913396E+03  0.82016003909E+02 0.  0.
          5    1    5    5  501    0 -0.46589432557E+02  0.41276653013E+02  0.43153239443E+02  0.75885633583E+02  0.47000000000E+01 0. -1.
        -13    1    6    6    0    0 -0.36495716661E+02 -0.39739493031E+02  0.82252554802E+02  0.98369951776E+02  0.00000000000E+00 0.  1.
         14    1    6    6    0    0  0.41388211489E+02 -0.22147635294E+02  0.11191313284E+03  0.12135918219E+03  0.00000000000E+00 0. -1.
         -5    1    3    3    0  503  0.69884118779E+02 -0.26602036346E+02  0.14834862032E+03  0.16619525127E+03  0.47000000000E+01 0.  1.
         11    1    4    4    0    0  0.10391362437E+02  0.16468934527E+02  0.30828270942E+03  0.30889712712E+03  0.00000000000E+00 0. -1.
        -12    1    4    4    0    0 -0.38578543487E+02  0.30743577131E+02  0.11995992414E+03  0.12970680380E+03  0.00000000000E+00 0.  1.
</event>
<event>
12    1  0.8633375E-002  0.2318068E+03  0.7818608E-02  0.1125573E+00
         21   -1    0    0  501  502  0.00000000000E+00  0.00000000000E+00  0.37718160822E+02  0.37718160822E+02  0.00000000000E+00 0.  1.
         21   -1    0    0  502  503 -0.00000000000E+00 -0.00000000000E+00 -0.16185998119E+04  0.16185998119E+04  0.00000000000E+00 0.  1.
         -6    2    1    2    0  503 -0.79231575621E+01  0.15520253841E+03 -0.10839306060E+04  0.11084403282E+04  0.17199941350E+03 0.  0.
        -24    2    3    3    0    0  0.71952843478E+01  0.41073826008E+01 -0.38903692460E+03  0.39713333975E+03  0.79350602581E+02 0.  0.
          6    2    1    2  501    0  0.79231575621E+01 -0.15520253841E+03 -0.49695104504E+03  0.54787764446E+03  0.17046691111E+03 0.  0.
         24    2    5    5    0    0 -0.57150596131E+02 -0.59313911213E+02 -0.25669576001E+03  0.28109324794E+03  0.79601319888E+02 0.  0.
          5    1    5    5  501    0  0.65073753693E+02 -0.95888627195E+02 -0.24025528503E+03  0.26678439652E+03  0.47000000000E+01 0. -1.
        -13    1    6    6    0    0  0.14688207963E+01 -0.22476070476E+02 -0.96052309923E+01  0.24486560416E+02  0.00000000000E+00 0.  1.
         14    1    6    6    0    0 -0.58619416927E+02 -0.36837840737E+02 -0.24709052902E+03  0.25660668752E+03  0.00000000000E+00 0. -1.
         -5    1    3    3    0  503 -0.15118441910E+02  0.15109515581E+03 -0.69489368140E+03  0.71130698847E+03  0.47000000000E+01 0.  1.
         11    1    4    4    0    0 -0.33053068696E+02  0.61690511264E+01 -0.10501873770E+03  0.11027011295E+03  0.00000000000E+00 0. -1.
        -12    1    4    4    0    0  0.40248353043E+02 -0.20616685256E+01 -0.28401818690E+03  0.28686322680E+03  0.00000000000E+00 0.  1.
</event>
<event>
12    1  0.8633375E-002  0.2876870E+03  0.7818608E-02  0.1091746E+00
         21   -1    0    0  503  502  0.00000000000E+00  0.00000000000E+00  0.32475982398E+03  0.32475982398E+03  0.00000000000E+00 0.  1.
         21   -1    0    0  501  503 -0.00000000000E+00 -0.00000000000E+00 -0.41592163713E+03  0.41592163713E+03  0.00000000000E+00 0. -1.
          6    2    1    2  501    0  0.10703593504E+03 -0.20348440504E+03 -0.27699196843E+03  0.39935991836E+03  0.17291963258E+03 0.  0.
         24    2    3    3    0    0  0.11157378617E+03 -0.22492219179E+03 -0.23920933007E+03  0.35543055967E+03  0.77917116451E+02 0.  0.
         -6    2    1    2    0  502 -0.10703593504E+03  0.20348440504E+03  0.18583015528E+03  0.34132154274E+03  0.17060174220E+03 0.  0.
        -24    2    5    5    0    0 -0.11245628051E+03  0.95780343948E+02  0.15642796567E+03  0.22944605984E+03  0.79721368651E+02 0.  0.
          5    1    3    3  501    0 -0.45378511228E+01  0.21437786747E+02 -0.37782638360E+02  0.43929358689E+02  0.47000000000E+01 0. -1.
        -13    1    4    4    0    0 -0.65582338566E+01 -0.38136519842E+01 -0.23559816922E+02  0.24751148381E+02  0.00000000000E+00 0.  1.
         14    1    4    4    0    0  0.11813202002E+03 -0.22110853981E+03 -0.21564951315E+03  0.33067941129E+03  0.00000000000E+00 0. -1.
         -5    1    5    5    0  502  0.54203454635E+01  0.10770406110E+03  0.29402189616E+02  0.11187548291E+03  0.47000000000E+01 0.  1.
         13    1    6    6    0    0 -0.87965884972E+02  0.25158565618E+02  0.70140588166E+02  0.11528509206E+03  0.00000000000E+00 0. -1.
        -14    1    6    6    0    0 -0.24490395536E+02  0.70621778330E+02  0.86287377499E+02  0.11416096778E+03  0.00000000000E+00 0.  1.
</event>
<event>
12    1  0.8633375E-002  0.1861684E+03  0.7818608E-02  0.1162158E+00
         21   -1    0    0  501  502  0.00000000000E+00  0.00000000000E+00  0.58639850882E+03  0.58639850882E+03  0.00000000000E+00 0. -1.
         21   -1    0    0  502  503 -0.00000000000E+00 -0.00000000000E+00 -0.96771208069E+02  0.96771208069E+02  0.00000000000E+00 0. -1.
         -6    2    1    2    0  503  0.59832683829E+02  0.25652148208E+02  0.31287355870E+02  0.18877918781E+03  0.17441530997E+03 0.  0.
        -24    2    3    3    0    0  0.38774623115E+02 -0.48099653904E+02  0.43855904214E+02  0.11091501991E+03  0.81004649274E+02 0.  0.
          6    2    1    2  501    0 -0.59832683829E+02 -0.25652148208E+02  0.45833994488E+03  0.49439052908E+03  0.17351803193E+03 0.  0.
         24    2    5    5    0    0 -0.44961431846E+02 -0.81339493744E+02  0.25040222990E+03  0.27856092522E+03  0.79102899596E+02 0.  0.
          5    1    5    5  501    0 -0.14871251983E+02  0.55687345536E+02  0.20793771498E+03  0.21582960386E+03  0.47000000000E+01 0. -1.
        -11    1    6    6    0    0 -0.31478861896E+02 -0.29461968171E+02  0.32041259129E+02  0.53717488785E+02  0.00000000000E+00 0.  1.
         12    1    6    6    0    0 -0.13482569950E+02 -0.51877525573E+02  0.21836097077E+03  0.22484343643E+03  0.00000000000E+00 0. -1.
         -5    1    3    3    0  503  0.21058060714E+02  0.73751802112E+02 -0.12568548343E+02  0.77864167904E+02  0.47000000000E+01 0.  1.
         11    1    4    4    0    0  0.46336923404E+02 -0.29637519408E+02 -0.77864132521E+01  0.55552869040E+02  0.00000000000E+00 0. -1.
        -12    1    4    4    0    0 -0.75623002896E+01 -0.18462134497E+02  0.51642317466E+02  0.55362150871E+02  0.00000000000E+00 0.  1.
</event>
<event>
12    1  0.8633375E-002  0.2071712E+03  0.7818608E-02  0.1143871E+00
         21   -1    0    0  501  502  0.00000000000E+00  0.00000000000E+00  0.22966400328E+03  0.22966400328E+03  0.00000000000E+00 0. -1.
         21   -1    0    0  502  503 -0.00000000000E+00 -0.00000000000E+00 -0.25039256112E+03  0.25039256112E+03  0.00000000000E+00 0. -1.
         -6    2    1    2    0  503  0.11178788766E+03 -0.29489064878E+02 -0.13144770204E+03  0.24535361526E+03  0.17191207455E+03 0.  0.
        -24    2    3    3    0    0  0.96108977204E+01 -0.31946141066E+02 -0.11749914744E+03  0.14209265133E+03  0.72604040026E+02 0.  0.
          6    2    1    2  501    0 -0.11178788766E+03  0.29489064878E+02  0.11071914420E+03  0.23470294913E+03  0.17164092946E+03 0.  0.
         24    2    5    5    0    0 -0.13917021622E+03  0.25489232570E+02  0.12623383507E+03  0.20263136968E+03  0.71459364693E+02 0.  0.
          5    1    5    5  501    0  0.27382328558E+02  0.39998323081E+01 -0.15514690873E+02  0.32071579453E+02  0.47000000000E+01 0. -1.
        -13    1    6    6    0    0 -0.27256079657E+02 -0.12660247285E+02  0.52954985765E+00  0.30057547515E+02  0.00000000000E+00 0.  1.
         14    1    6    6    0    0 -0.11191413656E+03  0.38149479854E+02  0.12570428521E+03  0.17257382216E+03  0.00000000000E+00 0. -1.
         -5    1    3    3    0  503  0.10217698994E+03  0.24570761886E+01 -0.13948554594E+02  0.10326096393E+03  0.47000000000E+01 0.  1.
         11    1    4    4    0    0  0.32197712173E+02 -0.40283864030E+02 -0.56410155826E+02  0.76430282288E+02  0.00000000000E+00 0. -1.
        -12    1    4    4    0    0 -0.22586814452E+02  0.83377229638E+01 -0.61088991619E+02  0.65662369043E+02  0.00000000000E+00 0.  1.
</event>
<event>
12    1  0.8633375E-002  0.2013878E+03  0.7818608E-02  0.1148667E+00
         21   -1    0    0  503  502  0.00000000000E+00  0.00000000000E+00  0.27774545411E+03  0.27774545411E+03  0.00000000000E+00 0. -1.
         21   -1    0    0  501  503 -0.00000000000E+00 -0.00000000000E+00 -0.14605033084E+03  0.14605033084E+03  0.00000000000E+00 0.  1.
          6    2    1    2  501    0 -0.59314341229E+02 -0.86272322931E+02  0.55359072980E+02  0.20842574811E+03  0.17150965201E+03 0.  0.
         24    2    3    3    0    0 -0.57140799069E+02 -0.10276562945E+03  0.90940015625E+02  0.16886760198E+03  0.80126993227E+02 0.  0.
         -6    2    1    2    0  502  0.59314341229E+02  0.86272322931E+02  0.76336050286E+02  0.21537003684E+03  0.17203475060E+03 0.  0.
        -24    2    5    5    0    0  0.53268418091E+02  0.74498970252E+02  0.11993319538E+03  0.16956647715E+03  0.77338204548E+02 0.  0.
          5    1    3    3  501    0 -0.21735421598E+01  0.16493306517E+02 -0.35580942645E+02  0.39558146125E+02  0.47000000000E+01 0. -1.
        -11    1    4    4    0    0 -0.25179914240E+02 -0.33047770415E+02 -0.93764088854E+01  0.42592255800E+02  0.00000000000E+00 0.  1.
         12    1    4    4    0    0 -0.31960884829E+02 -0.69717859033E+02  0.10031642451E+03  0.12627534618E+03  0.00000000000E+00 0. -1.
         -5    1    5    5    0  502  0.60459231379E+01  0.11773352679E+02 -0.43597145096E+02  0.45803559692E+02  0.47000000000E+01 0.  1.
         11    1    6    6    0    0  0.55899879208E+02  0.65109787426E+02  0.50746404999E+02  0.99695930381E+02  0.00000000000E+00 0. -1.
        -12    1    6    6    0    0 -0.26314611175E+01  0.93891828260E+01  0.69186790384E+02  0.69870546766E+02  0.00000000000E+00 0.  1.
</event>
<event>
12    1  0.8633375E-002  0.1782632E+03  0.7818608E-02  0.1169677E+00
         21   -1    0    0  501  502  0.00000000000E+00  0.00000000000E+00  0.14171166073E+03  0.14171166073E+03  0.00000000000E+00 0.  1.
         21   -1    0    0  502  503 -0.00000000000E+00 -0.00000000000E+00 -0.29650579400E+03  0.29650579400E+03  0.00000000000E+00 0. -1.
         -6    2    1    2    0  503 -0.41686410200E+02 -0.25289758074E+02 -0.18614026051E+03  0.25721920623E+03  0.17069327700E+03 0.  0.
        -24    2    3    3    0    0 -0.44088845664E+02  0.43019294508E+02 -0.14981580065E+03  0.17967273793E+03  0.77736945023E+02 0.  0.
          6    2    1    2  501    0  0.41686410200E+02  0.25289758074E+02  0.31346127243E+02  0.18099824850E+03  0.17146561640E+03 0.  0.
         24    2    5    5    0    0  0.42019969947E+02  0.54426962014E+01  0.83947813579E+02  0.12457977163E+03  0.81716481069E+02 0.  0.
          5    1    5    5  501    0 -0.33355974658E+00  0.19847061872E+02 -0.52601686336E+02  0.56418476871E+02  0.47000000000E+01 0. -1.
        -11    1    6    6    0    0  0.54868781919E+02 -0.17213234571E+02  0.30429828461E+02  0.65060380677E+02  0.00000000000E+00 0.  1.
         12    1    6    6    0    0 -0.12848811972E+02  0.22655930773E+02  0.53517985118E+02  0.59519390953E+02  0.00000000000E+00 0. -1.
         -5    1    3    3    0  503  0.24024354636E+01 -0.68309052582E+02 -0.36324459862E+02  0.77546468295E+02  0.47000000000E+01 0.  1.
         11    1    4    4    0    0  0.92520126825E+01  0.41970256476E+02 -0.88581753816E+02  0.98457245932E+02  0.00000000000E+00 0. -1.
        -12    1    4    4    0    0 -0.53340858347E+02  0.10490380320E+01 -0.61234046829E+02  0.81215492001E+02  0.00000000000E+00 0.  1.
</event>
<event>
12    1  0.8633375E-002  0.1941299E+03  0.7818608E-02  0.1155056E+00
         21   -1    0    0  501  502  0.00000000000E+00  0.00000000000E+00  0.74814230725E+03  0.74814230725E+03  0.00000000000E+00 0.  1.
         21   -1    0    0  502  503 -0.00000000000E+00 -0.00000000000E+00 -0.72283572554E+02  0.72283572554E+02  0.00000000000E+00 0.  1.
         -6    2    1    2    0  503  0.85582812391E+02 -0.19706175229E+02  0.10973040899E+03  0.22193805067E+03  0.17176432854E+03 0.  0.
        -24    2    3    3    0    0 -0.98983252145E+01 -0.43802707192E+02  0.72706142777E+02  0.11662814240E+03  0.79368043969E+02 0.  0.
          6    2    1    2  501    0 -0.85582812391E+02  0.19706175229E+02  0.56612832571E+03  0.59848782913E+03  0.17312899622E+03 0.  0.
         24    2    5    5    0    0 -0.66736834402E+02 -0.14866830867E+02  0.54174616670E+03  0.55193631664E+03  0.80436066386E+02 0.  0.
          5    1    5    5  501    0 -0.18845977989E+02  0.34573006095E+02  0.24382159009E+02  0.46551512487E+02  0.47000000000E+01 0. -1.
        -11    1    6    6    0    0 -0.63463982895E+02  0.79331040138E+01  0.21327571480E+03  0.22265925039E+03  0.00000000000E+00 0.  1.
         12    1    6    6    0    0 -0.32728515072E+01 -0.22799934880E+02  0.32847045190E+03  0.32927706625E+03  0.00000000000E+00 0. -1.
         -5    1    3    3    0  503  0.95481137606E+02  0.24096531964E+02  0.37024266215E+02  0.10530990827E+03  0.47000000000E+01 0.  1.
         11    1    4    4    0    0 -0.24998337857E+02  0.11527403721E+02  0.45428636844E+02  0.53118348785E+02  0.00000000000E+00 0. -1.
        -12    1    4    4    0    0  0.15100012643E+02 -0.55330110913E+02  0.27277505933E+02  0.63509793618E+02  0.00000000000E+00 0.  1.
</event>
<event>
12    1  0.8633375E-002  0.2025810E+03  0.7818608E-02  0.1147639E+00
         21   -1    0    0  503  502  0.00000000000E+00  0.00000000000E+00  0.35150359948E+03  0.35150359948E+03  0.00000000000E+00 0. -1.
         21   -1    0    0  501  503 -0.00000000000E+00 -0.00000000000E+00 -0.14590721493E+03  0.14590721493E+03  0.00000000000E+00 0. -1.
          6    2    1    2  501    0  0.93296423893E+02 -0.51015745477E+02  0.21422855173E+03  0.29464602526E+03  0.17209177443E+03 0.  0.
         24    2    3    3    0    0  0.13158481715E+02  0.16487035697E+00  0.26450975679E+02  0.84113240920E+02  0.78754113292E+02 0.  0.
         -6    2    1    2    0  502 -0.93296423893E+02  0.51015745477E+02 -0.86321671813E+01  0.20276478915E+03  0.17243032335E+03 0.  0.
        -24    2    5    5    0    0 -0.60952217740E+02  0.40936121064E+02  0.61661865685E+02  0.12459134381E+03  0.79560533034E+02 0.  0.
          5    1    3    3  501    0  0.80137942178E+02 -0.51180615834E+02  0.18777757606E+03  0.21053278434E+03  0.47000000000E+01 0. -1.
        -11    1    4    4    0    0 -0.19005866443E+02 -0.25502280616E+02 -0.51620973206E+01  0.32221677868E+02  0.00000000000E+00 0.  1.
         12    1    4    4    0    0  0.32164348158E+02  0.25667150973E+02  0.31613073000E+02  0.51891563052E+02  0.00000000000E+00 0. -1.
         -5    1    5    5    0  502 -0.32344206153E+02  0.10079624413E+02 -0.70294032866E+02  0.78173445342E+02  0.47000000000E+01 0.  1.
         11    1    6    6    0    0 -0.57693416238E+01  0.21467082354E+02 -0.15973461736E+02  0.27372840689E+02  0.00000000000E+00 0. -1.
        -12    1    6    6    0    0 -0.55182876116E+02  0.19469038710E+02  0.77635327421E+02  0.97218503118E+02  0.00000000000E+00 0.  1.
</event>
<event>
12    1  0.8633375E-002  0.1898474E+03  0.7818608E-02  0.1159145E+00
         21   -1    0    0  503  502  0.00000000000E+00  0.00000000000E+00  0.43243539868E+02  0.43243539868E+02  0.00000000000E+00 0. -1.
         21   -1    0    0  501  503 -0.00000000000E+00 -0.00000000000E+00 -0.10334730144E+04  0.10334730144E+04  0.00000000000E+00 0.  1.
          6    2    1    2  501    0 -0.33718489833E+02 -0.71422655148E+02 -0.74059873124E+03  0.76454465598E+03  0.17263811299E+03 0.  0.
         24    2    3    3    0    0 -0.87144502404E+02 -0.59065572333E+02 -0.57717297206E+03  0.59210015744E+03  0.79818861370E+02 0.  0.
         -6    2    1    2    0  502  0.33718489833E+02  0.71422655148E+02 -0.24963074326E+03  0.31217189825E+03  0.16999309942E+03 0.  0.
        -24    2    5    5    0    0 -0.99761076253E+01  0.10032658622E+03 -0.14375823681E+03  0.19395289513E+03  0.82379295037E+02 0.  0.
          5    1    3    3  501    0  0.53426012571E+02 -0.12357082815E+02 -0.16342575917E+03  0.17244449854E+03  0.47000000000E+01 0. -1.
        -11    1    4    4    0    0 -0.29228344300E+02 -0.65182199651E+02 -0.37323116886E+03  0.38000594820E+03  0.00000000000E+00 0.  1.
         12    1    4    4    0    0 -0.57916158104E+02  0.61166273181E+01 -0.20394180320E+03  0.21209420924E+03  0.00000000000E+00 0. -1.
         -5    1    5    5    0  502  0.43694597459E+02 -0.28903931069E+02 -0.10587250644E+03  0.11821900312E+03  0.47000000000E+01 0.  1.
         13    1    6    6    0    0 -0.12491885407E+02  0.88357890286E+01  0.75918186663E+01  0.17080810269E+02  0.00000000000E+00 0. -1.
        -14    1    6    6    0    0  0.25157777816E+01  0.91490797188E+02 -0.15135005548E+03  0.17687208486E+03  0.00000000000E+00 0.  1.
</event>
<event>
12    1  0.8633375E-002  0.2142103E+03  0.7818608E-02  0.1139215E+00
         21   -1    0    0  503  502  0.00000000000E+00  0.00000000000E+00  0.52977986901E+02  0.52977986901E+02  0.00000000000E+00 0. -1.
         21   -1    0    0  501  503 -0.00000000000E+00 -0.00000000000E+00 -0.99771013573E+03  0.99771013573E+03  0.00000000000E+00 0.  1.
          6    2    1    2  501    0  0.12029945438E+03  0.35921298989E+02 -0.26349477950E+03  0.33656600658E+03  0.16758543947E+03 0.  0.
         24    2    3    3    0    0  0.14376054395E+03  0.57303966655E+02 -0.23779340787E+03  0.29545284927E+03  0.82436901498E+02 0.  0.
         -6    2    1    2    0  502 -0.12029945438E+03 -0.35921298989E+02 -0.68123736933E+03  0.71412211605E+03  0.17356193364E+03 0.  0.
        -24    2    5    5    0    0 -0.13298882958E+03 -0.66320557042E+02 -0.45168330080E+03  0.48216889767E+03  0.79903670643E+02 0.  0.
          5    1    3    3  501    0 -0.23461089572E+02 -0.21382667666E+02 -0.25701371629E+02  0.41113157310E+02  0.47000000000E+01 0. -1.
        -11    1    4    4    0    0  0.50739588930E+02 -0.11877173863E+02 -0.11674386821E+03  0.12784640749E+03  0.00000000000E+00 0.  1.
         12    1    4    4    0    0  0.93020955017E+02  0.69181140518E+02 -0.12104953966E+03  0.16760644178E+03  0.00000000000E+00 0. -1.
         -5    1    5    5    0  502  0.12689375208E+02  0.30399258053E+02 -0.22955406854E+03  0.23195321838E+03  0.47000000000E+01 0.  1.
         11    1    6    6    0    0 -0.18981489485E+02 -0.38412951215E+02 -0.19893179435E+03  0.20349376051E+03  0.00000000000E+00 0. -1.
        -12    1    6    6    0    0 -0.11400734010E+03 -0.27907605827E+02 -0.25275150645E+03  0.27867513716E+03  0.00000000000E+00 0.  1.
</event>
<event>
12    1  0.8633375E-002  0.1987467E+03  0.7818608E-02  0.1151266E+00
         21   -1    0    0  501  502  0.00000000000E+00  0.00000000000E+00  0.56467824574E+02  0.56467824574E+02  0.00000000000E+00 0. -1.
         21   -1    0    0  502  503 -0.00000000000E+00 -0.00000000000E+00 -0.77821929786E+03  0.77821929786E+03  0.00000000000E+00 0.  1.
         -6    2    1    2    0  503 -0.93061354786E+02 -0.29539274456E+02 -0.49811699228E+03  0.53550053645E+03  0.17060862244E+03 0.  0.
        -24    2    3    3    0    0 -0.12539742322E+03 -0.35936873070E+02 -0.32302426381E+03  0.35727005602E+03  0.79254307935E+02 0.  0.
          6    2    1    2  501    0  0.93061354786E+02  0.29539274456E+02 -0.22363448101E+03  0.29918658599E+03  0.17311050704E+03 0.  0.
         24    2    5    5    0    0  0.11024653627E+03 -0.25971315314E+02 -0.14710936551E+03  0.20298399069E+03  0.82051977907E+02 0.  0.
          5    1    5    5  501    0 -0.17185181481E+02  0.55510589770E+02 -0.76525115496E+02  0.96202595292E+02  0.47000000000E+01 0. -1.
        -11    1    6    6    0    0  0.92723843364E+01 -0.26482852167E+02 -0.47634803472E+01  0.28460662592E+02  0.00000000000E+00 0.  1.
         12    1    6    6    0    0  0.10097415193E+03  0.51153685285E+00 -0.14234588517E+03  0.17452332810E+03  0.00000000000E+00 0. -1.
         -5    1    3    3    0  503  0.32336068432E+02  0.63975986135E+01 -0.17509272847E+03  0.17823048042E+03  0.47000000000E+01 0.  1.
         13    1    4    4    0    0  0.87148954855E+01  0.27307719148E+01 -0.47936318479E+02  0.48798536330E+02  0.00000000000E+00 0. -1.
        -14    1    4    4    0    0 -0.13411231870E+03 -0.38667644985E+02 -0.27508794533E+03  0.30847151969E+03  0.00000000000E+00 0.  1.
</event>
<event>
12    1  0.8633375E-002  0.1788556E+03  0.7818608E-02  0.1169219E+00
         21   -1    0    0  503  502  0.00000000000E+00  0.00000000000E+00  0.80469627910E+02  0.80469627910E+02  0.00000000000E+00 0.  1.
         21   -1    0    0  501  503 -0.00000000000E+00 -0.00000000000E+00 -0.45447875225E+03  0.45447875225E+03  0.00000000000E+00 0.  1.
          6    2    1    2  501    0  0.17603746166E+02 -0.40879037879E+02 -0.90628257598E+02  0.20050639878E+03  0.17322917554E+03 0.  0.
         24    2    3    3    0    0 -0.80633541020E+01 -0.89254112273E+02 -0.86227309809E+02  0.14536652029E+03  0.75265942008E+02 0.  0.
         -6    2    1    2    0  502 -0.17603746166E+02  0.40879037879E+02 -0.28338086675E+03  0.33444198138E+03  0.17194689778E+03 0.  0.
        -24    2    5    5    0    0  0.35802118094E+02 -0.24761143096E+02 -0.17111150956E+03  0.19377457841E+03  0.79840670509E+02 0.  0.
          5    1    3    3  501    0  0.25667100268E+02  0.48375074394E+02 -0.44009477892E+01  0.55139878493E+02  0.47000000000E+01 0. -1.
        -13    1    4    4    0    0  0.28622636686E+02 -0.69476906382E+02 -0.51229924586E+02  0.90943944407E+02  0.00000000000E+00 0.  1.
         14    1    4    4    0    0 -0.36685990788E+02 -0.19777205891E+02 -0.34997385223E+02  0.54422575880E+02  0.00000000000E+00 0. -1.
         -5    1    5    5    0  502 -0.53405864260E+02  0.65640180975E+02 -0.11226935718E+03  0.14066740297E+03  0.47000000000E+01 0.  1.
         13    1    6    6    0    0  0.16806612143E+02 -0.33003112234E+02 -0.21679301124E+02  0.42914563100E+02  0.00000000000E+00 0. -1.
        -14    1    6    6    0    0  0.18995505951E+02  0.82419691380E+01 -0.14943220844E+03  0.15086001531E+03  0.00000000000E+00 0.  1.
</event>
<event>
12    1  0.8633375E-002  0.1749032E+03  0.7818608E-02  0.1172907E+00
         21   -1    0    0  503  502  0.00000000000E+00  0.00000000000E+00  0.21837258767E+03  0.21837258767E+03  0.00000000000E+00 0. -1.
         21   -1    0    0  501  503 -0.00000000000E+00 -0.00000000000E+00 -0.14011967177E+03  0.14011967177E+03  0.00000000000E+00 0.  1.
          6    2    1    2  501    0  0.23564777279E+02  0.41657847656E+01  0.31075334705E+02  0.17733805623E+03  0.17294639999E+03 0.  0.
         24    2    3    3    0    0 -0.36362882370E+02  0.51396762771E+01  0.64576499905E+02  0.10851443438E+03  0.79098562829E+02 0.  0.
         -6    2    1    2    0  502 -0.23564777279E+02 -0.41657847656E+01  0.47177581194E+02  0.18115420320E+03  0.17325838704E+03 0.  0.
        -24    2    5    5    0    0 -0.37759314366E+02  0.61009294506E+02  0.21742729342E+02  0.10961192528E+03  0.79963291878E+02 0.  0.
          5    1    3    3  501    0  0.59927659649E+02 -0.97389151155E+00 -0.33501165201E+02  0.68823621857E+02  0.47000000000E+01 0. -1.
        -11    1    4    4    0    0  0.82338861379E+01 -0.22846713426E+02 -0.11349577559E+01  0.24311670539E+02  0.00000000000E+00 0.  1.
         12    1    4    4    0    0 -0.44596768508E+02  0.27986389703E+02  0.65711457661E+02  0.84202763838E+02  0.00000000000E+00 0. -1.
         -5    1    5    5    0  502  0.14194537087E+02 -0.65175079271E+02  0.25434851853E+02  0.71542277919E+02  0.47000000000E+01 0.  1.
         11    1    6    6    0    0 -0.15045016197E+02 -0.14251838020E+02  0.23037717214E+02  0.30987155625E+02  0.00000000000E+00 0. -1.
        -12    1    6    6    0    0 -0.22714298169E+02  0.75261132526E+02 -0.12949878725E+01  0.78624769660E+02  0.00000000000E+00 0.  1.
</event>
<event>
12    1  0.8633375E-002  0.2002012E+03  0.7818608E-02  0.1149673E+00
         21   -1    0    0  501  502  0.00000000000E+00  0.00000000000E+00  0.26537243173E+03  0.26537243173E+03  0.00000000000E+00 0. -1.
         21   -1    0    0  502  503 -0.00000000000E+00 -0.00000000000E+00 -0.16315887017E+03  0.16315887017E+03  0.00000000000E+00 0. -1.
         -6    2    1    2    0  503  0.52980301981E+02 -0.88213795615E+02  0.11045562567E+03  0.22865033700E+03  0.17173219044E+03 0.  0.
        -24    2    3    3    0    0  0.91640004564E+02 -0.81057003259E+02  0.12132765779E+03  0.18758839156E+03  0.74167889873E+02 0.  0.
          6    2    1    2  501    0 -0.52980301981E+02  0.88213795615E+02 -0.82420641078E+01  0.19988096490E+03  0.17116039955E+03 0.  0.
         24    2    5    5    0    0 -0.89378941363E+02  0.19544791816E+02 -0.96961073015E+01  0.12200608273E+03  0.80130366782E+02 0.  0.
          5    1    5    5  501    0  0.36398639382E+02  0.68669003800E+02  0.14540431937E+01  0.77874882172E+02  0.47000000000E+01 0. -1.
        -13    1    6    6    0    0 -0.30999438797E+02 -0.30955088494E+02  0.23962081276E+01  0.43873961786E+02  0.00000000000E+00 0.  1.
         14    1    6    6    0    0 -0.58379502566E+02  0.50499880310E+02 -0.12092315429E+02  0.78132120946E+02  0.00000000000E+00 0. -1.
         -5    1    3    3    0  503 -0.38659702584E+02 -0.71567923567E+01 -0.10872032126E+02  0.41061945439E+02  0.47000000000E+01 0.  1.
         13    1    4    4    0    0  0.67987541194E+02 -0.15716771009E+02  0.39310561682E+02  0.80091465889E+02  0.00000000000E+00 0. -1.
        -14    1    4    4    0    0  0.23652463370E+02 -0.65340232249E+02  0.82017096110E+02  0.10749692567E+03  0.00000000000E+00 0.  1.
</event>
<event>
12    1  0.8633375E-002  0.2069737E+03  0.7818608E-02  0.1144058E+00
         21   -1    0    0  501  502  0.00000000000E+00  0.00000000000E+00  0.98838922313E+03  0.98838922313E+03  0.00000000000E+00 0.  1.
         21   -1    0    0  502  503 -0.00000000000E+00 -0.00000000000E+00 -0.43986516358E+03  0.43986516358E+03  0.00000000000E+00 0. -1.
         -6    2    1    2    0  503 -0.11423574833E+03 -0.16167234159E+02 -0.40381148179E+03  0.45376404112E+03  0.17183395047E+03 0.  0.
        -24    2    3    3    0    0 -0.16478730345E+02 -0.58431983623E+02 -0.21063186039E+03  0.23312134413E+03  0.79334325563E+02 0.  0.
          6    2    1    2  501    0  0.11423574833E+03  0.16167234159E+02  0.95233554134E+03  0.97449034559E+03  0.17139797164E+03 0.  0.
         24    2    5    5    0    0  0.14330888363E+03  0.10615926915E+02  0.63913340074E+03  0.65985764690E+03  0.79186338416E+02 0.  0.
          5    1    5    5  501    0 -0.29073135300E+02  0.55513072435E+01  0.31320214060E+03  0.31463269869E+03  0.47000000000E+01 0. -1.
        -13    1    6    6    0    0  0.42323371998E+02 -0.31712565952E+02  0.16609767991E+03  0.17431406693E+03  0.00000000000E+00 0.  1.
         14    1    6    6    0    0  0.10098551164E+03  0.42328492867E+02  0.47303572083E+03  0.48554357997E+03  0.00000000000E+00 0. -1.
         -5    1    3    3    0  503 -0.97757017989E+02  0.42264749464E+02 -0.19317962140E+03  0.22064269699E+03  0.47000000000E+01 0.  1.
         13    1    4    4    0    0 -0.41231842846E+02 -0.47535584940E+02 -0.18666004831E+03  0.19698139591E+03  0.00000000000E+00 0. -1.
        -14    1    4    4    0    0  0.24753112501E+02 -0.10896398683E+02 -0.23971812085E+02  0.36139948221E+02  0.00000000000E+00 0.  1.
</event>
<event>
12    1  0.8633375E-002  0.2814064E+03  0.7818608E-02  0.1094942E+00
         21   -1    0    0  503  502  0.00000000000E+00  0.00000000000E+00  0.44876016975E+03  0.44876016975E+03  0.00000000000E+00 0. -1.
         21   -1    0    0  501  503 -0.00000000000E+00 -0.00000000000E+00 -0.18575918547E+03  0.18575918547E+03  0.00000000000E+00 0.  1.
          6    2    1    2  501    0  0.77615297102E+01  0.22251807378E+03  0.20277581093E+03  0.34674060726E+03  0.17186181868E+03 0.  0.
         24    2    3    3    0    0  0.66585929382E+02  0.13184209430E+03  0.92842696913E+02  0.19250110904E+03  0.81368831824E+02 0.  0.
         -6    2    1    2    0  502 -0.77615297102E+01 -0.22251807378E+03  0.60225173354E+02  0.28777874797E+03  0.17209009784E+03 0.  0.
        -24    2    5    5    0    0  0.87740721472E+01 -0.35394473525E+02  0.46354028524E+02  0.99355908163E+02  0.79957159957E+02 0.  0.
          5    1    3    3  501    0 -0.58824399672E+02  0.90675979483E+02  0.10993311401E+03  0.15423949821E+03  0.47000000000E+01 0. -1.
        -13    1    4    4    0    0 -0.28641928339E+01  0.35577055282E+02 -0.81940948434E+01  0.36620672488E+02  0.00000000000E+00 0.  1.
         14    1    4    4    0    0  0.69450122216E+02  0.96265039017E+02  0.10103679176E+03  0.15588043656E+03  0.00000000000E+00 0. -1.
         -5    1    5    5    0  502 -0.16535601857E+02 -0.18712360026E+03  0.13871144830E+02  0.18842283981E+03  0.47000000000E+01 0.  1.
         11    1    6    6    0    0 -0.32856329301E+02 -0.31864169998E+02  0.19925160980E+02  0.49918691338E+02  0.00000000000E+00 0. -1.
        -12    1    6    6    0    0  0.41630401448E+02 -0.35303035262E+01  0.26428867544E+02  0.49437216825E+02  0.00000000000E+00 0.  1.
</event>
<event>
12    1  0.8633375E-002  0.2408992E+03  0.7818608E-02  0.1119383E+00
         21   -1    0    0  503  502  0.00000000000E+00  0.00000000000E+00  0.22560066933E+03  0.22560066933E+03  0.00000000000E+00 0. -1.
         21   -1    0    0  501  503 -0.00000000000E+00 -0.00000000000E+00 -0.26088516444E+03  0.26088516444E+03  0.00000000000E+00 0. -1.
          6    2    1    2  501    0  0.16299205143E+03  0.43501146472E+02  0.15579099530E+02  0.24027544937E+03  0.17038434392E+03 0.  0.
         24    2    3    3    0    0  0.16837059303E+02  0.39221986245E+02  0.21569246684E+02  0.93859723436E+02  0.80762395395E+02 0.  0.
         -6    2    1    2    0  502 -0.16299205143E+03 -0.43501146472E+02 -0.50863594639E+02  0.24621038440E+03  0.17197002516E+03 0.  0.
        -24    2    5    5    0    0 -0.17700434950E+03 -0.44273733596E+02 -0.78883712602E+02  0.21452192596E+03  0.80661721868E+02 0.  0.
          5    1    3    3  501    0  0.14615499213E+03  0.42791602269E+01 -0.59901471542E+01  0.14641572593E+03  0.47000000000E+01 0. -1.
        -11    1    4    4    0    0  0.79388893653E+01  0.31347170753E+02 -0.28068534624E+02  0.42819548275E+02  0.00000000000E+00 0.  1.
         12    1    4    4    0    0  0.88981699374E+01  0.78748154917E+01  0.49637781308E+02  0.51040175160E+02  0.00000000000E+00 0. -1.
         -5    1    5    5    0  502  0.14012298066E+02  0.77258712447E+00  0.28020117963E+02  0.31688458444E+02  0.47000000000E+01 0.  1.
         13    1    6    6    0    0 -0.33916339158E+02 -0.45064564440E+02 -0.22427297339E+02  0.60696924930E+02  0.00000000000E+00 0. -1.
        -14    1    6    6    0    0 -0.14308801034E+03  0.79083084409E+00 -0.56456415263E+02  0.15382500103E+03  0.00000000000E+00 0.  1.
</event>
<event>
12    1  0.8633375E-002  0.1808583E+03  0.7818608E-02  0.1167489E+00
         21   -1    0    0  501  502  0.00000000000E+00  0.00000000000E+00  0.45909072766E+03  0.45909072766E+03  0.00000000000E+00 0. -1.
         21   -1    0    0  502  503 -0.00000000000E+00 -0.00000000000E+00 -0.59106689651E+03  0.59106689651E+03  0.00000000000E+00 0. -1.
         -6    2    1    2    0  503 -0.41713940323E+02  0.27720166612E+02 -0.55884422037E+03  0.58738114039E+03  0.17378515756E+03 0.  0.
        -24    2    3    3    0    0 -0.79319897492E+02  0.36365781336E+02 -0.26571905302E+03  0.29168973300E+03  0.82838209839E+02 0.  0.
          6    2    1    2  501    0  0.41713940323E+02 -0.27720166612E+02  0.42686805152E+03  0.46277648378E+03  0.17157295845E+03 0.  0.
         24    2    5    5    0    0 -0.15267964989E+02 -0.12246058366E+02  0.94259334695E+02  0.12493475446E+03  0.79629102680E+02 0.  0.
          5    1    5    5  501    0  0.56981905311E+02 -0.15474108246E+02  0.33260871683E+03  0.33784172932E+03  0.47000000000E+01 0. -1.
        -11    1    6    6    0    0 -0.27162065732E+02  0.27302396354E+02  0.59898869276E+02  0.71211468192E+02  0.00000000000E+00 0.  1.
         12    1    6    6    0    0  0.11894100744E+02 -0.39548454720E+02  0.34360465419E+02  0.53723286265E+02  0.00000000000E+00 0. -1.
         -5    1    3    3    0  503  0.37605957169E+02 -0.86456147233E+01 -0.29312516735E+03  0.29569140739E+03  0.47000000000E+01 0.  1.
         11    1    4    4    0    0  0.33972016361E+01  0.56871999211E+01 -0.12777409400E+03  0.12794570848E+03  0.00000000000E+00 0. -1.
        -12    1    4    4    0    0 -0.82717099128E+02  0.30678581415E+02 -0.13794495902E+03  0.16374402452E+03  0.00000000000E+00 0.  1.
</event>
<event>
12    1  0.8633375E-002  0.2108278E+03  0.7818608E-02  0.1142301E+00
         21   -1    0    0  501  502  0.00000000000E+00  0.00000000000E+00  0.34320197848E+03  0.34320197848E+03  0.00000000000E+00 0. -1.
         21   -1    0    0  502  503 -0.00000000000E+00 -0.00000000000E+00 -0.17963947038E+03  0.17963947038E+03  0.00000000000E+00 0. -1.
         -6    2    1    2    0  503 -0.39850434311E+01  0.12047145985E+03  0.22460696392E+03  0.30335385087E+03  0.16445673409E+03 0.  0.
        -24    2    3    3    0    0  0.16193682431E+02  0.14322771483E+03  0.21575181296E+03  0.27132992518E+03  0.79338955480E+02 0.  0.
          6    2    1    2  501    0  0.39850434311E+01 -0.12047145985E+03 -0.61044455817E+02  0.21948759799E+03  0.17297146261E+03 0.  0.
         24    2    5    5    0    0  0.28749281567E+01  0.13454049243E+01 -0.56298404129E+02  0.97482696838E+02  0.79519120650E+02 0.  0.
          5    1    5    5  501    0  0.11101152744E+01 -0.12181686477E+03 -0.47460516872E+01  0.12200490115E+03  0.47000000000E+01 0. -1.
        -11    1    6    6    0    0  0.11864490277E+02 -0.41289371223E+01  0.18271613969E+02  0.22173545687E+02  0.00000000000E+00 0.  1.
         12    1    6    6    0    0 -0.89895621207E+01  0.54743420466E+01 -0.74570018098E+02  0.75309151151E+02  0.00000000000E+00 0. -1.
         -5    1    3    3    0  503 -0.20178725862E+02 -0.22756254982E+02  0.88551509640E+01  0.32023925693E+02  0.47000000000E+01 0.  1.
         13    1    4    4    0    0 -0.19002485865E+02  0.28783388059E+02  0.95914530570E+02  0.10192730288E+03  0.00000000000E+00 0. -1.
        -14    1    4    4    0    0  0.35196168296E+02  0.11444432677E+03  0.11983728239E+03  0.16940262230E+03  0.00000000000E+00 0.  1.
</event>
<event>
12    1  0.8633375E-002  0.1847109E+03  0.7818608E-02  0.1163415E+00
         21   -1    0    0  501  502  0.00000000000E+00  0.00000000000E+00  0.17530906032E+03  0.17530906032E+03  0.00000000000E+00 0. -1.
         21   -1    0    0  502  503 -0.00000000000E+00 -0.00000000000E+00 -0.22785087743E+03  0.22785087743E+03  0.00000000000E+00 0. -1.
         -6    2    1    2    0  503 -0.43520896782E+02 -0.48058508655E+02 -0.10372724733E+03  0.21148820204E+03  0.17252312614E+03 0.  0.
        -24    2    3    3    0    0  0.35991860614E+01 -0.22611898523E+02 -0.12887935876E+03  0.15213712047E+03  0.77534264788E+02 0.  0.
          6    2    1    2  501    0  0.43520896782E+02  0.48058508655E+02  0.51185430230E+02  0.19167173571E+03  0.17295784830E+03 0.  0.
         24    2    5    5    0    0  0.57836432863E+02 -0.45884463592E+01  0.83326988386E+02  0.12817523024E+03  0.78226567404E+02 0.  0.
          5    1    5    5  501    0 -0.14315536080E+02  0.52646955014E+02 -0.32141558156E+02  0.63496505465E+02  0.47000000000E+01 0. -1.
        -11    1    6    6    0    0 -0.44584223022E+01 -0.28609835136E+02  0.14867852303E+02  0.32549243125E+02  0.00000000000E+00 0.  1.
         12    1    6    6    0    0  0.62294855165E+02  0.24021388777E+02  0.68459136083E+02  0.95625987117E+02  0.00000000000E+00 0. -1.
         -5    1    3    3    0  503 -0.47120082843E+02 -0.25446610132E+02  0.25152111428E+02  0.59351081571E+02  0.47000000000E+01 0.  1.
         11    1    4    4    0    0 -0.34348073035E+02 -0.22777817613E+02 -0.51563757398E+02  0.66010909502E+02  0.00000000000E+00 0. -1.
        -12    1    4    4    0    0  0.37947259096E+02  0.16591908968E+00 -0.77315601364E+02  0.86126210971E+02  0.00000000000E+00 0.  1.
</event>
<event>
12    1  0.8633375E-002  0.1994889E+03  0.7818608E-02  0.1150391E+00
         21   -1    0    0  503  502  0.00000000000E+00  0.00000000000E+00  0.22104576867E+03  0.22104576867E+03  0.00000000000E+00 0.  1.
         21   -1    0    0  501  503 -0.00000000000E+00 -0.00000000000E+00 -0.20762129011E+03  0.20762129011E+03  0.00000000000E+00 0. -1.
          6    2    1    2  501    0 -0.50014063021E+02 -0.86234183894E+02 -0.72710241814E+02  0.21232659810E+03  0.17279486111E+03 0.  0.
         24    2    3    3    0    0 -0.32975916659E+02 -0.67098554589E+02  0.24596461618E+02  0.11159350883E+03  0.79110670472E+02 0.  0.
         -6    2    1    2    0  502  0.50014063021E+02  0.86234183894E+02  0.86134720379E+02  0.21634046068E+03  0.17159913724E+03 0.  0.
        -24    2    5    5    0    0  0.53090070819E+02 -0.99772411872E+01  0.21845471948E+02  0.10049013654E+03  0.81871496481E+02 0.  0.
          5    1    3    3  501    0 -0.17038146362E+02 -0.19135629305E+02 -0.97306703432E+02  0.10073308927E+03  0.47000000000E+01 0. -1.
        -11    1    4    4    0    0 -0.43053618362E+02 -0.12927591468E+02  0.33122206891E+02  0.55837418140E+02  0.00000000000E+00 0.  1.
         12    1    4    4    0    0  0.10077701703E+02 -0.54170963120E+02 -0.85257452731E+01  0.55756090694E+02  0.00000000000E+00 0. -1.
         -5    1    5    5    0  502 -0.30760077982E+01  0.96211425081E+02  0.64289248431E+02  0.11585032414E+03  0.47000000000E+01 0.  1.
         13    1    6    6    0    0  0.25280373210E+02  0.39669037598E+01 -0.30367531218E+02  0.39711718011E+02  0.00000000000E+00 0. -1.
        -14    1    6    6    0    0  0.27809697608E+02 -0.13944144947E+02  0.52213003166E+02  0.60778418530E+02  0.00000000000E+00 0.  1.
</event>
<event>
12    1  0.8633375E-002  0.1848614E+03  0.7818608E-02  0.1163440E+00
         21   -1    0    0  503  502  0.00000000000E+00  0.00000000000E+00  0.34889530046E+02  0.34889530046E+02  0.00000000000E+00 0.  1.
         21   -1    0    0  501  503 -0.00000000000E+00 -0.00000000000E+00 -0.10142029193E+04  0.10142029193E+04  0.00000000000E+00 0.  1.
          6    2    1    2  501    0  0.59656907921E+02  0.32693410184E+02 -0.59602746298E+03  0.62403723963E+03  0.17188930766E+03 0.  0.
         24    2    3    3    0    0  0.53912569044E+02  0.82320051161E+02 -0.50187191051E+03  0.51734535154E+03  0.78023344430E+02 0.  0.
         -6    2    1    2    0  502 -0.59656907921E+02 -0.32693410184E+02 -0.38328592631E+03  0.42505520975E+03  0.17069277752E+03 0.  0.
        -24    2    5    5    0    0 -0.47728092897E+02  0.24700701358E+02 -0.10901192395E+03  0.14454727931E+03  0.78244622143E+02 0.  0.
          5    1    3    3  501    0  0.57443388761E+01 -0.49626640977E+02 -0.94155552461E+02  0.10669188808E+03  0.47000000000E+01 0. -1.
        -11    1    4    4    0    0 -0.62454704539E+01  0.58533014857E+02 -0.28571658385E+03  0.29171747637E+03  0.00000000000E+00 0.  1.
         12    1    4    4    0    0  0.60158039498E+02  0.23787036303E+02 -0.21615532666E+03  0.22562787518E+03  0.00000000000E+00 0. -1.
         -5    1    5    5    0  502 -0.11928815024E+02 -0.57394111542E+02 -0.27427400236E+03  0.28050793044E+03  0.47000000000E+01 0.  1.
         13    1    6    6    0    0 -0.55775507821E+02  0.29890881124E+02 -0.11637552309E+03  0.13246748439E+03  0.00000000000E+00 0. -1.
        -14    1    6    6    0    0  0.80474149246E+01 -0.51901797655E+01  0.73635991407E+01  0.12079794918E+02  0.00000000000E+00 0.  1.
</event>
<event>
12    1  0.8633375E-002  0.1856924E+03  0.7818608E-02  0.1163011E+00
         21   -1    0    0  501  502  0.00000000000E+00  0.00000000000E+00  0.40786759163E+02  0.40786759163E+02  0.00000000000E+00 0. -1.
         21   -1    0    0  502  503 -0.00000000000E+00 -0.00000000000E+00 -0.20794985068E+04  0.20794985068E+04  0.00000000000E+00 0. -1.
         -6    2    1    2    0  503  0.27698305182E+02  0.59645569221E+02 -0.18370475138E+04  0.18461500481E+04  0.17088487977E+03 0.  0.
        -24    2    3    3    0    0 -0.32549233265E+00  0.10098216360E+03 -0.14877603428E+04  0.14932794414E+04  0.79089500897E+02 0.  0.
          6    2    1    2  501    0 -0.27698305182E+02 -0.59645569221E+02 -0.20166423386E+03  0.27413521787E+03  0.17365731895E+03 0.  0.
         24    2    5    5    0    0  0.52352601696E+02 -0.41662781783E+02 -0.10052485428E+03  0.14381717447E+03  0.78112425730E+02 0.  0.
          5    1    5    5  501    0 -0.80050906878E+02 -0.17982787439E+02 -0.10113937958E+03  0.13031804341E+03  0.47000000000E+01 0. -1.
        -11    1    6    6    0    0  0.24134914905E+02  0.22061440626E+02 -0.38597198191E+02  0.50586015737E+02  0.00000000000E+00 0.  1.
         12    1    6    6    0    0  0.28217686791E+02 -0.63724222408E+02 -0.61927656087E+02  0.93231158728E+02  0.00000000000E+00 0. -1.
         -5    1    3    3    0  503  0.28023797515E+02 -0.41336594381E+02 -0.34928717099E+03  0.35287060671E+03  0.47000000000E+01 0.  1.
         13    1    4    4    0    0  0.89735054135E+00  0.62077430454E+02 -0.13022740875E+04  0.13037531253E+04  0.00000000000E+00 0. -1.
        -14    1    4    4    0    0 -0.12228428740E+01  0.38904733148E+02 -0.18548625533E+03  0.18952631618E+03  0.00000000000E+00 0.  1.
</event>
<event>
12    1  0.8633375E-002  0.3261032E+03  0.7818608E-02  0.1073157E+00
         21   -1    0    0  503  502  0.00000000000E+00  0.00000000000E+00  0.12523228674E+03  0.12523228674E+03  0.00000000000E+00 0.  1.
         21   -1    0    0  501  503 -0.00000000000E+00 -0.00000000000E+00 -0.85774529329E+03  0.85774529329E+03  0.00000000000E+00 0. -1.
          6    2    1    2  501    0 -0.24580283680E+03  0.12727521484E+03 -0.30245963013E+03  0.44477533449E+03  0.17241013724E+03 0.  0.
         24    2    3    3    0    0 -0.60073502589E+02  0.69916484359E+02 -0.16870151596E+03  0.20876954504E+03  0.81408727734E+02 0.  0.
         -6    2    1    2    0  502  0.24580283680E+03 -0.12727521484E+03 -0.43005337642E+03  0.53820224555E+03  0.16762379202E+03 0.  0.
        -24    2    5    5    0    0  0.21171024954E+03 -0.49302998999E+02 -0.35812953387E+03  0.42668049845E+03  0.80916433772E+02 0.  0.
          5    1    3    3  501    0 -0.18572933421E+03  0.57358730480E+02 -0.13375811417E+03  0.23600578945E+03  0.47000000000E+01 0. -1.
        -13    1    4    4    0    0 -0.53876800473E+02  0.27840417167E+02 -0.38585883547E+02  0.71879544144E+02  0.00000000000E+00 0.  1.
         14    1    4    4    0    0 -0.61967021156E+01  0.42076067192E+02 -0.13011563241E+03  0.13689000090E+03  0.00000000000E+00 0. -1.
         -5    1    5    5    0  502  0.34092587254E+02 -0.77972215840E+02 -0.71923842549E+02  0.11152174710E+03  0.47000000000E+01 0.  1.
         13    1    6    6    0    0  0.24410555658E+01 -0.20282400038E+02 -0.37478417725E+02  0.42684497171E+02  0.00000000000E+00 0. -1.
        -14    1    6    6    0    0  0.20926919398E+03 -0.29020598961E+02 -0.32065111615E+03  0.38399600128E+03  0.00000000000E+00 0.  1.
</event>
<event>
12    1  0.8633375E-002  0.1970246E+03  0.7818608E-02  0.1152418E+00
         21   -1    0    0  501  502  0.00000000000E+00  0.00000000000E+00  0.11378935795E+03  0.11378935795E+03  0.00000000000E+00 0. -1.
         21   -1    0    0  502  503 -0.00000000000E+00 -0.00000000000E+00 -0.34070763738E+03  0.34070763738E+03  0.00000000000E+00 0. -1.
         -6    2    1    2    0  503  0.95148239426E+02 -0.43133466451E+01 -0.12409535453E+03  0.23284835809E+03  0.17247292084E+03 0.  0.
        -24    2    3    3    0    0  0.12636926877E+03  0.25967966335E+02 -0.82897219374E+02  0.17275603804E+03  0.79556095522E+02 0.  0.
          6    2    1    2  501    0 -0.95148239426E+02  0.43133466451E+01 -0.10282292490E+03  0.22164863724E+03  0.17170839257E+03 0.  0.
         24    2    5    5    0    0 -0.53746644246E+02 -0.10606271233E+02 -0.13559715451E+03  0.16657661887E+03  0.79749525929E+02 0.  0.
          5    1    5    5  501    0 -0.41401595180E+02  0.14919617878E+02  0.32774229606E+02  0.55072018370E+02  0.47000000000E+01 0. -1.
        -13    1    6    6    0    0 -0.24239061257E+02  0.33749862777E+02 -0.76164259164E+02  0.86761625746E+02  0.00000000000E+00 0.  1.
         14    1    6    6    0    0 -0.29507582989E+02 -0.44356134010E+02 -0.59432895343E+02  0.79814993122E+02  0.00000000000E+00 0. -1.
         -5    1    3    3    0  503 -0.31221029339E+02 -0.30281312980E+02 -0.41198135157E+02  0.60092320051E+02  0.47000000000E+01 0.  1.
         13    1    4    4    0    0  0.16201262344E+02  0.18471224967E+02  0.11829833751E+02  0.27269250446E+02  0.00000000000E+00 0. -1.
        -14    1    4    4    0    0  0.11016800642E+03  0.74967413679E+01 -0.94727053125E+02  0.14548678759E+03  0.00000000000E+00 0.  1.
</event>
<event>
12    1  0.8633375E-002  0.2237136E+03  0.7818608E-02  0.1131163E+00
         21   -1    0    0  503  502  0.00000000000E+00  0.00000000000E+00  0.44891294097E+03  0.44891294097E+03  0.00000000000E+00 0. -1.
         21   -1    0    0  501  503 -0.00000000000E+00 -0.00000000000E+00 -0.13663432063E+03  0.13663432063E+03  0.00000000000E+00 0. -1.
          6    2    1    2  501    0  0.13943420977E+03 -0.31056115775E+02  0.30379214393E+02  0.22566528031E+03  0.17203354583E+03 0.  0.
         24    2    3    3    0    0  0.35086211565E+02 -0.68583150276E+02  0.28106810249E+02  0.11465160157E+03  0.80126813344E+02 0.  0.
         -6    2    1    2    0  502 -0.13943420977E+03  0.31056115775E+02  0.28189940594E+03  0.35988198128E+03  0.17216673373E+03 0.  0.
        -24    2    5    5    0    0 -0.39700962175E+02  0.18457331093E+02  0.40131546771E+02  0.98005602474E+02  0.77959717812E+02 0.  0.
          5    1    3    3  501    0  0.10434799820E+03  0.37527034501E+02  0.22724041440E+01  0.11101367874E+03  0.47000000000E+01 0. -1.
        -11    1    4    4    0    0  0.11083196027E+02 -0.84159955817E+01  0.45498534974E+02  0.47579227617E+02  0.00000000000E+00 0.  1.
         12    1    4    4    0    0  0.24003015538E+02 -0.60167154694E+02 -0.17391724725E+02  0.67072373954E+02  0.00000000000E+00 0. -1.
         -5    1    5    5    0  502 -0.99733247591E+02  0.12598784682E+02  0.24176785917E+03  0.26187637881E+03  0.47000000000E+01 0.  1.
         13    1    6    6    0    0 -0.54278879472E+02  0.36673816139E+02  0.34357571947E+02  0.73970320379E+02  0.00000000000E+00 0. -1.
        -14    1    6    6    0    0  0.14577917296E+02 -0.18216485046E+02  0.57739748244E+01  0.24035282095E+02  0.00000000000E+00 0.  1.
</event>
<event>
12    1  0.8633375E-002  0.1817321E+03  0.7818608E-02  0.1166287E+00
         21   -1    0    0  503  502  0.00000000000E+00  0.00000000000E+00  0.67359511291E+03  0.67359511291E+03  0.00000000000E+00 0.  1.
         21   -1    0    0  501  503 -0.00000000000E+00 -0.00000000000E+00 -0.91757804418E+02  0.91757804418E+02  0.00000000000E+00 0.  1.
          6    2    1    2  501    0 -0.24512728259E+02  0.54180912345E+02  0.29001163016E+02  0.18341275712E+03  0.17106351717E+03 0.  0.
         24    2    3    3    0    0 -0.61643246905E+02 -0.11553503073E+02  0.11214032530E+02  0.10570715374E+03  0.84349715495E+02 0.  0.
         -6    2    1    2    0  502  0.24512728259E+02 -0.54180912345E+02  0.55283614548E+03  0.58194016021E+03  0.17172682146E+03 0.  0.
        -24    2    5    5    0    0  0.32854205259E+02 -0.86936374456E+02  0.26164304603E+03  0.28875419243E+03  0.79275267925E+02 0.  0.
          5    1    3    3  501    0  0.37130518646E+02  0.65734415418E+02  0.17787130486E+02  0.77705603377E+02  0.47000000000E+01 0. -1.
        -13    1    4    4    0    0  0.11873402224E+02 -0.25858334746E+02 -0.54721938054E+01  0.28975438931E+02  0.00000000000E+00 0.  1.
         14    1    4    4    0    0 -0.73516649129E+02  0.14304831673E+02  0.16686226335E+02  0.76731714810E+02  0.00000000000E+00 0. -1.
         -5    1    5    5    0  502 -0.83414769994E+01  0.32755462111E+02  0.29119309944E+03  0.29318596778E+03  0.47000000000E+01 0.  1.
         13    1    6    6    0    0  0.12192948787E+02 -0.15537234524E+02  0.34171928499E+01  0.20043723800E+02  0.00000000000E+00 0. -1.
        -14    1    6    6    0    0  0.20661256471E+02 -0.71399139932E+02  0.25822585318E+03  0.26871046863E+03  0.00000000000E+00 0.  1.
</event>
<event>
12    1  0.8633375E-002  0.2348373E+03  0.7818608E-02  0.1123642E+00
         21   -1    0    0  503  502  0.00000000000E+00  0.00000000000E+00  0.72011747889E+03  0.72011747889E+03  0.00000000000E+00 0.  1.
         21   -1    0    0  501  503 -0.00000000000E+00 -0.00000000000E+00 -0.12187957798E+03  0.12187957798E+03  0.00000000000E+00 0. -1.
          6    2    1    2  501    0  0.15979725100E+03 -0.18096169132E+02  0.41374428507E+02  0.23845414364E+03  0.17113124355E+03 0.  0.
         24    2    3    3    0    0  0.11058787092E+03  0.14778878468E+02  0.88706431367E+02  0.16252825651E+03  0.78092962252E+02 0.  0.
         -6    2    1    2    0  502 -0.15979725100E+03  0.18096169132E+02  0.55686347240E+03  0.60354291323E+03  0.16823937842E+03 0.  0.
        -24    2    5    5    0    0 -0.14233686127E+03 -0.36907544899E+02  0.33879951045E+03  0.37792319940E+03  0.80117959396E+02 0.  0.
          5    1    3    3  501    0  0.49209380080E+02 -0.32875047600E+02 -0.47332002860E+02  0.75925887135E+02  0.47000000000E+01 0. -1.
        -13    1    4    4    0    0  0.10841937233E+03  0.35826007064E+02  0.67872763732E+02  0.13283438988E+03  0.00000000000E+00 0.  1.
         14    1    4    4    0    0  0.21684985987E+01 -0.21047128596E+02  0.20833667635E+02  0.29693866630E+02  0.00000000000E+00 0. -1.
         -5    1    5    5    0  502 -0.17460389738E+02  0.55003714031E+02  0.21806396195E+03  0.22561971383E+03  0.47000000000E+01 0.  1.
         11    1    6    6    0    0 -0.66270054698E+02  0.14375254408E+02  0.89557622708E+02  0.11233403702E+03  0.00000000000E+00 0. -1.
        -12    1    6    6    0    0 -0.76066806568E+02 -0.51282799307E+02  0.24924188774E+03  0.26558916238E+03  0.00000000000E+00 0.  1.
</event>
<event>
12    1  0.8633375E-002  0.1856946E+03  0.7818608E-02  0.1162516E+00
         21   -1    0    0  503  502  0.00000000000E+00  0.00000000000E+00  0.74462083242E+02  0.74462083242E+02  0.00000000000E+00 0.  1.
         21   -1    0    0  501  503 -0.00000000000E+00 -0.00000000000E+00 -0.48580155379E+03  0.48580155379E+03  0.00000000000E+00 0.  1.
          6    2    1    2  501    0 -0.45162256889E+02 -0.52205670859E+02 -0.14375395701E+03  0.23483542491E+03  0.17238739838E+03 0.  0.
         24    2    3    3    0    0 -0.52973174910E+01 -0.86233477638E+02 -0.52634412753E+02  0.12961201320E+03  0.81022332242E+02 0.  0.
         -6    2    1    2    0  502  0.45162256889E+02  0.52205670859E+02 -0.26758551355E+03  0.32542821212E+03  0.17186172543E+03 0.  0.
        -24    2    5    5    0    0  0.59524019218E+02  0.96993276764E+02 -0.18533990011E+03  0.23056715167E+03  0.76547555528E+02 0.  0.
          5    1    3    3  501    0 -0.39864939398E+02  0.34027806779E+02 -0.91119544252E+02  0.10522341171E+03  0.47000000000E+01 0. -1.
        -13    1    4    4    0    0  0.12140197560E+02  0.66102335843E+01  0.92926753530E+01  0.16656332131E+02  0.00000000000E+00 0.  1.
         14    1    4    4    0    0 -0.17437515051E+02 -0.92843711223E+02 -0.61927088106E+02  0.11295568107E+03  0.00000000000E+00 0. -1.
         -5    1    5    5    0  502 -0.14361762329E+02 -0.44787605904E+02 -0.82245613437E+02  0.94861060449E+02  0.47000000000E+01 0.  1.
         11    1    6    6    0    0  0.58636921630E+02  0.34020448460E+02 -0.13050184772E+03  0.14705921171E+03  0.00000000000E+00 0. -1.
        -12    1    6    6    0    0  0.88709758853E+00  0.62972828304E+02 -0.54838052395E+02  0.83507939965E+02  0.00000000000E+00 0.  1.
</event>
<event>
12    1  0.8633375E-002  0.1809167E+03  0.7818608E-02  0.1167150E+00
         21   -1    0    0  503  502  0.00000000000E+00  0.00000000000E+00  0.54630517980E+03  0.54630517980E+03  0.00000000000E+00 0. -1.
         21   -1    0    0  501  503 -0.00000000000E+00 -0.00000000000E+00 -0.59657845454E+02  0.59657845454E+02  0.00000000000E+00 0.  1.
          6    2    1    2  501    0  0.53291286828E+02  0.37826940929E+01  0.23419896283E+03  0.29593918951E+03  0.17284842976E+03 0.  0.
         24    2    3    3    0    0  0.13268424196E+02 -0.58084981345E+02  0.10135011004E+03  0.14395120813E+03  0.83067378541E+02 0.  0.
         -6    2    1    2    0  502 -0.53291286828E+02 -0.37826940929E+01  0.25244837152E+03  0.31002383575E+03  0.17184390714E+03 0.  0.
        -24    2    5    5    0    0 -0.75189116679E+02 -0.35340419877E+02  0.24563672667E+03  0.27073142536E+03  0.77818729379E+02 0.  0.
          5    1    3    3  501    0  0.40022862631E+02  0.61867675438E+02  0.13284885279E+03  0.15198798138E+03  0.47000000000E+01 0. -1.
        -11    1    4    4    0    0 -0.27479016024E+02 -0.20711917891E+02  0.78002523630E+01  0.35283477738E+02  0.00000000000E+00 0.  1.
         12    1    4    4    0    0  0.40747440221E+02 -0.37373063454E+02  0.93549857678E+02  0.10866773039E+03  0.00000000000E+00 0. -1.
         -5    1    5    5    0  502  0.21897829851E+02  0.31557725784E+02  0.68116448507E+01  0.39292410392E+02  0.47000000000E+01 0.  1.
         13    1    6    6    0    0  0.81428042653E+01 -0.30808924063E+01  0.96364964842E+02  0.96757447302E+02  0.00000000000E+00 0. -1.
        -14    1    6    6    0    0 -0.83331920944E+02 -0.32259527470E+02  0.14927176183E+03  0.17397397806E+03  0.00000000000E+00 0.  1.
</event>
<event>
12    1  0.8633375E-002  0.1766054E+03  0.7818608E-02  0.1171451E+00
         21   -1    0    0  501  502  0.00000000000E+00  0.00000000000E+00  0.82576166798E+03  0.82576166798E+03  0.00000000000E+00 0.  1.
         21   -1    0    0  502  503 -0.00000000000E+00 -0.00000000000E+00 -0.53637066597E+02  0.53637066597E+02  0.00000000000E+00 0. -1.
         -6    2    1    2    0  503 -0.15737465327E+01  0.38971681433E+02  0.14583740670E+03  0.22903717471E+03  0.17224462131E+03 0.  0.
        -24    2    3    3    0    0  0.50231438060E+01 -0.38931262659E+02  0.40271598390E+02  0.97589019354E+02  0.79755500597E+02 0.  0.
          6    2    1    2  501    0  0.15737465327E+01 -0.38971681433E+02  0.62628719468E+03  0.65036155987E+03  0.17091881028E+03 0.  0.
         24    2    5    5    0    0  0.62050403289E+02  0.24175391858E+01  0.30807089233E+03  0.32378201569E+03  0.77916762897E+02 0.  0.
          5    1    5    5  501    0 -0.60476656756E+02 -0.41389220619E+02  0.31821630234E+03  0.32657954418E+03  0.47000000000E+01 0. -1.
        -11    1    6    6    0    0  0.29343347102E+02 -0.24578566144E+02  0.53965845240E+02  0.66162303355E+02  0.00000000000E+00 0.  1.
         12    1    6    6    0    0  0.32707056187E+02  0.26996105330E+02  0.25410504709E+03  0.25761971234E+03  0.00000000000E+00 0. -1.
         -5    1    3    3    0  503 -0.65968903387E+01  0.77902944092E+02  0.10556580831E+03  0.13144815535E+03  0.47000000000E+01 0.  1.
         11    1    4    4    0    0 -0.20568205843E+02 -0.45290426041E+02  0.34845485367E+00  0.49743293049E+02  0.00000000000E+00 0. -1.
        -12    1    4    4    0    0  0.25591349649E+02  0.63591633815E+01  0.39923143537E+02  0.47845726305E+02  0.00000000000E+00 0.  1.
</event>
<event>
12    1  0.8633375E-002  0.2393817E+03  0.7818608E-02  0.1120315E+00
         21   -1    0    0  501  502  0.00000000000E+00  0.00000000000E+00  0.36386465546E+03  0.36386465546E+03  0.00000000000E+00 0. -1.
         21   -1    0    0  502  503 -0.00000000000E+00 -0.00000000000E+00 -0.20813037080E+03  0.20813037080E+03  0.00000000000E+00 0. -1.
         -6    2    1    2    0  503  0.16313753709E+03 -0.26800251141E+02  0.21946323110E+03  0.32427551905E+03  0.17221612289E+03 0.  0.
        -24    2    3    3    0    0  0.99581118412E+02 -0.27577875796E+02  0.43492638023E+02  0.13711846553E+03  0.78948879983E+02 0.  0.
          6    2    1    2  501    0 -0.16313753709E+03  0.26800251141E+02 -0.63728946442E+02  0.24771950721E+03  0.17312269108E+03 0.  0.
         24    2    5    5    0    0 -0.84786210956E+02 -0.33165001665E+02 -0.80612762281E+02  0.14751015092E+03  0.83499750164E+02 0.  0.
          5    1    5    5  501    0 -0.78351326135E+02  0.59965252806E+02  0.16883815839E+02  0.10020935629E+03  0.47000000000E+01 0. -1.
        -13    1    6    6    0    0 -0.18224406741E+02 -0.11466605219E+02 -0.74138857620E+02  0.77202216584E+02  0.00000000000E+00 0.  1.
         14    1    6    6    0    0 -0.66561804215E+02 -0.21698396446E+02 -0.64739046615E+01  0.70307934334E+02  0.00000000000E+00 0. -1.
         -5    1    3    3    0  503  0.63556418679E+02  0.77762465486E+00  0.17597059307E+03  0.18715705352E+03  0.47000000000E+01 0.  1.
         11    1    4    4    0    0  0.87969429114E+02  0.41842580397E+01  0.51962668140E+02  0.10225579374E+03  0.00000000000E+00 0. -1.
        -12    1    4    4    0    0  0.11611689298E+02 -0.31762133836E+02 -0.84700301167E+01  0.34862671790E+02  0.00000000000E+00 0.  1.
</event>
<event>
12    1  0.8633375E-002  0.2225740E+03  0.7818608E-02  0.1132173E+00
         21   -1    0    0  503  502  0.00000000000E+00  0.00000000000E+00  0.95222914263E+02  0.95222914263E+02  0.00000000000E+00 0.  1.
         21   -1    0    0  501  503 -0.00000000000E+00 -0.00000000000E+00 -0.64997411284E+03  0.64997411284E+03  0.00000000000E+00 0.  1.
          6    2    1    2  501    0  0.13892871831E+03 -0.35226001815E+02 -0.44594159003E+03  0.49840054317E+03  0.17028546543E+03 0.  0.
         24    2    3    3    0    0  0.13161150586E+03 -0.54845853653E+02 -0.26034754465E+03  0.31156981800E+03  0.94685011209E+02 0.  0.
         -6    2    1    2    0  502 -0.13892871831E+03  0.35226001815E+02 -0.10880960854E+03  0.24679648393E+03  0.16889912254E+03 0.  0.
        -24    2    5    5    0    0 -0.11655602433E+03  0.32248012284E+02 -0.14417479362E+03  0.20458046596E+03  0.80259297487E+02 0.  0.
          5    1    3    3  501    0  0.73172124447E+01  0.19619851838E+02 -0.18559404538E+03  0.18683072517E+03  0.47000000000E+01 0. -1.
        -13    1    4    4    0    0  0.37683830381E+02 -0.58507282936E+02 -0.67095406263E+02  0.96669368315E+02  0.00000000000E+00 0.  1.
         14    1    4    4    0    0  0.93927675482E+02  0.36614292828E+01 -0.19325213839E+03  0.21490044969E+03  0.00000000000E+00 0. -1.
         -5    1    5    5    0  502 -0.22372693976E+02  0.29779895317E+01  0.35365185079E+02  0.42216017968E+02  0.47000000000E+01 0.  1.
         11    1    6    6    0    0  0.96788530219E+01  0.12619400451E+02 -0.77941109316E+01  0.17710946580E+02  0.00000000000E+00 0. -1.
        -12    1    6    6    0    0 -0.12623487735E+03  0.19628611833E+02 -0.13638068269E+03  0.18686951938E+03  0.00000000000E+00 0.  1.
</event>
<event>
12    1  0.8633375E-002  0.2035654E+03  0.7818608E-02  0.1147259E+00
         21   -1    0    0  501  502  0.00000000000E+00  0.00000000000E+00  0.75023570562E+03  0.75023570562E+03  0.00000000000E+00 0.  1.
         21   -1    0    0  502  503 -0.00000000000E+00 -0.00000000000E+00 -0.76201519024E+03  0.76201519024E+03  0.00000000000E+00 0.  1.
         -6    2    1    2    0  503  0.10705873603E+03 -0.85648117988E+00 -0.73442885879E+03  0.76211851204E+03  0.17313743455E+03 0.  0.
        -24    2    3    3    0    0  0.71408536324E+02 -0.20439773917E+02 -0.22898836627E+03  0.25502224546E+03  0.84164781088E+02 0.  0.
          6    2    1    2  501    0 -0.10705873603E+03  0.85648117988E+00  0.72264937417E+03  0.75013238382E+03  0.17033545942E+03 0.  0.
         24    2    5    5    0    0 -0.12486348137E+03 -0.39093700233E+02  0.60406481025E+03  0.62365149691E+03  0.83232735378E+02 0.  0.
          5    1    5    5  501    0  0.17804745336E+02  0.39950181413E+02  0.11858456392E+03  0.12648088691E+03  0.47000000000E+01 0. -1.
        -13    1    6    6    0    0 -0.39915152679E+02  0.23086978883E+02  0.25200505937E+03  0.25618894971E+03  0.00000000000E+00 0.  1.
         14    1    6    6    0    0 -0.84948328692E+02 -0.62180679116E+02  0.35205975088E+03  0.36746254720E+03  0.00000000000E+00 0. -1.
         -5    1    3    3    0  503  0.35650199711E+02  0.19583292738E+02 -0.50544049253E+03  0.50709626658E+03  0.47000000000E+01 0.  1.
         11    1    4    4    0    0  0.65551274504E+02  0.16447698853E+02 -0.99702716160E+02  0.12044969073E+03  0.00000000000E+00 0. -1.
        -12    1    4    4    0    0  0.58572618196E+01 -0.36887472770E+02 -0.12928565010E+03  0.13457255473E+03  0.00000000000E+00 0.  1.
</event>
<event>
12    1  0.8633375E-002  0.1825780E+03  0.7818608E-02  0.1165480E+00
         21   -1    0    0  501  502  0.00000000000E+00  0.00000000000E+00  0.34521918948E+03  0.34521918948E+03  0.00000000000E+00 0. -1.
         21   -1    0    0  502  503 -0.00000000000E+00 -0.00000000000E+00 -0.96231995245E+02  0.96231995245E+02  0.00000000000E+00 0. -1.
         -6    2    1    2    0  503 -0.40362070429E+02  0.44899260866E+02  0.12337965702E+03  0.21983893727E+03  0.17164375379E+03 0.  0.
        -24    2    3    3    0    0 -0.84978230223E+02  0.57345730609E+02  0.10947895526E+03  0.17125050414E+03  0.82651443381E+02 0.  0.
          6    2    1    2  501    0  0.40362070429E+02 -0.44899260866E+02  0.12560753721E+03  0.22161224746E+03  0.17230697741E+03 0.  0.
         24    2    5    5    0    0 -0.19290687403E+02 -0.38384917343E+02  0.10251803777E+02  0.91497208265E+02  0.80131811034E+02 0.  0.
          5    1    5    5  501    0  0.59652757832E+02 -0.65143435223E+01  0.11535573343E+03  0.13011503919E+03  0.47000000000E+01 0. -1.
        -13    1    6    6    0    0  0.77500081719E+01  0.12579307236E+02 -0.21159024779E+02  0.25807090631E+02  0.00000000000E+00 0.  1.
         14    1    6    6    0    0 -0.27040695575E+02 -0.50964224580E+02  0.31410828556E+02  0.65690117634E+02  0.00000000000E+00 0. -1.
         -5    1    3    3    0  503  0.44616159794E+02 -0.12446469743E+02  0.13900701760E+02  0.48588433122E+02  0.47000000000E+01 0.  1.
         13    1    4    4    0    0 -0.78890382115E+00  0.17662273273E+02 -0.95962971220E+01  0.20116341239E+02  0.00000000000E+00 0. -1.
        -14    1    4    4    0    0 -0.84189326402E+02  0.39683457336E+02  0.11907525239E+03  0.15113416291E+03  0.00000000000E+00 0.  1.
</event>
<event>
12    1  0.8633375E-002  0.2108911E+03  0.7818608E-02  0.1141099E+00
         21   -1    0    0  503  502  0.00000000000E+00  0.00000000000E+00  0.56991732653E+03  0.56991732653E+03  0.00000000000E+00 0.  1.
         21   -1    0    0  501  503 -0.00000000000E+00 -0.00000000000E+00 -0.10342019436E+03  0.10342019436E+03  0.00000000000E+00 0. -1.
          6    2    1    2  501    0 -0.94663107217E+02 -0.75294903450E+02  0.65510650331E+02  0.22083185206E+03  0.17275599910E+03 0.  0.
         24    2    3    3    0    0 -0.10964391048E+02 -0.65503454799E+02  0.85493548687E+02  0.13409804215E+03  0.79134174541E+02 0.  0.
         -6    2    1    2    0  502  0.94663107217E+02  0.75294903450E+02  0.40098648183E+03  0.45250566883E+03  0.17129155074E+03 0.  0.
        -24    2    5    5    0    0  0.10381894845E+03  0.20580647289E+02  0.35868606654E+03  0.38258503961E+03  0.80707379498E+02 0.  0.
          5    1    3    3  501    0 -0.83698716169E+02 -0.97914486504E+01 -0.19982898356E+02  0.86733809912E+02  0.47000000000E+01 0. -1.
        -11    1    4    4    0    0 -0.61979666130E+01  0.16810189395E+02  0.29212803629E+02  0.34269303370E+02  0.00000000000E+00 0.  1.
         12    1    4    4    0    0 -0.47664244346E+01 -0.82313644195E+02  0.56280745058E+02  0.99828738782E+02  0.00000000000E+00 0. -1.
         -5    1    5    5    0  502 -0.91558412292E+01  0.54714256160E+02  0.42300415289E+02  0.69920629212E+02  0.47000000000E+01 0.  1.
         11    1    6    6    0    0  0.67692030973E+02  0.32243244800E+01  0.99921449732E+02  0.12073484767E+03  0.00000000000E+00 0. -1.
        -12    1    6    6    0    0  0.36126917473E+02  0.17356322809E+02  0.25876461681E+03  0.26185019194E+03  0.00000000000E+00 0.  1.
</event>
<event>
12    1  0.8633375E-002  0.1840151E+03  0.7818608E-02  0.1164540E+00
         21   -1    0    0  503  502  0.00000000000E+00  0.00000000000E+00  0.14451018182E+03  0.14451018182E+03  0.00000000000E+00 0. -1.
         21   -1    0    0  501  503 -0.00000000000E+00 -0.00000000000E+00 -0.36723174615E+03  0.36723174615E+03  0.00000000000E+00 0. -1.
          6    2    1    2  501    0 -0.60042665153E+02  0.20927421736E+02 -0.26750183805E+03  0.32468260304E+03  0.17268028474E+03 0.  0.
         24    2    3    3    0    0 -0.30023319688E+00 -0.48497303186E+01 -0.24073483990E+03  0.25416890271E+03  0.81393844608E+02 0.  0.
         -6    2    1    2    0  502  0.60042665153E+02 -0.20927421736E+02  0.44780273721E+02  0.18705932493E+03  0.17012595190E+03 0.  0.
        -24    2    5    5    0    0  0.92974232166E+02 -0.17880734334E+01  0.63792256029E+02  0.14423003320E+03  0.89919105278E+02 0.  0.
          5    1    3    3  501    0 -0.59742431957E+02  0.25777152055E+02 -0.26766998147E+02  0.70513700328E+02  0.47000000000E+01 0. -1.
        -11    1    4    4    0    0  0.34867605634E+02  0.47909402962E+01 -0.58095803550E+02  0.67925145725E+02  0.00000000000E+00 0.  1.
         12    1    4    4    0    0 -0.35167838831E+02 -0.96406706149E+01 -0.18263903635E+03  0.18624375699E+03  0.00000000000E+00 0. -1.
         -5    1    5    5    0  502 -0.32931567012E+02 -0.19139348302E+02 -0.19011982308E+02  0.42829291736E+02  0.47000000000E+01 0.  1.
         11    1    6    6    0    0  0.60665843098E+02  0.11416249216E+02 -0.10060576979E+02  0.62545107515E+02  0.00000000000E+00 0. -1.
        -12    1    6    6    0    0  0.32308389068E+02 -0.13204322650E+02  0.73852833007E+02  0.81684925684E+02  0.00000000000E+00 0.  1.
</event>
<event>
12    1  0.8633375E-002  0.2230045E+03  0.7818608E-02  0.1131965E+00
         21   -1    0    0  503  502  0.00000000000E+00  0.00000000000E+00  0.16179367187E+03  0.16179367187E+03  0.00000000000E+00 0.  1.
         21   -1    0    0  501  503 -0.00000000000E+00 -0.00000000000E+00 -0.37430579749E+03  0.37430579749E+03  0.00000000000E+00 0.  1.
          6    2    1    2  501    0 -0.11531740175E+03 -0.79144543446E+02  0.93162215640E+01  0.22155405385E+03  0.17157343876E+03 0.  0.
         24    2    3    3    0    0 -0.91847436103E+02  0.34730661122E+01  0.42399675825E+02  0.12939596336E+03  0.80607500372E+02 0.  0.
         -6    2    1    2    0  502  0.11531740175E+03  0.79144543446E+02 -0.22182834719E+03  0.31454541552E+03  0.17369237434E+03 0.  0.
        -24    2    5    5    0    0  0.43033698176E+02  0.11627275041E+02 -0.21344132600E+02  0.90939678488E+02  0.76337149695E+02 0.  0.
          5    1    3    3  501    0 -0.23469965649E+02 -0.82617609558E+02 -0.33083454261E+02  0.92158090488E+02  0.47000000000E+01 0. -1.
        -11    1    4    4    0    0 -0.68925342986E+02  0.78007440824E+01  0.66331502188E+02  0.95976156917E+02  0.00000000000E+00 0.  1.
         12    1    4    4    0    0 -0.22922093117E+02 -0.43276779702E+01 -0.23931826363E+02  0.33419806441E+02  0.00000000000E+00 0. -1.
         -5    1    5    5    0  502  0.72283703575E+02  0.67517268405E+02 -0.20048421458E+03  0.22360573703E+03  0.47000000000E+01 0.  1.
         11    1    6    6    0    0 -0.21179676015E+02  0.95973912810E+01 -0.35826689212E-01  0.23252739173E+02  0.00000000000E+00 0. -1.
        -12    1    6    6    0    0  0.64213374191E+02  0.20298837597E+01 -0.21308305911E+02  0.67686939315E+02  0.00000000000E+00 0.  1.
</event>
<event>
12    1  0.8633375E-002  0.2860828E+03  0.7818608E-02  0.1092415E+00
         21   -1    0    0  501  502  0.00000000000E+00  0.00000000000E+00  0.52485081731E+03  0.52485081731E+03  0.00000000000E+00 0.  1.
         21   -1    0    0  502  503 -0.00000000000E+00 -0.00000000000E+00 -0.29329759477E+03  0.29329759477E+03  0.00000000000E+00 0.  1.
         -6    2    1    2    0  503  0.37127729653E+02 -0.22559885647E+03 -0.16418059664E+03  0.32984634343E+03  0.17195938362E+03 0.  0.
        -24    2    3    3    0    0  0.68199431677E+02 -0.18464771441E+03 -0.71933173457E+02  0.22413861530E+03  0.79484567742E+02 0.  0.
          6    2    1    2  501    0 -0.37127729653E+02  0.22559885647E+03  0.39573381917E+03  0.48830206865E+03  0.17193121374E+03 0.  0.
         24    2    5    5    0    0 -0.14468091720E+02  0.24106620453E+03  0.37705973309E+03  0.45478327484E+03  0.79571000434E+02 0.  0.
          5    1    5    5  501    0 -0.22659637933E+02 -0.15467348063E+02  0.18674086087E+02  0.33518793811E+02  0.47000000000E+01 0. -1.
        -13    1    6    6    0    0 -0.26003332161E+02  0.43380299839E+02  0.12055614132E+03  0.13073563748E+03  0.00000000000E+00 0.  1.
         14    1    6    6    0    0  0.11535240441E+02  0.19768590470E+03  0.25650359177E+03  0.32404763736E+03  0.00000000000E+00 0. -1.
         -5    1    3    3    0  503 -0.31071702025E+02 -0.40951142062E+02 -0.92247423182E+02  0.10570772813E+03  0.47000000000E+01 0.  1.
         11    1    4    4    0    0  0.86825691773E+01 -0.30402370741E+02  0.17533585957E+02  0.36154084012E+02  0.00000000000E+00 0. -1.
        -12    1    4    4    0    0  0.59516862500E+02 -0.15424534367E+03 -0.89466759415E+02  0.18798453129E+03  0.00000000000E+00 0.  1.
</event>
<event>
12    1  0.8633375E-002  0.2076222E+03  0.7818608E-02  0.1143756E+00
         21   -1    0    0  501  502  0.00000000000E+00  0.00000000000E+00  0.38872559352E+02  0.38872559352E+02  0.00000000000E+00 0.  1.
         21   -1    0    0  502  503 -0.00000000000E+00 -0.00000000000E+00 -0.11675987759E+04  0.11675987759E+04  0.00000000000E+00 0. -1.
         -6    2    1    2    0  503 -0.90056834358E+02 -0.72516889427E+02 -0.70636963427E+03  0.73584188339E+03  0.17069353961E+03 0.  0.
        -24    2    3    3    0    0 -0.11314402115E+03 -0.39240680696E+02 -0.37068360725E+03  0.39768877754E+03  0.80053897794E+02 0.  0.
          6    2    1    2  501    0  0.90056834358E+02  0.72516889427E+02 -0.42235658232E+03  0.47062945190E+03  0.17244728384E+03 0.  0.
         24    2    5    5    0    0  0.29961226533E+01  0.60006978533E+02 -0.11986434567E+03  0.15557436366E+03  0.78905684473E+02 0.  0.
          5    1    5    5  501    0  0.87060711705E+02  0.12509910894E+02 -0.30249223665E+03  0.31505508824E+03  0.47000000000E+01 0. -1.
        -11    1    6    6    0    0 -0.29769116543E+02 -0.98029298478E+00 -0.32088245609E+02  0.43781466174E+02  0.00000000000E+00 0.  1.
         12    1    6    6    0    0  0.32765239196E+02  0.60987271518E+02 -0.87776100060E+02  0.11179289749E+03  0.00000000000E+00 0. -1.
         -5    1    3    3    0  503  0.23087186793E+02 -0.33276208731E+02 -0.33568602701E+03  0.33815310584E+03  0.47000000000E+01 0.  1.
         13    1    4    4    0    0 -0.95712133585E+02 -0.20645589015E+02 -0.17650212717E+03  0.20184165516E+03  0.00000000000E+00 0. -1.
        -14    1    4    4    0    0 -0.17431887567E+02 -0.18595091682E+02 -0.19418148008E+03  0.19584712238E+03  0.00000000000E+00 0.  1.
</event>
<event>
12    1  0.8633375E-002  0.2063949E+03  0.7818608E-02  0.1144489E+00
         21   -1    0    0  503  502  0.00000000000E+00  0.00000000000E+00  0.11091110869E+04  0.11091110869E+04  0.00000000000E+00 0.  1.
         21   -1    0    0  501  503 -0.00000000000E+00 -0.00000000000E+00 -0.61408169506E+02  0.61408169506E+02  0.00000000000E+00 0.  1.
          6    2    1    2  501    0 -0.10874704722E+03 -0.35194358588E+02  0.16555744505E+03  0.26459051292E+03  0.17185548802E+03 0.  0.
         24    2    3    3    0    0 -0.66615835161E+02 -0.77186901982E+01  0.18358803386E+03  0.21095150179E+03  0.79364489896E+02 0.  0.
         -6    2    1    2    0  502  0.10874704722E+03  0.35194358588E+02  0.88214547236E+03  0.90592874351E+03  0.17164408159E+03 0.  0.
        -24    2    5    5    0    0  0.12112671538E+03  0.40422028315E+02  0.47022272717E+03  0.49376006114E+03  0.79899707627E+02 0.  0.
          5    1    3    3  501    0 -0.42131212057E+02 -0.27475668390E+02 -0.18030588809E+02  0.53639011136E+02  0.47000000000E+01 0. -1.
        -13    1    4    4    0    0 -0.24912537139E+02  0.13026595335E+02  0.79111107443E+01  0.29204663428E+02  0.00000000000E+00 0.  1.
         14    1    4    4    0    0 -0.41703298022E+02 -0.20745285533E+02  0.17567692312E+03  0.18174683836E+03  0.00000000000E+00 0. -1.
         -5    1    5    5    0  502 -0.12379668162E+02 -0.52276697263E+01  0.41192274520E+03  0.41216868237E+03  0.47000000000E+01 0.  1.
         11    1    6    6    0    0 -0.39059121427E+01 -0.62502854264E+01  0.31870680540E+01  0.80299203208E+01  0.00000000000E+00 0. -1.
        -12    1    6    6    0    0  0.12503262752E+03  0.46672313741E+02  0.46703565911E+03  0.48573014082E+03  0.00000000000E+00 0.  1.
</event>
<event>
12    1  0.8633375E-002  0.2461476E+03  0.7818608E-02  0.1116551E+00
         21   -1    0    0  501  502  0.00000000000E+00  0.00000000000E+00  0.81122747322E+02  0.81122747322E+02  0.00000000000E+00 0.  1.
         21   -1    0    0  502  503 -0.00000000000E+00 -0.00000000000E+00 -0.78349554714E+03  0.78349554714E+03  0.00000000000E+00 0.  1.
         -6    2    1    2    0  503  0.16661973474E+03  0.25746153211E+02 -0.46495402238E+03  0.52609019931E+03  0.17934228301E+03 0.  0.
        -24    2    3    3    0    0  0.12229546036E+03  0.83925008919E+02 -0.28150544620E+03  0.32854301342E+03  0.81826699073E+02 0.  0.
          6    2    1    2  501    0 -0.16661973474E+03 -0.25746153211E+02 -0.23741877743E+03  0.33852809515E+03  0.17265165773E+03 0.  0.
         24    2    5    5    0    0 -0.16967471590E+03 -0.39299949873E+02 -0.25265671509E+03  0.31737808196E+03  0.80990344803E+02 0.  0.
          5    1    5    5  501    0  0.30549811599E+01  0.13553796662E+02  0.15237937657E+02  0.21150013189E+02  0.47000000000E+01 0. -1.
        -13    1    6    6    0    0 -0.78273855440E+02 -0.37877356896E+02 -0.64749756819E+02  0.10841596570E+03  0.00000000000E+00 0.  1.
         14    1    6    6    0    0 -0.91400860460E+02 -0.14225929772E+01 -0.18790695827E+03  0.20896211626E+03  0.00000000000E+00 0. -1.
         -5    1    3    3    0  503  0.44324274384E+02 -0.58178855708E+02 -0.18344857618E+03  0.19754718589E+03  0.47000000000E+01 0.  1.
         13    1    4    4    0    0  0.83475995381E+02  0.31837509840E+02 -0.92127433552E+02  0.12833289855E+03  0.00000000000E+00 0. -1.
        -14    1    4    4    0    0  0.38819464975E+02  0.52087499079E+02 -0.18937801265E+03  0.20021011487E+03  0.00000000000E+00 0.  1.
</event>
<event>
12    1  0.8633375E-002  0.2206769E+03  0.7818608E-02  0.1133527E+00
         21   -1    0    0  501  502  0.00000000000E+00  0.00000000000E+00  0.12963061042E+03  0.12963061042E+03  0.00000000000E+00 0. -1.
         21   -1    0    0  502  503 -0.00000000000E+00 -0.00000000000E+00 -0.38093210975E+03  0.38093210975E+03  0.00000000000E+00 0.  1.
         -6    2    1    2    0  503 -0.44700683881E+02 -0.12971159644E+03 -0.15950094879E+03  0.27228445622E+03  0.17284392683E+03 0.  0.
        -24    2    3    3    0    0 -0.69477787954E+02 -0.13078158361E+03 -0.75510502727E+02  0.18458306063E+03  0.80237675803E+02 0.  0.
          6    2    1    2  501    0  0.44700683881E+02  0.12971159644E+03 -0.91800550539E+02  0.23827826395E+03  0.17183113979E+03 0.  0.
         24    2    5    5    0    0  0.76012338523E+01  0.34620904118E+02 -0.10113114806E+03  0.13567339560E+03  0.83206823084E+02 0.  0.
          5    1    5    5  501    0  0.37099450029E+02  0.95090692322E+02  0.93305975208E+01  0.10260486835E+03  0.47000000000E+01 0. -1.
        -13    1    6    6    0    0 -0.16726442689E+02  0.55450791312E+02 -0.71763722726E+02  0.92220366740E+02  0.00000000000E+00 0.  1.
         14    1    6    6    0    0  0.24327676542E+02 -0.20829887193E+02 -0.29367425333E+02  0.43453028860E+02  0.00000000000E+00 0. -1.
         -5    1    3    3    0  503  0.24777104073E+02  0.10699871670E+01 -0.83990446068E+02  0.87701395596E+02  0.47000000000E+01 0.  1.
         13    1    4    4    0    0 -0.11810504417E+01 -0.72974678013E+02 -0.99519218023E+01  0.73659617558E+02  0.00000000000E+00 0. -1.
        -14    1    4    4    0    0 -0.68296737512E+02 -0.57806905594E+02 -0.65558580924E+02  0.11092344307E+03  0.00000000000E+00 0.  1.
</event>
<event>
12    1  0.8633375E-002  0.2647644E+03  0.7818608E-02  0.1104424E+00
         21   -1    0    0  503  502  0.00000000000E+00  0.00000000000E+00  0.71770781616E+03  0.71770781616E+03  0.00000000000E+00 0.  1.
         21   -1    0    0  501  503 -0.00000000000E+00 -0.00000000000E+00 -0.16635164266E+03  0.16635164266E+03  0.00000000000E+00 0. -1.
          6    2    1    2  501    0  0.27031500667E+02 -0.19922093093E+03 -0.86851662217E+01  0.26490682369E+03  0.17228032904E+03 0.  0.
         24    2    3    3    0    0  0.66016886233E+02 -0.13240537750E+03 -0.52241319582E+02  0.17600571591E+03  0.79746117795E+02 0.  0.
         -6    2    1    2    0  502 -0.27031500667E+02  0.19922093093E+03  0.56004133973E+03  0.61915263512E+03  0.17112569074E+03 0.  0.
        -24    2    5    5    0    0  0.45348173027E+02  0.14798567855E+03  0.34092597836E+03  0.38272611411E+03  0.79325518284E+02 0.  0.
          5    1    3    3  501    0 -0.38985385566E+02 -0.66815553431E+02  0.43556153360E+02  0.88901107775E+02  0.47000000000E+01 0. -1.
        -11    1    4    4    0    0 -0.32475796534E+01 -0.11127600226E+02  0.16640354107E+02  0.20279833461E+02  0.00000000000E+00 0.  1.
         12    1    4    4    0    0  0.69264465887E+02 -0.12127777728E+03 -0.68881673689E+02  0.15572588245E+03  0.00000000000E+00 0. -1.
         -5    1    5    5    0  502 -0.72379673694E+02  0.51235252383E+02  0.21911536137E+03  0.23642652101E+03  0.47000000000E+01 0.  1.
         11    1    6    6    0    0  0.28454537131E+02  0.37598616123E+01  0.54914517716E+02  0.61962904215E+02  0.00000000000E+00 0. -1.
        -12    1    6    6    0    0  0.16893635896E+02  0.14422581694E+03  0.28601146064E+03  0.32076320990E+03  0.00000000000E+00 0.  1.
</event>
<event>
12    1  0.8633375E-002  0.1979305E+03  0.7818608E-02  0.1151898E+00
         21   -1    0    0  503  502  0.00000000000E+00  0.00000000000E+00  0.55494608160E+03  0.55494608160E+03  0.00000000000E+00 0. -1.
         21   -1    0    0  501  503 -0.00000000000E+00 -0.00000000000E+00 -0.72266183508E+02  0.72266183508E+02  0.00000000000E+00 0. -1.
          6    2    1    2  501    0 -0.68754311811E+02 -0.71743388653E+02  0.18386222609E+03  0.26878728726E+03  0.16901780498E+03 0.  0.
         24    2    3    3    0    0 -0.88941086074E+01 -0.59584976495E+02  0.35768701085E+02  0.10852234080E+03  0.82874748170E+02 0.  0.
         -6    2    1    2    0  502  0.68754311811E+02  0.71743388653E+02  0.29881767200E+03  0.35842497785E+03  0.17117883759E+03 0.  0.
        -24    2    5    5    0    0  0.59249503036E+02  0.10612645656E+03  0.16672168813E+03  0.22151633786E+03  0.80622814720E+02 0.  0.
          5    1    3    3  501    0 -0.59860203204E+02 -0.12158412158E+02  0.14809352501E+03  0.16026494646E+03  0.47000000000E+01 0. -1.
        -13    1    4    4    0    0 -0.41839909897E+02 -0.49072893225E+02  0.96964860724E+01  0.65213102608E+02  0.00000000000E+00 0.  1.
         14    1    4    4    0    0  0.32945801290E+02 -0.10512083270E+02  0.26072215012E+02  0.43309238194E+02  0.00000000000E+00 0. -1.
         -5    1    5    5    0  502  0.95048087753E+01 -0.34383067911E+02  0.13209598387E+03  0.13690863999E+03  0.47000000000E+01 0.  1.
         13    1    6    6    0    0  0.51608141163E+02  0.16758911159E+02  0.80655523125E+02  0.97208923192E+02  0.00000000000E+00 0. -1.
        -14    1    6    6    0    0  0.76413618727E+01  0.89367545405E+02  0.86066165010E+02  0.12430741467E+03  0.00000000000E+00 0.  1.
</event>
<event>
12    1  0.8633375E-002  0.1874350E+03  0.7818608E-02  0.1160888E+00
         21   -1    0    0  503  502  0.00000000000E+00  0.00000000000E+00  0.14527326268E+03  0.14527326268E+03  0.00000000000E+00 0.  1.
         21   -1    0    0  501  503 -0.00000000000E+00 -0.00000000000E+00 -0.27430782664E+03  0.27430782664E+03  0.00000000000E+00 0.  1.
          6    2    1    2  501    0 -0.32117536589E+02  0.68271274636E+02 -0.13721632449E+03  0.23196758439E+03  0.17113777317E+03 0.  0.
         24    2    3    3    0    0 -0.40965950041E+02 -0.18774232440E+02 -0.10302646405E+03  0.13791307211E+03  0.79842860038E+02 0.  0.
         -6    2    1    2    0  502  0.32117536589E+02 -0.68271274636E+02  0.81817605297E+01  0.18761350493E+03  0.17157908652E+03 0.  0.
        -24    2    5    5    0    0  0.59852950439E+01 -0.56931515607E+01  0.60763400125E+02  0.10167262782E+03  0.81098068547E+02 0.  0.
          5    1    3    3  501    0  0.88484134519E+01  0.87045507077E+02 -0.34189860444E+02  0.94054512279E+02  0.47000000000E+01 0. -1.
        -11    1    4    4    0    0  0.20277107775E+01  0.16376431206E+02 -0.72878829389E+02  0.74723643401E+02  0.00000000000E+00 0.  1.
         12    1    4    4    0    0 -0.42993660819E+02 -0.35150663647E+02 -0.30147634658E+02  0.63189428711E+02  0.00000000000E+00 0. -1.
         -5    1    5    5    0  502  0.26132241545E+02 -0.62578123076E+02 -0.52581639595E+02  0.85940877110E+02  0.47000000000E+01 0.  1.
         13    1    6    6    0    0  0.36560099941E+02  0.13076134795E+02  0.11057628602E+02  0.40371987307E+02  0.00000000000E+00 0. -1.
        -14    1    6    6    0    0 -0.30574804897E+02 -0.18769286356E+02  0.49705771523E+02  0.61300640515E+02  0.00000000000E+00 0.  1.
</event>
<event>
12    1  0.8633375E-002  0.1993201E+03  0.7818608E-02  0.1151340E+00
         21   -1    0    0  501  502  0.00000000000E+00  0.00000000000E+00  0.72005247242E+03  0.72005247242E+03  0.00000000000E+00 0. -1.
         21   -1    0    0  502  503 -0.00000000000E+00 -0.00000000000E+00 -0.54980433267E+02  0.54980433267E+02  0.00000000000E+00 0. -1.
         -6    2    1    2    0  503  0.81905393402E+02 -0.42541601748E+02  0.28114557741E+03  0.34463216919E+03  0.17666413048E+03 0.  0.
        -24    2    3    3    0    0  0.99167159675E+02 -0.84425207479E+02  0.23171125065E+03  0.27741574511E+03  0.79420719856E+02 0.  0.
          6    2    1    2  501    0 -0.81905393402E+02  0.42541601748E+02  0.38392646174E+03  0.43040073650E+03  0.17125123241E+03 0.  0.
         24    2    5    5    0    0 -0.16721543983E+02  0.25178213301E+02  0.72431949184E+02  0.11165108107E+03  0.79410479046E+02 0.  0.
          5    1    5    5  501    0 -0.65183849419E+02  0.17363388447E+02  0.31149451256E+03  0.31874965543E+03  0.47000000000E+01 0. -1.
        -13    1    6    6    0    0  0.11484902348E+02 -0.50059028101E+01 -0.12191969515E+02  0.17481595052E+02  0.00000000000E+00 0.  1.
         14    1    6    6    0    0 -0.28206446331E+02  0.30184116111E+02  0.84623918699E+02  0.94169486014E+02  0.00000000000E+00 0. -1.
         -5    1    3    3    0  503 -0.17261766272E+02  0.41883605731E+02  0.49434326767E+02  0.67216424085E+02  0.47000000000E+01 0.  1.
         11    1    4    4    0    0  0.39258876529E+02  0.88452674414E+01  0.79632195285E+02  0.89223229421E+02  0.00000000000E+00 0. -1.
        -12    1    4    4    0    0  0.59908283146E+02 -0.93270474920E+02  0.15207905536E+03  0.18819251569E+03  0.00000000000E+00 0.  1.
</event>
<event>
12    1  0.8633375E-002  0.2379358E+03  0.7818608E-02  0.1121629E+00
         21   -1    0    0  503  502  0.00000000000E+00  0.00000000000E+00  0.29615274293E+03  0.29615274293E+03  0.00000000000E+00 0. -1.
         21   -1    0    0  501  503 -0.00000000000E+00 -0.00000000000E+00 -0.24843814108E+03  0.24843814108E+03  0.00000000000E+00 0.  1.
          6    2    1    2  501    0 -0.22471952952E+02  0.16102540308E+03  0.15692071306E+03  0.28279054388E+03  0.17003591507E+03 0.  0.
         24    2    3    3    0    0 -0.47057303620E+02  0.13255999790E+03  0.49838928882E+02  0.16919777447E+03  0.79733463402E+02 0.  0.
         -6    2    1    2    0  502  0.22471952952E+02 -0.16102540308E+03 -0.10920611122E+03  0.26180034013E+03  0.17372183012E+03 0.  0.
        -24    2    5    5    0    0 -0.52692075572E+01 -0.11971669195E+03 -0.14222257358E+03  0.20189910151E+03  0.78588395303E+02 0.  0.
          5    1    3    3  501    0  0.24585350668E+02  0.28465405176E+02  0.10708178418E+03  0.11359276941E+03  0.47000000000E+01 0. -1.
        -13    1    4    4    0    0  0.17259310586E+02  0.70331430994E+01 -0.23973134639E+01  0.18790849252E+02  0.00000000000E+00 0.  1.
         14    1    4    4    0    0 -0.64316614206E+02  0.12552685480E+03  0.52236242346E+02  0.15040692522E+03  0.00000000000E+00 0. -1.
         -5    1    5    5    0  502  0.27741160510E+02 -0.41308711131E+02  0.33016462361E+02  0.59901238623E+02  0.47000000000E+01 0.  1.
         11    1    6    6    0    0  0.23417998064E+00  0.11686728961E+02 -0.13716096540E+02  0.18021259067E+02  0.00000000000E+00 0. -1.
        -12    1    6    6    0    0 -0.55033875378E+01 -0.13140342091E+03 -0.12850647704E+03  0.18387784244E+03  0.00000000000E+00 0.  1.
</event>
<event>
12    1  0.8633375E-002  0.1840456E+03  0.7818608E-02  0.1163980E+00
         21   -1    0    0  503  502  0.00000000000E+00  0.00000000000E+00  0.19037520925E+03  0.19037520925E+03  0.00000000000E+00 0. -1.
         21   -1    0    0  501  503 -0.00000000000E+00 -0.00000000000E+00 -0.18215055177E+03  0.18215055177E+03  0.00000000000E+00 0.  1.
          6    2    1    2  501    0  0.23555874760E+02  0.60039032506E+02 -0.24740711228E+02  0.18555114770E+03  0.17221370724E+03 0.  0.
         24    2    3    3    0    0  0.69387792286E+02  0.14926920505E+02 -0.44426431810E+02  0.11813241953E+03  0.83331158797E+02 0.  0.
         -6    2    1    2    0  502 -0.23555874760E+02 -0.60039032506E+02  0.32965368708E+02  0.18697461331E+03  0.17237524715E+03 0.  0.
        -24    2    5    5    0    0 -0.43666262168E+02 -0.69709686604E+02 -0.30697405611E+02  0.11935074130E+03  0.80846062852E+02 0.  0.
          5    1    3    3  501    0 -0.45831917526E+02  0.45112112001E+02  0.19685720582E+02  0.67418728171E+02  0.47000000000E+01 0. -1.
        -11    1    4    4    0    0  0.57489546146E+02  0.32227603665E+02 -0.62199906529E+02  0.90622815705E+02  0.00000000000E+00 0.  1.
         12    1    4    4    0    0  0.11898246140E+02 -0.17300683161E+02  0.17773474719E+02  0.27509603825E+02  0.00000000000E+00 0. -1.
         -5    1    5    5    0  502  0.20110387408E+02  0.96706540988E+01  0.63662774320E+02  0.67623872016E+02  0.47000000000E+01 0.  1.
         13    1    6    6    0    0 -0.20048534198E+02 -0.74371525979E+02  0.39882641672E+01  0.77129591280E+02  0.00000000000E+00 0. -1.
        -14    1    6    6    0    0 -0.23617727970E+02  0.46618393743E+01 -0.34685669779E+02  0.42221150017E+02  0.00000000000E+00 0.  1.
</event>
<event>
12    1  0.8633375E-002  0.1877462E+03  0.7818608E-02  0.1160794E+00
         21   -1    0    0  501  502  0.00000000000E+00  0.00000000000E+00  0.13257710221E+03  0.13257710221E+03  0.00000000000E+00 0.  1.
         21   -1    0    0  502  503 -0.00000000000E+00 -0.00000000000E+00 -0.28495197898E+03  0.28495197898E+03  0.00000000000E+00 0. -1.
         -6    2    1    2    0  503 -0.49753668413E+02  0.58176349583E+02 -0.13239285477E+03  0.22872254920E+03  0.17007710413E+03 0.  0.
        -24    2    3    3    0    0  0.24235547132E+02 -0.13660816420E+02 -0.52713087143E+02  0.98315732643E+02  0.78187812854E+02 0.  0.
          6    2    1    2  501    0  0.49753668413E+02 -0.58176349583E+02 -0.19982022001E+02  0.18880653198E+03  0.17143135695E+03 0.  0.
         24    2    5    5    0    0 -0.72284647604E+00 -0.86357441098E+02 -0.39341777172E+02  0.12765963840E+03  0.85387807716E+02 0.  0.
          5    1    5    5  501    0  0.50476514889E+02  0.28181091514E+02  0.19359755171E+02  0.61146893581E+02  0.47000000000E+01 0. -1.
        -11    1    6    6    0    0  0.28712132662E+02 -0.33376314580E+02  0.14741216653E+02  0.46429176230E+02  0.00000000000E+00 0.  1.
         12    1    6    6    0    0 -0.29434979139E+02 -0.52981126518E+02 -0.54082993825E+02  0.81230462174E+02  0.00000000000E+00 0. -1.
         -5    1    3    3    0  503 -0.73989215545E+02  0.71837166004E+02 -0.79679767628E+02  0.13040681656E+03  0.47000000000E+01 0.  1.
         13    1    4    4    0    0 -0.17332030562E+02 -0.30371558203E+02 -0.36820114637E+02  0.50779441440E+02  0.00000000000E+00 0. -1.
        -14    1    4    4    0    0  0.41567577694E+02  0.16710741783E+02 -0.15892972506E+02  0.47536291203E+02  0.00000000000E+00 0.  1.
</event>
<event>
12    1  0.8633375E-002  0.1931985E+03  0.7818608E-02  0.1155663E+00
         21   -1    0    0  501  502  0.00000000000E+00  0.00000000000E+00  0.76519330200E+02  0.76519330200E+02  0.00000000000E+00 0.  1.
         21   -1    0    0  502  503 -0.00000000000E+00 -0.00000000000E+00 -0.69787327300E+03  0.69787327300E+03  0.00000000000E+00 0.  1.
         -6    2    1    2    0  503  0.76926407389E+02  0.38853455027E+02 -0.98058591827E+02  0.21665907328E+03  0.17291154814E+03 0.  0.
        -24    2    3    3    0    0  0.16418683665E+02  0.74061391024E+02 -0.94076223024E+02  0.14638295608E+03  0.82601278912E+02 0.  0.
          6    2    1    2  501    0 -0.76926407389E+02 -0.38853455027E+02 -0.52329535097E+03  0.55773352992E+03  0.17263082844E+03 0.  0.
         24    2    5    5    0    0 -0.35833134907E+01  0.30487409580E+02 -0.12962248796E+03  0.15130053667E+03  0.71746363913E+02 0.  0.
          5    1    5    5  501    0 -0.73343093898E+02 -0.69340864607E+02 -0.39367286301E+03  0.40643299325E+03  0.47000000000E+01 0. -1.
        -11    1    6    6    0    0 -0.25487346660E+02 -0.61067245596E+01 -0.87563487998E+02  0.91401648535E+02  0.00000000000E+00 0.  1.
         12    1    6    6    0    0  0.21904033170E+02  0.36594134139E+02 -0.42058999961E+02  0.59898888138E+02  0.00000000000E+00 0. -1.
         -5    1    3    3    0  503  0.60507723724E+02 -0.35207935997E+02 -0.39823688032E+01  0.70276117200E+02  0.47000000000E+01 0.  1.
         13    1    4    4    0    0 -0.18873301038E+02  0.41363118808E+01 -0.56103279431E+02  0.59337075517E+02  0.00000000000E+00 0. -1.
        -14    1    4    4    0    0  0.35291984702E+02  0.69925079143E+02 -0.37972943593E+02  0.87045880560E+02  0.00000000000E+00 0.  1.
</event>
<event>
12    1  0.8633375E-002  0.2005208E+03  0.7818608E-02  0.1149376E+00
         21   -1    0    0  501  502  0.00000000000E+00  0.00000000000E+00  0.77686521483E+03  0.77686521483E+03  0.00000000000E+00 0.  1.
         21   -1    0    0  502  503 -0.00000000000E+00 -0.00000000000E+00 -0.51910134830E+02  0.51910134830E+02  0.00000000000E+00 0. -1.
         -6    2    1    2    0  503 -0.35737592092E+02  0.96432384027E+02  0.39065060475E+03  0.43894450222E+03  0.17172070599E+03 0.  0.
        -24    2    3    3    0    0  0.11101079886E+02 -0.13315440050E+02  0.16430672109E+03  0.18303027880E+03  0.78758170642E+02 0.  0.
          6    2    1    2  501    0  0.35737592092E+02 -0.96432384027E+02  0.33430447525E+03  0.38983084744E+03  0.17214013844E+03 0.  0.
         24    2    5    5    0    0  0.82795649155E+02 -0.78823599842E+02  0.17648120902E+03  0.22413593690E+03  0.77608128830E+02 0.  0.
          5    1    5    5  501    0 -0.47058057064E+02 -0.17608784185E+02  0.15782326623E+03  0.16569491054E+03  0.47000000000E+01 0. -1.
        -11    1    6    6    0    0  0.68438226947E+02 -0.11983257154E+02  0.96654826012E+02  0.11903589690E+03  0.00000000000E+00 0.  1.
         12    1    6    6    0    0  0.14357422209E+02 -0.66840342687E+02  0.79826383012E+02  0.10510004000E+03  0.00000000000E+00 0. -1.
         -5    1    3    3    0  503 -0.46838671977E+02  0.10974782408E+03  0.22634388366E+03  0.25591422342E+03  0.47000000000E+01 0.  1.
         11    1    4    4    0    0  0.30531974525E+02  0.23467961387E+02  0.89534500371E+02  0.97464729194E+02  0.00000000000E+00 0. -1.
        -12    1    4    4    0    0 -0.19430894639E+02 -0.36783401437E+02  0.74772220721E+02  0.85565549606E+02  0.00000000000E+00 0.  1.
</event>
<event>
12    1  0.8633375E-002  0.2347362E+03  0.7818608E-02  0.1123466E+00
         21   -1    0    0  503  502  0.00000000000E+00  0.00000000000E+00  0.14312005588E+04  0.14312005588E+04  0.00000000000E+00 0.  1.
         21   -1    0    0  501  503 -0.00000000000E+00 -0.00000000000E+00 -0.13299621968E+03  0.13299621968E+03  0.00000000000E+00 0.  1.
          6    2    1    2  501    0  0.45684753720E+01 -0.15967631388E+03 -0.10801877673E+02  0.23431019060E+03  0.17107655794E+03 0.  0.
         24    2    3    3    0    0 -0.39139557433E+02 -0.46667426048E+02 -0.31923808518E+02  0.11122637028E+03  0.87420948784E+02 0.  0.
         -6    2    1    2    0  502 -0.45684753720E+01  0.15967631388E+03  0.13090062168E+04  0.13298865879E+04  0.17199902575E+03 0.  0.
        -24    2    5    5    0    0 -0.77172799283E+01  0.76685058516E+01  0.38928793633E+03  0.39767411528E+03  0.80506162488E+02 0.  0.
          5    1    3    3  501    0  0.43708032805E+02 -0.11300888783E+03  0.21121930846E+02  0.12308382031E+03  0.47000000000E+01 0. -1.
        -11    1    4    4    0    0 -0.54816942985E+02 -0.20178936230E+02  0.99524179162E+01  0.59254850671E+02  0.00000000000E+00 0.  1.
         12    1    4    4    0    0  0.15677385552E+02 -0.26488489818E+02 -0.41876226435E+02  0.51971519614E+02  0.00000000000E+00 0. -1.
         -5    1    5    5    0  502  0.31488045562E+01  0.15200780803E+03  0.91971828047E+03  0.93221247261E+03  0.47000000000E+01 0.  1.
         13    1    6    6    0    0 -0.27335887728E+02 -0.20802452849E+01  0.45023271397E+02  0.52713121190E+02  0.00000000000E+00 0. -1.
        -14    1    6    6    0    0  0.19618607800E+02  0.97487511364E+01  0.34426466493E+03  0.34496099409E+03  0.00000000000E+00 0.  1.
</event>
<event>
12    1  0.8633375E-002  0.2738336E+03  0.7818608E-02  0.1099372E+00
         21   -1    0    0  501  502  0.00000000000E+00  0.00000000000E+00  0.11752166821E+04  0.11752166821E+04  0.00000000000E+00 0. -1.
         21   -1    0    0  502  503 -0.00000000000E+00 -0.00000000000E+00 -0.68838730586E+02  0.68838730586E+02  0.00000000000E+00 0.  1.
         -6    2    1    2    0  503  0.17898206970E+03  0.10995991847E+03  0.37955004682E+03  0.46802038652E+03  0.17566752462E+03 0.  0.
        -24    2    3    3    0    0  0.18199256530E+02  0.40893953303E+02  0.15054322142E+03  0.17977147214E+03  0.87469950986E+02 0.  0.
          6    2    1    2  501    0 -0.17898206970E+03 -0.10995991847E+03  0.72682790473E+03  0.77603502621E+03  0.17270145877E+03 0.  0.
         24    2    5    5    0    0 -0.43407857956E+02 -0.36660110786E+01  0.16653785532E+03  0.18983899150E+03  0.80039388239E+02 0.  0.
          5    1    5    5  501    0 -0.13557421175E+03 -0.10629390739E+03  0.56029004942E+03  0.58619603471E+03  0.47000000000E+01 0. -1.
        -11    1    6    6    0    0 -0.58650987005E+02 -0.13110898746E+02  0.72801507058E+02  0.94402825024E+02  0.00000000000E+00 0.  1.
         12    1    6    6    0    0  0.15243129049E+02  0.94448876673E+01  0.93736348260E+02  0.95436166474E+02  0.00000000000E+00 0. -1.
         -5    1    3    3    0  503  0.16078281317E+03  0.69065965168E+02  0.22900682540E+03  0.28824891438E+03  0.47000000000E+01 0.  1.
         11    1    4    4    0    0  0.16722155304E+02  0.43583413757E+02  0.16164650959E+03  0.16825200889E+03  0.00000000000E+00 0. -1.
        -12    1    4    4    0    0  0.14771012252E+01 -0.26894604540E+01 -0.11103288167E+02  0.11519463255E+02  0.00000000000E+00 0.  1.
</event>
<event>
12    1  0.8633375E-002  0.2411195E+03  0.7818608E-02  0.1119333E+00
         21   -1    0    0  501  502  0.00000000000E+00  0.00000000000E+00  0.21100137595E+03  0.21100137595E+03  0.00000000000E+00 0.  1.
         21   -1    0    0  502  503 -0.00000000000E+00 -0.00000000000E+00 -0.33375153818E+03  0.33375153818E+03  0.00000000000E+00 0. -1.
         -6    2    1    2    0  503 -0.14203269738E+03 -0.89328738979E+02 -0.17719990037E+03  0.29922972593E+03  0.17316383414E+03 0.  0.
        -24    2    3    3    0    0 -0.10969580335E+03 -0.12995607334E+03 -0.13290263460E+03  0.23081486813E+03  0.81796349527E+02 0.  0.
          6    2    1    2  501    0  0.14203269738E+03  0.89328738979E+02  0.54449738142E+02  0.24552318819E+03  0.17077456258E+03 0.  0.
         24    2    5    5    0    0  0.81480365933E+02  0.12212337385E+03  0.56722726344E+02  0.17646285663E+03  0.79802904789E+02 0.  0.
          5    1    5    5  501    0  0.60552331452E+02 -0.32794634872E+02 -0.22729882018E+01  0.69060331566E+02  0.47000000000E+01 0. -1.
        -13    1    6    6    0    0  0.36358612228E+02  0.33916961866E+02 -0.17451873066E+02  0.52696080109E+02  0.00000000000E+00 0.  1.
         14    1    6    6    0    0  0.45121753705E+02  0.88206411984E+02  0.74174599410E+02  0.12376677652E+03  0.00000000000E+00 0. -1.
         -5    1    3    3    0  503 -0.32336894033E+02  0.40627334359E+02 -0.44297265771E+02  0.68414857799E+02  0.47000000000E+01 0.  1.
         13    1    4    4    0    0 -0.71373985981E+02 -0.23663314898E+02 -0.61633332636E+02  0.97225850671E+02  0.00000000000E+00 0. -1.
        -14    1    4    4    0    0 -0.38321817369E+02 -0.10629275844E+03 -0.71269301963E+02  0.13358901746E+03  0.00000000000E+00 0.  1.
</event>
<event>
12    1  0.8633375E-002  0.2091303E+03  0.7818608E-02  0.1142467E+00
         21   -1    0    0  501  502  0.00000000000E+00  0.00000000000E+00  0.68777248514E+03  0.68777248514E+03  0.00000000000E+00 0. -1.
         21   -1    0    0  502  503 -0.00000000000E+00 -0.00000000000E+00 -0.64204960778E+02  0.64204960778E+02  0.00000000000E+00 0. -1.
         -6    2    1    2    0  503 -0.18338863548E+02 -0.11683499125E+03  0.35638006551E+03  0.41267722810E+03  0.17119875701E+03 0.  0.
        -24    2    3    3    0    0  0.21354533128E+02 -0.12002861294E+01  0.11443572957E+03  0.14155713946E+03  0.80532172196E+02 0.  0.
          6    2    1    2  501    0  0.18338863548E+02  0.11683499125E+03  0.26718745885E+03  0.33930021782E+03  0.17247831907E+03 0.  0.
         24    2    5    5    0    0  0.23413967036E+02  0.24501597865E+02  0.21416684129E+03  0.23260210117E+03  0.84188831884E+02 0.  0.
          5    1    5    5  501    0 -0.50751034887E+01  0.92333393384E+02  0.53020617567E+02  0.10669811665E+03  0.47000000000E+01 0. -1.
        -11    1    6    6    0    0  0.41520031479E+02  0.35850016270E+02  0.81602245770E+02  0.98326309781E+02  0.00000000000E+00 0.  1.
         12    1    6    6    0    0 -0.18106064442E+02 -0.11348418405E+02  0.13256459552E+03  0.13427579139E+03  0.00000000000E+00 0. -1.
         -5    1    3    3    0  503 -0.39693396675E+02 -0.11563470512E+03  0.24194433594E+03  0.27112008864E+03  0.47000000000E+01 0.  1.
         13    1    4    4    0    0  0.28149553126E+02 -0.29503683571E+02  0.10210244381E+03  0.10994441194E+03  0.00000000000E+00 0. -1.
        -14    1    4    4    0    0 -0.67950199987E+01  0.28303397441E+02  0.12333285757E+02  0.31612727517E+02  0.00000000000E+00 0.  1.
</event>
<event>
12    1  0.8633375E-002  0.2492880E+03  0.7818608E-02  0.1113844E+00
         21   -1    0    0  501  502  0.00000000000E+00  0.00000000000E+00  0.66448692238E+03  0.66448692238E+03  0.00000000000E+00 0.  1.
         21   -1    0    0  502  503 -0.00000000000E+00 -0.00000000000E+00 -0.12711041436E+03  0.12711041436E+03  0.00000000000E+00 0.  1.
         -6    2    1    2    0  503 -0.13575769773E+02  0.18042912337E+03  0.64818478548E+02  0.25757706900E+03  0.17148043978E+03 0.  0.
        -24    2    3    3    0    0 -0.48772763412E+02  0.59777076035E+02 -0.79052234116E+01  0.11229605953E+03  0.81214722544E+02 0.  0.
          6    2    1    2  501    0  0.13575769773E+02 -0.18042912337E+03  0.47255802948E+03  0.53402026774E+03  0.17066805515E+03 0.  0.
         24    2    5    5    0    0  0.42992384926E+01 -0.20460701449E+03  0.44165012505E+03  0.49342454127E+03  0.80811083011E+02 0.  0.
          5    1    5    5  501    0  0.92765312803E+01  0.24177891123E+02  0.30907904426E+02  0.40595726472E+02  0.47000000000E+01 0. -1.
        -11    1    6    6    0    0 -0.36674427973E+02 -0.95517178169E+02  0.23212760456E+03  0.25367650619E+03  0.00000000000E+00 0.  1.
         12    1    6    6    0    0  0.40973666465E+02 -0.10908983632E+03  0.20952252049E+03  0.23974803508E+03  0.00000000000E+00 0. -1.
         -5    1    3    3    0  503  0.35196993639E+02  0.12065204733E+03  0.72723701959E+02  0.14528100947E+03  0.47000000000E+01 0.  1.
         13    1    4    4    0    0 -0.39406842201E+02  0.14202221186E+02  0.30622426603E+02  0.51887718295E+02  0.00000000000E+00 0. -1.
        -14    1    4    4    0    0 -0.93659212107E+01  0.45574854849E+02 -0.38527650015E+02  0.60408341231E+02  0.00000000000E+00 0.  1.
</event>
<event>
12    1  0.8633375E-002  0.2186746E+03  0.7818608E-02  0.1135724E+00
         21   -1    0    0  503  502  0.00000000000E+00  0.00000000000E+00  0.92972218727E+03  0.92972218727E+03  0.00000000000E+00 0.  1.
         21   -1    0    0  501  503 -0.00000000000E+00 -0.00000000000E+00 -0.20176680819E+03  0.20176680819E+03  0.00000000000E+00 0.  1.
          6    2    1    2  501    0 -0.11486460820E+03 -0.70989728399E+02 -0.12699169103E+03  0.24901913576E+03  0.16628355489E+03 0.  0.
         24    2    3    3    0    0 -0.71209418267E+02 -0.64655504787E+02 -0.15602235617E+03  0.19600246370E+03  0.69446919330E+02 0.  0.
         -6    2    1    2    0  502  0.11486460820E+03  0.70989728399E+02  0.85494707011E+03  0.88246985971E+03  0.17200331639E+03 0.  0.
        -24    2    5    5    0    0  0.86043914725E+02  0.26543021221E+02  0.28257014310E+03  0.30762763898E+03  0.81736107445E+02 0.  0.
          5    1    3    3  501    0 -0.43655189935E+02 -0.63342236123E+01  0.29030665138E+02  0.53016672051E+02  0.47000000000E+01 0. -1.
        -13    1    4    4    0    0 -0.61468246430E+02 -0.79639097297E+02 -0.12868933148E+03  0.16334526370E+03  0.00000000000E+00 0.  1.
         14    1    4    4    0    0 -0.97411718373E+01  0.14983592510E+02 -0.27333024692E+02  0.32657200003E+02  0.00000000000E+00 0. -1.
         -5    1    5    5    0  502  0.28820693477E+02  0.44446707178E+02  0.57237692701E+03  0.57484222072E+03  0.47000000000E+01 0.  1.
         11    1    6    6    0    0  0.62369461453E+02  0.41008684669E+00  0.25596607449E+03  0.26345540264E+03  0.00000000000E+00 0. -1.
        -12    1    6    6    0    0  0.23674453272E+02  0.26132934374E+02  0.26604068607E+02  0.44172236339E+02  0.00000000000E+00 0.  1.
</event>
<event>
12    1  0.8633375E-002  0.2239869E+03  0.7818608E-02  0.1131175E+00
         21   -1    0    0  501  502  0.00000000000E+00  0.00000000000E+00  0.50507335566E+03  0.50507335566E+03  0.00000000000E+00 0.  1.
         21   -1    0    0  502  503 -0.00000000000E+00 -0.00000000000E+00 -0.13676555983E+03  0.13676555983E+03  0.00000000000E+00 0. -1.
         -6    2    1    2    0  503  0.93475766672E+02 -0.10994646757E+03  0.14639085070E+02  0.22320819428E+03  0.16965155613E+03 0.  0.
        -24    2    3    3    0    0  0.84588964203E+02 -0.13081171722E+03 -0.25852386244E+02  0.17656075973E+03  0.78983275281E+02 0.  0.
          6    2    1    2  501    0 -0.93475766672E+02  0.10994646757E+03  0.35366871076E+03  0.41863072120E+03  0.17130142754E+03 0.  0.
         24    2    5    5    0    0 -0.10271060327E+03  0.10516250357E+03  0.36566079024E+03  0.40207570720E+03  0.79677102239E+02 0.  0.
          5    1    5    5  501    0  0.92348365937E+01  0.47839639989E+01 -0.11992079477E+02  0.16555014003E+02  0.47000000000E+01 0. -1.
        -11    1    6    6    0    0 -0.32904331458E+02 -0.16214444896E+01  0.37099846412E+02  0.49615750672E+02  0.00000000000E+00 0.  1.
         12    1    6    6    0    0 -0.69806271808E+02  0.10678394806E+03  0.32856094382E+03  0.35245995652E+03  0.00000000000E+00 0. -1.
         -5    1    3    3    0  503  0.88868024695E+01  0.20865249653E+02  0.40491471315E+02  0.46647434554E+02  0.47000000000E+01 0.  1.
         11    1    4    4    0    0 -0.53917528820E+01 -0.52068462159E+02 -0.22407040608E+02  0.56940945018E+02  0.00000000000E+00 0. -1.
        -12    1    4    4    0    0  0.89980717085E+02 -0.78743255063E+02 -0.34453456369E+01  0.11961981471E+03  0.00000000000E+00 0.  1.
</event>
<event>
12    1  0.8633375E-002  0.2690875E+03  0.7818608E-02  0.1101818E+00
         21   -1    0    0  503  502  0.00000000000E+00  0.00000000000E+00  0.55679744987E+02  0.55679744987E+02  0.00000000000E+00 0. -1.
         21   -1    0    0  501  503 -0.00000000000E+00 -0.00000000000E+00 -0.14825277401E+04  0.14825277401E+04  0.00000000000E+00 0.  1.
          6    2    1    2  501    0 -0.12258617553E+03  0.16718088894E+03 -0.98347640958E+03  0.10196244024E+04  0.17155539576E+03 0.  0.
         24    2    3    3    0    0 -0.10363581415E+03  0.19475675591E+03 -0.82623177304E+03  0.85879060515E+03  0.78687894569E+02 0.  0.
         -6    2    1    2    0  502  0.12258617553E+03 -0.16718088894E+03 -0.44337158558E+03  0.51858308268E+03  0.17138620332E+03 0.  0.
        -24    2    5    5    0    0  0.15648929789E+03 -0.11711828827E+03 -0.30624190046E+03  0.36864200682E+03  0.62507869804E+02 0.  0.
          5    1    3    3  501    0 -0.18950361371E+02 -0.27575866974E+02 -0.15724463653E+03  0.16083379730E+03  0.47000000000E+01 0. -1.
        -11    1    4    4    0    0 -0.11253412772E+02  0.82636459581E+02 -0.39619099106E+03  0.40487371506E+03  0.00000000000E+00 0.  1.
         12    1    4    4    0    0 -0.92382401382E+02  0.11212029633E+03 -0.43004078198E+03  0.45391689008E+03  0.00000000000E+00 0. -1.
         -5    1    5    5    0  502 -0.33903122370E+02 -0.50062600671E+02 -0.13712968511E+03  0.14994107586E+03  0.47000000000E+01 0.  1.
         13    1    6    6    0    0  0.11311689920E+03 -0.88829531121E+02 -0.26839561403E+03  0.30450340576E+03  0.00000000000E+00 0. -1.
        -14    1    6    6    0    0  0.43372398696E+02 -0.28288757145E+02 -0.37846286428E+02  0.64138601059E+02  0.00000000000E+00 0.  1.
</event>
<event>
12    1  0.8633375E-002  0.1996870E+03  0.7818608E-02  0.1150155E+00
         21   -1    0    0  501  502  0.00000000000E+00  0.00000000000E+00  0.89165795572E+02  0.89165795572E+02  0.00000000000E+00 0. -1.
         21   -1    0    0  502  503 -0.00000000000E+00 -0.00000000000E+00 -0.66890828846E+03  0.66890828846E+03  0.00000000000E+00 0. -1.
         -6    2    1    2    0  503 -0.63481642159E+02  0.77816887667E+02 -0.50852782270E+03  0.54606840030E+03  0.17176950966E+03 0.  0.
        -24    2    3    3    0    0  0.10463280511E+02 -0.12528368299E+02 -0.18167455985E+03  0.19895852966E+03  0.79450680137E+02 0.  0.
          6    2    1    2  501    0  0.63481642159E+02 -0.77816887667E+02 -0.71214670185E+02  0.21200568373E+03  0.17259633190E+03 0.  0.
         24    2    5    5    0    0  0.32835146560E+02 -0.44219045860E+02 -0.11410261592E+03  0.14932005096E+03  0.79016452673E+02 0.  0.
          5    1    5    5  501    0  0.30646495599E+02 -0.33597841807E+02  0.42887945732E+02  0.62685632769E+02  0.47000000000E+01 0. -1.
        -13    1    6    6    0    0  0.36348839021E+02  0.12074956781E+02 -0.59868562776E+02  0.71072410176E+02  0.00000000000E+00 0.  1.
         14    1    6    6    0    0 -0.35136924605E+01 -0.56294002641E+02 -0.54234053141E+02  0.78247640783E+02  0.00000000000E+00 0. -1.
         -5    1    3    3    0  503 -0.73944922671E+02  0.90345255967E+02 -0.32685326285E+03  0.34710987065E+03  0.47000000000E+01 0.  1.
         13    1    4    4    0    0 -0.10993884608E+02 -0.42528568367E+02 -0.90184795664E+02  0.10031371788E+03  0.00000000000E+00 0. -1.
        -14    1    4    4    0    0  0.21457165119E+02  0.30000200068E+02 -0.91489764187E+02  0.98644811775E+02  0.00000000000E+00 0.  1.
</event>
<event>
12    1  0.8633375E-002  0.1966489E+03  0.7818608E-02  0.1152834E+00
         21   -1    0    0  501  502  0.00000000000E+00  0.00000000000E+00  0.19172485210E+03  0.19172485210E+03  0.00000000000E+00 0.  1.
         21   -1    0    0  502  503 -0.00000000000E+00 -0.00000000000E+00 -0.20057753221E+03  0.20057753221E+03  0.00000000000E+00 0. -1.
         -6    2    1    2    0  503 -0.82302279737E+02  0.37012563342E+02 -0.43854432665E+01  0.19669783163E+03  0.17472037591E+03 0.  0.
        -24    2    3    3    0    0 -0.12475833305E+03  0.40664592362E+02  0.49712696610E+01  0.15281740483E+03  0.78167736044E+02 0.  0.
          6    2    1    2  501    0  0.82302279737E+02 -0.37012563342E+02 -0.44672368477E+01  0.19560455268E+03  0.17348656930E+03 0.  0.
         24    2    5    5    0    0  0.91823537110E+02 -0.43797616074E+02  0.50021643294E+02  0.13967764197E+03  0.81595868317E+02 0.  0.
          5    1    5    5  501    0 -0.95212573734E+01  0.67850527317E+01 -0.54488880142E+02  0.55926910711E+02  0.47000000000E+01 0. -1.
        -13    1    6    6    0    0  0.55083672543E+02 -0.66601706554E+02  0.26223575255E+02  0.90319843866E+02  0.00000000000E+00 0.  1.
         14    1    6    6    0    0  0.36739864567E+02  0.22804090480E+02  0.23798068039E+02  0.49357798101E+02  0.00000000000E+00 0. -1.
         -5    1    3    3    0  503  0.42456053317E+02 -0.36520290195E+01 -0.93567129275E+01  0.43880426798E+02  0.47000000000E+01 0.  1.
         11    1    4    4    0    0 -0.67235462718E+02 -0.23862557354E+01 -0.29097483554E+02  0.73300513043E+02  0.00000000000E+00 0. -1.
        -12    1    4    4    0    0 -0.57522870336E+02  0.43050848097E+02  0.34068753215E+02  0.79516891785E+02  0.00000000000E+00 0.  1.
</event>
<event>
12    1  0.8633375E-002  0.2493177E+03  0.7818608E-02  0.1113980E+00
         21   -1    0    0  503  502  0.00000000000E+00  0.00000000000E+00  0.23010840038E+03  0.23010840038E+03  0.00000000000E+00 0. -1.
         21   -1    0    0  501  503 -0.00000000000E+00 -0.00000000000E+00 -0.26871322875E+03  0.26871322875E+03  0.00000000000E+00 0. -1.
          6    2    1    2  501    0  0.64458943254E+01 -0.17985931252E+03 -0.12003513822E+02  0.24960651807E+03  0.17253523601E+03 0.  0.
         24    2    3    3    0    0  0.27802756445E+01 -0.13484467507E+03  0.53998262063E+02  0.16949360547E+03  0.87300937354E+02 0.  0.
         -6    2    1    2    0  502 -0.64458943254E+01  0.17985931252E+03 -0.26601314551E+02  0.24921511106E+03  0.17032210600E+03 0.  0.
        -24    2    5    5    0    0 -0.51053981261E+02  0.57384789128E+02  0.14951949263E+02  0.11232590757E+03  0.80585517916E+02 0.  0.
          5    1    3    3  501    0  0.36656186809E+01 -0.45014637443E+02 -0.66001775886E+02  0.80112912595E+02  0.47000000000E+01 0. -1.
        -11    1    4    4    0    0  0.41496142161E+02 -0.53603606028E+02  0.75162542719E+01  0.68203888978E+02  0.00000000000E+00 0.  1.
         12    1    4    4    0    0 -0.38715866516E+02 -0.81241069044E+02  0.46482007791E+02  0.10128971650E+03  0.00000000000E+00 0. -1.
         -5    1    5    5    0  502  0.44608086936E+02  0.12247452339E+03 -0.41553263814E+02  0.13688920349E+03  0.47000000000E+01 0.  1.
         11    1    6    6    0    0 -0.27539512673E+02  0.59253980891E+02 -0.21604028069E+02  0.68820004639E+02  0.00000000000E+00 0. -1.
        -12    1    6    6    0    0 -0.23514468588E+02 -0.18691917630E+01  0.36555977331E+02  0.43505902927E+02  0.00000000000E+00 0.  1.
</event>
<event>
12    1  0.8633375E-002  0.1808467E+03  0.7818608E-02  0.1167218E+00
         21   -1    0    0  503  502  0.00000000000E+00  0.00000000000E+00  0.23965981529E+03  0.23965981529E+03  0.00000000000E+00 0.  1.
         21   -1    0    0  501  503 -0.00000000000E+00 -0.00000000000E+00 -0.13708276693E+03  0.13708276693E+03  0.00000000000E+00 0.  1.
          6    2    1    2  501    0 -0.50604548337E+02  0.19712456754E+02  0.69776647725E+02  0.19294540061E+03  0.17149269893E+03 0.  0.
         24    2    3    3    0    0 -0.21670369507E+02  0.74017594820E+02  0.72824765387E+02  0.13115854322E+03  0.77142126936E+02 0.  0.
         -6    2    1    2    0  502  0.50604548337E+02 -0.19712456754E+02  0.32800400636E+02  0.18379718161E+03  0.17249967079E+03 0.  0.
        -24    2    5    5    0    0  0.71239557513E+02 -0.57449447312E+02  0.57118586512E+02  0.13416505266E+03  0.79763493393E+02 0.  0.
          5    1    3    3  501    0 -0.28934178829E+02 -0.54305138067E+02 -0.30481176623E+01  0.61786857391E+02  0.47000000000E+01 0. -1.
        -13    1    4    4    0    0  0.18614809438E+02 -0.25127048637E+01  0.28080856010E+02  0.33784009389E+02  0.00000000000E+00 0.  1.
         14    1    4    4    0    0 -0.40285178945E+02  0.76530299684E+02  0.44743909377E+02  0.97374533831E+02  0.00000000000E+00 0. -1.
         -5    1    5    5    0  502 -0.20635009176E+02  0.37736990558E+02 -0.24318185876E+02  0.49632128953E+02  0.47000000000E+01 0.  1.
         11    1    6    6    0    0  0.29327595601E+02 -0.27026794207E+02  0.70210039987E+02  0.80746549052E+02  0.00000000000E+00 0. -1.
        -12    1    6    6    0    0  0.41911961912E+02 -0.30422653105E+02 -0.13091453475E+02  0.53418503604E+02  0.00000000000E+00 0.  1.
</event>
<event>
12    1  0.8633375E-002  0.2118810E+03  0.7818608E-02  0.1140174E+00
         21   -1    0    0  503  502  0.00000000000E+00  0.00000000000E+00  0.18903768091E+04  0.18903768091E+04  0.00000000000E+00 0. -1.
         21   -1    0    0  501  503 -0.00000000000E+00 -0.00000000000E+00 -0.25634229283E+02  0.25634229283E+02  0.00000000000E+00 0.  1.
          6    2    1    2  501    0 -0.10410431007E+03  0.60901223385E+02  0.66813470922E+03  0.70078927390E+03  0.17365180785E+03 0.  0.
         24    2    3    3    0    0 -0.42395395036E+02  0.68906062391E+02  0.56738282717E+03  0.58227725182E+03  0.10284994149E+03 0.  0.
         -6    2    1    2    0  502  0.10410431007E+03 -0.60901223385E+02  0.11966078706E+04  0.12152217645E+04  0.17420354333E+03 0.  0.
        -24    2    5    5    0    0  0.11423898191E+02 -0.76100752240E+02  0.52810635864E+03  0.54013877261E+03  0.83257057962E+02 0.  0.
          5    1    3    3  501    0 -0.61708915030E+02 -0.80048390061E+01  0.10075188205E+03  0.11851202208E+03  0.47000000000E+01 0. -1.
        -11    1    4    4    0    0 -0.43316539367E+02  0.94786018581E+02  0.47738027168E+03  0.48862320421E+03  0.00000000000E+00 0.  1.
         12    1    4    4    0    0  0.92114433086E+00 -0.25879956190E+02  0.90002555487E+02  0.93654047608E+02  0.00000000000E+00 0. -1.
         -5    1    5    5    0  502  0.92680411875E+02  0.15199528855E+02  0.66850151194E+03  0.67508299185E+03  0.47000000000E+01 0.  1.
         13    1    6    6    0    0  0.42216193463E+02 -0.22351621965E+02  0.29964207837E+03  0.30342573577E+03  0.00000000000E+00 0. -1.
        -14    1    6    6    0    0 -0.30792295271E+02 -0.53749130275E+02  0.22846428027E+03  0.23671303685E+03  0.00000000000E+00 0.  1.
</event>
<event>
12    1  0.8633375E-002  0.1954212E+03  0.7818608E-02  0.1154915E+00
         21   -1    0    0  501  502  0.00000000000E+00  0.00000000000E+00  0.13173541420E+03  0.13173541420E+03  0.00000000000E+00 0. -1.
         21   -1    0    0  502  503 -0.00000000000E+00 -0.00000000000E+00 -0.36617569590E+03  0.36617569590E+03  0.00000000000E+00 0. -1.
         -6    2    1    2    0  503 -0.94906720630E+02 -0.91633766378E+01 -0.23557633213E+03  0.30248661959E+03  0.16404479167E+03 0.  0.
        -24    2    3    3    0    0 -0.52594285130E+02 -0.62566863548E+02 -0.19289137607E+03  0.22194861560E+03  0.73303026967E+02 0.  0.
          6    2    1    2  501    0  0.94906720630E+02  0.91633766378E+01  0.11360504344E+01  0.19542449052E+03  0.17058190934E+03 0.  0.
         24    2    5    5    0    0  0.11974267772E+03  0.28405142991E+02  0.32810928530E+02  0.15056405986E+03  0.80298306805E+02 0.  0.
          5    1    5    5  501    0 -0.24835957086E+02 -0.19241766353E+02 -0.31674878096E+02  0.44860430661E+02  0.47000000000E+01 0. -1.
        -13    1    6    6    0    0  0.27136366021E+02  0.26047590098E+02 -0.21355218447E+02  0.43253955491E+02  0.00000000000E+00 0.  1.
         14    1    6    6    0    0  0.92606311695E+02  0.23575528930E+01  0.54166146977E+02  0.10731010437E+03  0.00000000000E+00 0. -1.
         -5    1    3    3    0  503 -0.42312435500E+02  0.53403486910E+02 -0.42684956068E+02  0.80538003990E+02  0.47000000000E+01 0.  1.
         11    1    4    4    0    0  0.36729679777E+01 -0.33446980623E+02 -0.23350075512E+02  0.40956284413E+02  0.00000000000E+00 0. -1.
        -12    1    4    4    0    0 -0.56267253108E+02 -0.29119882925E+02 -0.16954130055E+03  0.18099233118E+03  0.00000000000E+00 0.  1.
</event>
<event>
12    1  0.8633375E-002  0.2151368E+03  0.7818608E-02  0.1137852E+00
         21   -1    0    0  501  502  0.00000000000E+00  0.00000000000E+00  0.18155840271E+04  0.18155840271E+04  0.00000000000E+00 0.  1.
         21   -1    0    0  502  503 -0.00000000000E+00 -0.00000000000E+00 -0.42973887033E+02  0.42973887033E+02  0.00000000000E+00 0.  1.
         -6    2    1    2    0  503 -0.65464251852E+02 -0.11241702463E+03  0.28876518706E+03  0.35919815630E+03  0.16945449695E+03 0.  0.
        -24    2    3    3    0    0  0.33720132114E+02 -0.13592733833E+02  0.63935457295E+02  0.94293871965E+02  0.59006625626E+02 0.  0.
          6    2    1    2  501    0  0.65464251852E+02  0.11241702463E+03  0.14838449530E+04  0.14993597578E+04  0.17134959336E+03 0.  0.
         24    2    5    5    0    0 -0.87910612186E+01  0.11378443348E+03  0.89465913286E+03  0.90549298659E+03  0.80488537625E+02 0.  0.
          5    1    5    5  501    0  0.74255313071E+02 -0.13674088502E+01  0.58918582014E+03  0.59386677123E+03  0.47000000000E+01 0. -1.
        -11    1    6    6    0    0 -0.37340328324E+01  0.12555368693E+03  0.84084516491E+03  0.85017543052E+03  0.00000000000E+00 0.  1.
         12    1    6    6    0    0 -0.50570283862E+01 -0.11769253454E+02  0.53813967955E+02  0.55317556075E+02  0.00000000000E+00 0. -1.
         -5    1    3    3    0  503 -0.99184383966E+02 -0.98824290792E+02  0.22482972976E+03  0.26490428433E+03  0.47000000000E+01 0.  1.
         11    1    4    4    0    0  0.13549120163E+02 -0.20280836521E+01 -0.98878528421E+01  0.16895603402E+02  0.00000000000E+00 0. -1.
        -12    1    4    4    0    0  0.20171011951E+02 -0.11564650181E+02  0.73823310137E+02  0.77398268563E+02  0.00000000000E+00 0.  1.
</event>
<event>
12    1  0.8633375E-002  0.1717496E+03  0.7818608E-02  0.1180029E+00
         21   -1    0    0  501  502  0.00000000000E+00  0.00000000000E+00  0.97956625202E+02  0.97956625202E+02  0.00000000000E+00 0.  1.
         21   -1    0    0  502  503 -0.00000000000E+00 -0.00000000000E+00 -0.38029692760E+03  0.38029692760E+03  0.00000000000E+00 0.  1.
         -6    2    1    2    0  503 -0.34236905628E+01  0.65344637581E+01 -0.27106059020E+03  0.32089212815E+03  0.17159106466E+03 0.  0.
        -24    2    3    3    0    0 -0.60905795798E+02 -0.15841956167E+02 -0.21330069223E+03  0.23625648314E+03  0.79746203586E+02 0.  0.
          6    2    1    2  501    0  0.34236905628E+01 -0.65344637581E+01 -0.11279712199E+02  0.15736142466E+03  0.15678317891E+03 0.  0.
         24    2    5    5    0    0  0.57253341254E+02  0.76964516550E+01 -0.22313892392E+02  0.10040535931E+03  0.79032562480E+02 0.  0.
          5    1    5    5  501    0 -0.53829650692E+02 -0.14230915413E+02  0.11034180193E+02  0.56956065345E+02  0.47000000000E+01 0. -1.
        -13    1    6    6    0    0  0.53171476842E+02  0.33940037495E+02  0.37524826670E+01  0.63191876225E+02  0.00000000000E+00 0.  1.
         14    1    6    6    0    0  0.40818644123E+01 -0.26243585840E+02 -0.26066375059E+02  0.37213483087E+02  0.00000000000E+00 0. -1.
         -5    1    3    3    0  503  0.57482105236E+02  0.22376419926E+02 -0.57759897976E+02  0.84635645004E+02  0.47000000000E+01 0.  1.
         11    1    4    4    0    0 -0.12876646499E+02 -0.28091980074E+02 -0.20255293486E+02  0.36949212221E+02  0.00000000000E+00 0. -1.
        -12    1    4    4    0    0 -0.48029149300E+02  0.12250023906E+02 -0.19304539874E+03  0.19930727092E+03  0.00000000000E+00 0.  1.
</event>
<event>
12    1  0.8633375E-002  0.3859055E+03  0.7818608E-02  0.1048801E+00
         21   -1    0    0  503  502  0.00000000000E+00  0.00000000000E+00  0.53710372627E+03  0.53710372627E+03  0.00000000000E+00 0.  1.
         21   -1    0    0  501  503 -0.00000000000E+00 -0.00000000000E+00 -0.29916678614E+03  0.29916678614E+03  0.00000000000E+00 0.  1.
          6    2    1    2  501    0  0.28526746461E+03  0.19563881991E+03  0.23272987326E+03  0.45065091665E+03  0.17108763997E+03 0.  0.
         24    2    3    3    0    0  0.20910109147E+03  0.20779476474E+03  0.20847413394E+03  0.36966008826E+03  0.79279162619E+02 0.  0.
         -6    2    1    2    0  502 -0.28526746461E+03 -0.19563881991E+03  0.52070668702E+01  0.38561959576E+03  0.17036221668E+03 0.  0.
        -24    2    5    5    0    0 -0.22123363761E+03 -0.79550308610E+02  0.31426699817E+02  0.25039225900E+03  0.80225132588E+02 0.  0.
          5    1    3    3  501    0  0.76166373142E+02 -0.12155944837E+02  0.24255739320E+02  0.80990828385E+02  0.47000000000E+01 0. -1.
        -11    1    4    4    0    0  0.90187819536E+02  0.51900254749E+02  0.10555178508E+03  0.14821828014E+03  0.00000000000E+00 0.  1.
         12    1    4    4    0    0  0.11891327193E+03  0.15589450999E+03  0.10292234886E+03  0.22144180812E+03  0.00000000000E+00 0. -1.
         -5    1    5    5    0  502 -0.64033827002E+02 -0.11608851130E+03 -0.26219632947E+02  0.13522733676E+03  0.47000000000E+01 0.  1.
         11    1    6    6    0    0 -0.11215627974E+03 -0.78131618627E+02  0.35524316251E+02  0.14122874339E+03  0.00000000000E+00 0. -1.
        -12    1    6    6    0    0 -0.10907735787E+03 -0.14186899832E+01 -0.40976164346E+01  0.10916351562E+03  0.00000000000E+00 0.  1.
</event>
<event>
12    1  0.8633375E-002  0.2993305E+03  0.7818608E-02  0.1085588E+00
         21   -1    0    0  503  502  0.00000000000E+00  0.00000000000E+00  0.18167330141E+03  0.18167330141E+03  0.00000000000E+00 0.  1.
         21   -1    0    0  501  503 -0.00000000000E+00 -0.00000000000E+00 -0.50537562008E+03  0.50537562008E+03  0.00000000000E+00 0. -1.
          6    2    1    2  501    0  0.24520309372E+03  0.27415374462E+01 -0.21551865095E+03  0.36876841407E+03  0.17149280191E+03 0.  0.
         24    2    3    3    0    0  0.25821029734E+03  0.27167352761E+01 -0.16313171064E+03  0.31458659538E+03  0.75318209454E+02 0.  0.
         -6    2    1    2    0  502 -0.24520309372E+03 -0.27415374462E+01 -0.10818366772E+03  0.31828050742E+03  0.17165867949E+03 0.  0.
        -24    2    5    5    0    0 -0.15588759539E+03  0.64876350170E+02 -0.71443294159E+02  0.20029160109E+03  0.80639307902E+02 0.  0.
          5    1    3    3  501    0 -0.13007203618E+02  0.24802170097E-01 -0.52386940308E+02  0.54181818684E+02  0.47000000000E+01 0. -1.
        -11    1    4    4    0    0  0.79509482375E+02 -0.36606465653E+01 -0.12067770749E+02  0.80503349071E+02  0.00000000000E+00 0.  1.
         12    1    4    4    0    0  0.17870081496E+03  0.63773818414E+01 -0.15106393989E+03  0.23408324631E+03  0.00000000000E+00 0. -1.
         -5    1    5    5    0  502 -0.89315498331E+02 -0.67617887616E+02 -0.36740373560E+02  0.11798890633E+03  0.47000000000E+01 0.  1.
         13    1    6    6    0    0 -0.20454087020E+02  0.35821771283E+02 -0.41627625519E+02  0.58603994574E+02  0.00000000000E+00 0. -1.
        -14    1    6    6    0    0 -0.13543350837E+03  0.29054578886E+02 -0.29815668640E+02  0.14168760651E+03  0.00000000000E+00 0.  1.
</event>
<event>
12    1  0.8633375E-002  0.2604437E+03  0.7818608E-02  0.1106899E+00
         21   -1    0    0  503  502  0.00000000000E+00  0.00000000000E+00  0.16727441031E+03  0.16727441031E+03  0.00000000000E+00 0.  1.
         21   -1    0    0  501  503 -0.00000000000E+00 -0.00000000000E+00 -0.11738714616E+04  0.11738714616E+04  0.00000000000E+00 0.  1.
          6    2    1    2  501    0 -0.13032320458E+03  0.14612020311E+03 -0.10459518599E+04  0.10778897059E+04  0.17174304489E+03 0.  0.
         24    2    3    3    0    0 -0.15686876298E+03  0.14955967303E+03 -0.96667176161E+03  0.99408087219E+03  0.82259231497E+02 0.  0.
         -6    2    1    2    0  502  0.13032320458E+03 -0.14612020311E+03  0.39354808603E+02  0.26325616601E+03  0.17152188366E+03 0.  0.
        -24    2    5    5    0    0  0.86216573040E+02 -0.30808829347E+02  0.63096113707E+02  0.13744739274E+03  0.80797182956E+02 0.  0.
          5    1    3    3  501    0  0.26545558399E+02 -0.34394699200E+01 -0.79280098247E+02  0.83808833676E+02  0.47000000000E+01 0. -1.
        -11    1    4    4    0    0 -0.11488096078E+02  0.17322175972E+02 -0.25276179568E+03  0.25361498277E+03  0.00000000000E+00 0.  1.
         12    1    4    4    0    0 -0.14538066690E+03  0.13223749705E+03 -0.71390996593E+03  0.74046588942E+03  0.00000000000E+00 0. -1.
         -5    1    5    5    0  502  0.44106631541E+02 -0.11531137376E+03 -0.23741305104E+02  0.12580877327E+03  0.47000000000E+01 0.  1.
         13    1    6    6    0    0  0.55130827084E+02  0.17551401942E+02  0.90848767294E+01  0.58566157381E+02  0.00000000000E+00 0. -1.
        -14    1    6    6    0    0  0.31085745956E+02 -0.48360231289E+02  0.54011236977E+02  0.78881235359E+02  0.00000000000E+00 0.  1.
</event>
<event>
12    1  0.8633375E-002  0.2835856E+03  0.7818608E-02  0.1093805E+00
         21   -1    0    0  503  502  0.00000000000E+00  0.00000000000E+00  0.12386064020E+04  0.12386064020E+04  0.00000000000E+00 0.  1.
         21   -1    0    0  501  503 -0.00000000000E+00 -0.00000000000E+00 -0.13851798164E+03  0.13851798164E+03  0.00000000000E+00 0.  1.
          6    2    1    2  501    0  0.15598519752E+03  0.16235791871E+03  0.48023396356E+02  0.28762312693E+03  0.17242198508E+03 0.  0.
         24    2    3    3    0    0  0.11782764356E+03  0.14796873259E+03 -0.21913436324E+02  0.20652874879E+03  0.79973908090E+02 0.  0.
         -6    2    1    2    0  502 -0.15598519752E+03 -0.16235791871E+03  0.10520650240E+04  0.10895012567E+04  0.17169944092E+03 0.  0.
        -24    2    5    5    0    0 -0.44705518686E+02 -0.10064315938E+02  0.38785386770E+03  0.39901225713E+03  0.81733009226E+02 0.  0.
          5    1    3    3  501    0  0.38157553958E+02  0.14389186121E+02  0.69936832680E+02  0.81094378144E+02  0.47000000000E+01 0. -1.
        -13    1    4    4    0    0  0.66755189668E+02  0.10725285004E+03 -0.49425314342E+02  0.13565504372E+03  0.00000000000E+00 0.  1.
         14    1    4    4    0    0  0.51072453889E+02  0.40715882546E+02  0.27511878018E+02  0.70873705066E+02  0.00000000000E+00 0. -1.
         -5    1    5    5    0  502 -0.11127967883E+03 -0.15229360277E+03  0.66421115631E+03  0.69048899957E+03  0.47000000000E+01 0.  1.
         11    1    6    6    0    0 -0.61415283540E+02 -0.26155793884E+02  0.23097786391E+03  0.24043031469E+03  0.00000000000E+00 0. -1.
        -12    1    6    6    0    0  0.16709764854E+02  0.16091477946E+02  0.15687600378E+03  0.15858194244E+03  0.00000000000E+00 0.  1.
</event>
<event>
12    1  0.8633375E-002  0.3405648E+03  0.7818608E-02  0.1066657E+00
         21   -1    0    0  503  502  0.00000000000E+00  0.00000000000E+00  0.65549941748E+03  0.65549941748E+03  0.00000000000E+00 0.  1.
         21   -1    0    0  501  503 -0.00000000000E+00 -0.00000000000E+00 -0.19240699570E+03  0.19240699570E+03  0.00000000000E+00 0. -1.
          6    2    1    2  501    0 -0.12470148851E+03 -0.26546660034E+03  0.10913953488E+03  0.35671701157E+03  0.17120926126E+03 0.  0.
         24    2    3    3    0    0 -0.14768631648E+03 -0.19270124912E+03  0.11486252275E+03  0.28004927883E+03  0.79304350147E+02 0.  0.
         -6    2    1    2    0  502  0.12470148851E+03  0.26546660034E+03  0.35395288690E+03  0.49118940161E+03  0.17309363068E+03 0.  0.
        -24    2    5    5    0    0  0.12384408640E+03  0.15920838290E+03  0.15864215693E+03  0.26879354924E+03  0.79987319221E+02 0.  0.
          5    1    3    3  501    0  0.22984827968E+02 -0.72765351216E+02 -0.57229878660E+01  0.76667732746E+02  0.47000000000E+01 0. -1.
        -13    1    4    4    0    0 -0.29349773150E+02 -0.10248743818E+03  0.48243366934E+02  0.11701498461E+03  0.00000000000E+00 0.  1.
         14    1    4    4    0    0 -0.11833654333E+03 -0.90213810935E+02  0.66619155815E+02  0.16303429422E+03  0.00000000000E+00 0. -1.
         -5    1    5    5    0  502  0.85740210724E+00  0.10625821744E+03  0.19531072997E+03  0.22239585237E+03  0.47000000000E+01 0.  1.
         13    1    6    6    0    0  0.13077520874E+03  0.12144208531E+03  0.13393296043E+03  0.22313308404E+03  0.00000000000E+00 0. -1.
        -14    1    6    6    0    0 -0.69311223380E+01  0.37766297585E+02  0.24709196501E+02  0.45660465196E+02  0.00000000000E+00 0.  1.
</event>
<event>
12    1  0.8633375E-002  0.1813390E+03  0.7818608E-02  0.1166900E+00
         21   -1    0    0  501  502  0.00000000000E+00  0.00000000000E+00  0.19111354690E+03  0.19111354690E+03  0.00000000000E+00 0.  1.
         21   -1    0    0  502  503 -0.00000000000E+00 -0.00000000000E+00 -0.24835385176E+03  0.24835385176E+03  0.00000000000E+00 0.  1.
         -6    2    1    2    0  503 -0.27979718155E+02  0.47008219551E+02 -0.15152474414E+03  0.23508205035E+03  0.17120509624E+03 0.  0.
        -24    2    3    3    0    0 -0.29674797820E+01 -0.36875013805E+02 -0.85633689424E+02  0.12542016090E+03  0.83836241664E+02 0.  0.
          6    2    1    2  501    0  0.27979718155E+02 -0.47008219551E+02  0.94284439281E+02  0.20438534831E+03  0.17289065267E+03 0.  0.
         24    2    5    5    0    0  0.17613566809E+02 -0.93578557011E+02  0.34511329525E+02  0.12776180053E+03  0.77877222221E+02 0.  0.
          5    1    5    5  501    0  0.10366151346E+02  0.46570337460E+02  0.59773109756E+02  0.76623547783E+02  0.47000000000E+01 0. -1.
        -13    1    6    6    0    0  0.41486542986E+01 -0.59650091363E+01  0.38354192752E+02  0.39036351880E+02  0.00000000000E+00 0.  1.
         14    1    6    6    0    0  0.13464912511E+02 -0.87613547875E+02 -0.38428632270E+01  0.88725448649E+02  0.00000000000E+00 0. -1.
         -5    1    3    3    0  503 -0.25012238373E+02  0.83883233356E+02 -0.65891054714E+02  0.10966188945E+03  0.47000000000E+01 0.  1.
         13    1    4    4    0    0 -0.42939991513E+02 -0.18823656721E+02 -0.35495348847E+02  0.58805550021E+02  0.00000000000E+00 0. -1.
        -14    1    4    4    0    0  0.39972511731E+02 -0.18051357084E+02 -0.50138340577E+02  0.66614610879E+02  0.00000000000E+00 0.  1.
</event>
<event>
12    1  0.8633375E-002  0.2106542E+03  0.7818608E-02  0.1141277E+00
         21   -1    0    0  503  502  0.00000000000E+00  0.00000000000E+00  0.26038792455E+03  0.26038792455E+03  0.00000000000E+00 0. -1.
         21   -1    0    0  501  503 -0.00000000000E+00 -0.00000000000E+00 -0.21220257010E+03  0.21220257010E+03  0.00000000000E+00 0. -1.
          6    2    1    2  501    0 -0.11780939421E+03 -0.28037965288E+02 -0.81972319880E+02  0.22496938415E+03  0.17095783608E+03 0.  0.
         24    2    3    3    0    0 -0.71989098721E+02 -0.56153109629E+02 -0.10887085287E+03  0.16467359742E+03  0.83240188773E+02 0.  0.
         -6    2    1    2    0  502  0.11780939421E+03  0.28037965288E+02  0.13015767433E+03  0.24762111050E+03  0.17236592853E+03 0.  0.
        -24    2    5    5    0    0  0.74747530811E+02  0.31617359718E+02  0.15896786326E+03  0.19547465204E+03  0.79703872197E+02 0.  0.
          5    1    3    3  501    0 -0.45820295486E+02  0.28115144340E+02  0.26898532994E+02  0.60295786726E+02  0.47000000000E+01 0. -1.
        -13    1    4    4    0    0  0.15602804061E+02 -0.77462890160E+01 -0.88234947760E+00  0.17442219718E+02  0.00000000000E+00 0.  1.
         14    1    4    4    0    0 -0.87591902782E+02 -0.48406820613E+02 -0.10798850340E+03  0.14723137770E+03  0.00000000000E+00 0. -1.
         -5    1    5    5    0  502  0.43061863396E+02 -0.35793944293E+01 -0.28810188933E+02  0.52146458460E+02  0.47000000000E+01 0.  1.
         11    1    6    6    0    0  0.28959061331E+02 -0.25722740377E+02  0.39875038142E+02  0.55590514231E+02  0.00000000000E+00 0. -1.
        -12    1    6    6    0    0  0.45788469480E+02  0.57340100094E+02  0.11909282512E+03  0.13988413781E+03  0.00000000000E+00 0.  1.
</event>
<event>
12    1  0.8633375E-002  0.2003698E+03  0.7818608E-02  0.1149743E+00
         21   -1    0    0  503  502  0.00000000000E+00  0.00000000000E+00  0.14457536611E+04  0.14457536611E+04  0.00000000000E+00 0. -1.
         21   -1    0    0  501  503 -0.00000000000E+00 -0.00000000000E+00 -0.12952196007E+03  0.12952196007E+03  0.00000000000E+00 0. -1.
          6    2    1    2  501    0 -0.13447834978E+01 -0.10060484679E+03 -0.41232127370E+02  0.20310358214E+03  0.17154542579E+03 0.  0.
         24    2    3    3    0    0 -0.60634407374E+02 -0.56985796110E+02  0.16409885654E+01  0.11779194664E+03  0.83356688598E+02 0.  0.
         -6    2    1    2    0  502  0.13447834978E+01  0.10060484679E+03  0.13574638284E+04  0.13721720390E+04  0.17327699110E+03 0.  0.
        -24    2    5    5    0    0  0.45548194346E+01  0.12956136417E+03  0.12860098644E+04  0.12948639334E+04  0.77745360811E+02 0.  0.
          5    1    3    3  501    0  0.59289623876E+02 -0.43619050678E+02 -0.42873115935E+02  0.85311635498E+02  0.47000000000E+01 0. -1.
        -11    1    4    4    0    0 -0.53266095432E+02 -0.77400310693E+02  0.10097884278E+02  0.94498953882E+02  0.00000000000E+00 0.  1.
         12    1    4    4    0    0 -0.73683119413E+01  0.20414514583E+02 -0.84568957128E+01  0.23292992758E+02  0.00000000000E+00 0. -1.
         -5    1    5    5    0  502 -0.32100359368E+01 -0.28956517387E+02  0.71453963956E+02  0.77308105622E+02  0.47000000000E+01 0.  1.
         13    1    6    6    0    0 -0.32150746723E+02  0.67854223211E+02  0.50362584228E+03  0.50919235573E+03  0.00000000000E+00 0. -1.
        -14    1    6    6    0    0  0.36705566158E+02  0.61707140964E+02  0.78238402217E+03  0.78567157768E+03  0.00000000000E+00 0.  1.
</event>
<event>
12    1  0.8633375E-002  0.2026782E+03  0.7818608E-02  0.1148347E+00
         21   -1    0    0  501  502  0.00000000000E+00  0.00000000000E+00  0.66316494635E+02  0.66316494635E+02  0.00000000000E+00 0.  1.
         21   -1    0    0  502  503 -0.00000000000E+00 -0.00000000000E+00 -0.71560454503E+03  0.71560454503E+03  0.00000000000E+00 0.  1.
         -6    2    1    2    0  503 -0.10513522518E+03  0.24429065158E+02 -0.47963159865E+03  0.52069655720E+03  0.17154661016E+03 0.  0.
        -24    2    3    3    0    0  0.93081195741E+01 -0.22332304169E+02 -0.16239761986E+03  0.18019194325E+03  0.74234604987E+02 0.  0.
          6    2    1    2  501    0  0.10513522518E+03 -0.24429065158E+02 -0.16965645174E+03  0.26122448246E+03  0.16674748521E+03 0.  0.
         24    2    5    5    0    0  0.13228194640E+03 -0.27336880560E+02 -0.17263162038E+03  0.23336157716E+03  0.80063293434E+02 0.  0.
          5    1    5    5  501    0 -0.27146721225E+02  0.29078154014E+01  0.29751686389E+01  0.27862905306E+02  0.47000000000E+01 0. -1.
        -11    1    6    6    0    0  0.54427305160E+02  0.27080652091E+02 -0.53369533674E+02  0.80894996071E+02  0.00000000000E+00 0.  1.
         12    1    6    6    0    0  0.77854641241E+02 -0.54417532651E+02 -0.11926208671E+03  0.15246658109E+03  0.00000000000E+00 0. -1.
         -5    1    3    3    0  503 -0.11444334475E+03  0.46761369327E+02 -0.31723397879E+03  0.34050461395E+03  0.47000000000E+01 0.  1.
         11    1    4    4    0    0  0.23483793999E+02  0.23287420455E+01 -0.14487179253E+03  0.14678129271E+03  0.00000000000E+00 0. -1.
        -12    1    4    4    0    0 -0.14175674425E+02 -0.24661046214E+02 -0.17525827329E+02  0.33410650538E+02  0.00000000000E+00 0.  1.
</event>
<event>
12    1  0.8633375E-002  0.1973148E+03  0.7818608E-02  0.1154229E+00
         21   -1    0    0  503  502  0.00000000000E+00  0.00000000000E+00  0.36468620361E+03  0.36468620361E+03  0.00000000000E+00 0. -1.
         21   -1    0    0  501  503 -0.00000000000E+00 -0.00000000000E+00 -0.10849422477E+03  0.10849422477E+03  0.00000000000E+00 0. -1.
          6    2    1    2  501    0  0.68231488534E+02 -0.29989378964E+02  0.18536872251E+03  0.26354009421E+03  0.17186308241E+03 0.  0.
         24    2    3    3    0    0  0.70559784976E+02 -0.68497510339E+02  0.18528234087E+03  0.22467629861E+03  0.80494106258E+02 0.  0.
         -6    2    1    2    0  502 -0.68231488534E+02  0.29989378964E+02  0.70823256334E+02  0.20964033416E+03  0.18269711873E+03 0.  0.
        -24    2    5    5    0    0  0.34131826797E+02  0.38760028325E+02  0.47139559719E+02  0.10410275744E+03  0.77122789238E+02 0.  0.
          5    1    3    3  501    0 -0.23282964421E+01  0.38508131375E+02  0.86381636027E-01  0.38863795596E+02  0.47000000000E+01 0. -1.
        -11    1    4    4    0    0 -0.16631165454E+02 -0.23968017545E+02  0.43423154406E+02  0.52312826992E+02  0.00000000000E+00 0.  1.
         12    1    4    4    0    0  0.87190950430E+02 -0.44529492794E+02  0.14185918646E+03  0.17236347162E+03  0.00000000000E+00 0. -1.
         -5    1    5    5    0  502 -0.10236331533E+03 -0.87706493607E+01  0.23683696615E+02  0.10553757673E+03  0.47000000000E+01 0.  1.
         11    1    6    6    0    0  0.11126315115E+02  0.52948457627E+02  0.53969029118E+01  0.54373344703E+02  0.00000000000E+00 0. -1.
        -12    1    6    6    0    0  0.23005511682E+02 -0.14188429303E+02  0.41742656807E+02  0.49729412736E+02  0.00000000000E+00 0.  1.
</event>
<event>
12    1  0.8633375E-002  0.2633124E+03  0.7818608E-02  0.1107057E+00
         21   -1    0    0  503  502  0.00000000000E+00  0.00000000000E+00  0.23100747320E+03  0.23100747320E+03  0.00000000000E+00 0. -1.
         21   -1    0    0  501  503 -0.00000000000E+00 -0.00000000000E+00 -0.29657290484E+03  0.29657290484E+03  0.00000000000E+00 0.  1.
          6    2    1    2  501    0  0.86330344383E+02 -0.16443170709E+03  0.15973799529E+02  0.26379652610E+03  0.18666207503E+03 0.  0.
         24    2    3    3    0    0  0.94327477494E+02 -0.97668532121E+02  0.76352899210E+02  0.17330342500E+03  0.75944036768E+02 0.  0.
         -6    2    1    2    0  502 -0.86330344383E+02  0.16443170709E+03 -0.81539231172E+02  0.26378385194E+03  0.16864922077E+03 0.  0.
        -24    2    5    5    0    0 -0.99083755236E+02  0.18494335802E+03 -0.76749955454E+02  0.23871585493E+03  0.84101530913E+02 0.  0.
          5    1    3    3  501    0 -0.79971331107E+01 -0.66763174967E+02 -0.60379099681E+02  0.90493101107E+02  0.47000000000E+01 0. -1.
        -13    1    4    4    0    0  0.11576065291E+02 -0.65878095234E+02  0.30841328559E+02  0.73655388578E+02  0.00000000000E+00 0.  1.
         14    1    4    4    0    0  0.82751412202E+02 -0.31790436887E+02  0.45511570651E+02  0.99648036419E+02  0.00000000000E+00 0. -1.
         -5    1    5    5    0  502  0.12753410852E+02 -0.20511650935E+02 -0.47892757180E+01  0.25067997016E+02  0.47000000000E+01 0.  1.
         13    1    6    6    0    0 -0.11117916799E+03  0.15993786428E+03 -0.80350479156E+02  0.21070625839E+03  0.00000000000E+00 0. -1.
        -14    1    6    6    0    0  0.12095412753E+02  0.25005493744E+02  0.36005237024E+01  0.28009596534E+02  0.00000000000E+00 0.  1.
</event>
<event>
12    1  0.8633375E-002  0.1801382E+03  0.7818608E-02  0.1168543E+00
         21   -1    0    0  503  502  0.00000000000E+00  0.00000000000E+00  0.16940935661E+04  0.16940935661E+04  0.00000000000E+00 0. -1.
         21   -1    0    0  501  503 -0.00000000000E+00 -0.00000000000E+00 -0.21353060109E+02  0.21353060109E+02  0.00000000000E+00 0. -1.
          6    2    1    2  501    0  0.38877366869E+02  0.12249461900E+02  0.53106167073E+03  0.55964372744E+03  0.17179378501E+03 0.  0.
         24    2    3    3    0    0  0.47746979211E+02  0.26791924747E+02  0.17489710991E+03  0.20304109475E+03  0.87401978521E+02 0.  0.
         -6    2    1    2    0  502 -0.38877366869E+02 -0.12249461900E+02  0.11416788353E+04  0.11558028988E+04  0.17546589116E+03 0.  0.
        -24    2    5    5    0    0  0.32959874118E+02  0.28782847547E+02  0.74760990115E+03  0.75311610430E+03  0.79677453813E+02 0.  0.
          5    1    3    3  501    0 -0.88696123426E+01 -0.14542462848E+02  0.35616456083E+03  0.35660263269E+03  0.47000000000E+01 0. -1.
        -11    1    4    4    0    0  0.33880049313E+02  0.49219970876E+02  0.16393348893E+03  0.17448395934E+03  0.00000000000E+00 0.  1.
         12    1    4    4    0    0  0.13866929899E+02 -0.22428046129E+02  0.10963620975E+02  0.28557135410E+02  0.00000000000E+00 0. -1.
         -5    1    5    5    0  502 -0.71837240987E+02 -0.41032309447E+02  0.39406893413E+03  0.40268679449E+03  0.47000000000E+01 0.  1.
         13    1    6    6    0    0  0.13210064727E+02  0.10229542773E+02  0.68100556286E+03  0.68121048583E+03  0.00000000000E+00 0. -1.
        -14    1    6    6    0    0  0.19749809391E+02  0.18553304774E+02  0.66604338287E+02  0.71905618471E+02  0.00000000000E+00 0.  1.
</event>
<event>
12    1  0.8633375E-002  0.1840371E+03  0.7818608E-02  0.1164133E+00
         21   -1    0    0  503  502  0.00000000000E+00  0.00000000000E+00  0.19483920613E+04  0.19483920613E+04  0.00000000000E+00 0. -1.
         21   -1    0    0  501  503 -0.00000000000E+00 -0.00000000000E+00 -0.36707521592E+02  0.36707521592E+02  0.00000000000E+00 0. -1.
          6    2    1    2  501    0  0.46448023449E+02  0.45618779726E+02  0.23528250012E+03  0.29870973526E+03  0.17213703590E+03 0.  0.
         24    2    3    3    0    0  0.79826914390E+02  0.58687055483E+02  0.22865910819E+03  0.26195528638E+03  0.80740804798E+02 0.  0.
         -6    2    1    2    0  502 -0.46448023449E+02 -0.45618779726E+02  0.16764020396E+04  0.16863898477E+04  0.17131382874E+03 0.  0.
        -24    2    5    5    0    0  0.28459089827E+02 -0.35882371914E+02  0.59503392658E+03  0.60237649020E+03  0.81820521627E+02 0.  0.
          5    1    3    3  501    0 -0.33378890942E+02 -0.13068275758E+02  0.66233919255E+01  0.36754448879E+02  0.47000000000E+01 0. -1.
        -11    1    4    4    0    0 -0.14278055585E+02  0.28450560870E+01  0.53323274246E+02  0.55275028645E+02  0.00000000000E+00 0.  1.
         12    1    4    4    0    0  0.94104969975E+02  0.55841999396E+02  0.17533583395E+03  0.20668025773E+03  0.00000000000E+00 0. -1.
         -5    1    5    5    0  502 -0.74907113276E+02 -0.97364078113E+01  0.10813681130E+04  0.10840133575E+04  0.47000000000E+01 0.  1.
         13    1    6    6    0    0  0.24050018650E+02 -0.29466757822E+02  0.59314858634E+03  0.59436683848E+03  0.00000000000E+00 0. -1.
        -14    1    6    6    0    0  0.44090711772E+01 -0.64156140927E+01  0.18853402416E+01  0.80096517190E+01  0.00000000000E+00 0.  1.
</event>
<event>
12    1  0.8633375E-002  0.1875387E+03  0.7818608E-02  0.1160803E+00
         21   -1    0    0  501  502  0.00000000000E+00  0.00000000000E+00  0.23892600363E+03  0.23892600363E+03  0.00000000000E+00 0.  1.
         21   -1    0    0  502  503 -0.00000000000E+00 -0.00000000000E+00 -0.24913687196E+03  0.24913687196E+03  0.00000000000E+00 0.  1.
         -6    2    1    2    0  503  0.58249592584E+02 -0.44508287155E+02 -0.16147053320E+03  0.24747420351E+03  0.17261733879E+03 0.  0.
        -24    2    3    3    0    0  0.35778061765E+02 -0.62165257575E+02 -0.29756460252E+02  0.11261344082E+03  0.81558268582E+02 0.  0.
          6    2    1    2  501    0 -0.58249592584E+02  0.44508287155E+02  0.15125966486E+03  0.24058867208E+03  0.17213198499E+03 0.  0.
         24    2    5    5    0    0 -0.10106201338E+03  0.29908514101E+02  0.75892406751E+02  0.15256384409E+03  0.80050105283E+02 0.  0.
          5    1    5    5  501    0  0.42812420794E+02  0.14599773054E+02  0.75367258113E+02  0.88024827992E+02  0.47000000000E+01 0. -1.
        -11    1    6    6    0    0 -0.93704439705E+02  0.48264046471E+02  0.80051147032E+02  0.13235605896E+03  0.00000000000E+00 0.  1.
         12    1    6    6    0    0 -0.73575736735E+01 -0.18355532370E+02 -0.41587402808E+01  0.20207785126E+02  0.00000000000E+00 0. -1.
         -5    1    3    3    0  503  0.22471530819E+02  0.17656970420E+02 -0.13171407294E+03  0.13486076269E+03  0.47000000000E+01 0.  1.
         11    1    4    4    0    0 -0.34571439996E+01 -0.50695791681E+02 -0.46081592499E+02  0.68596853470E+02  0.00000000000E+00 0. -1.
        -12    1    4    4    0    0  0.39235205765E+02 -0.11469465895E+02  0.16325132246E+02  0.44016587353E+02  0.00000000000E+00 0.  1.
</event>
<event>
12    1  0.8633375E-002  0.1767562E+03  0.7818608E-02  0.1171407E+00
         21   -1    0    0  503  502  0.00000000000E+00  0.00000000000E+00  0.20039319717E+04  0.20039319717E+04  0.00000000000E+00 0.  1.
         21   -1    0    0  501  503 -0.00000000000E+00 -0.00000000000E+00 -0.15492507792E+02  0.15492507792E+02  0.00000000000E+00 0.  1.
          6    2    1    2  501    0 -0.27984605772E+01 -0.40977236127E+02  0.10578554705E+04  0.10725208466E+04  0.17191801758E+03 0.  0.
         24    2    3    3    0    0  0.40368033260E+02 -0.66154443005E+02  0.49439270867E+03  0.50682692596E+03  0.80270754658E+02 0.  0.
         -6    2    1    2    0  502  0.27984605772E+01  0.40977236127E+02  0.93058399344E+03  0.94690363287E+03  0.17015568119E+03 0.  0.
        -24    2    5    5    0    0  0.56623053232E+02  0.45699177367E+02  0.43332900225E+03  0.44669967470E+03  0.80448680672E+02 0.  0.
          5    1    3    3  501    0 -0.43166493838E+02  0.25177206878E+02  0.56346276182E+03  0.56569392068E+03  0.47000000000E+01 0. -1.
        -13    1    4    4    0    0  0.33605364006E+02 -0.64500998028E+02  0.49454396826E+03  0.49986341713E+03  0.00000000000E+00 0.  1.
         14    1    4    4    0    0  0.67626692547E+01 -0.16534449766E+01 -0.15125959749E+00  0.69635088285E+01  0.00000000000E+00 0. -1.
         -5    1    5    5    0  502 -0.53824592654E+02 -0.47219412403E+01  0.49725499119E+03  0.50020395817E+03  0.47000000000E+01 0.  1.
         11    1    6    6    0    0  0.51718422451E+02  0.69850329665E+01  0.11878015559E+03  0.12973939752E+03  0.00000000000E+00 0. -1.
        -12    1    6    6    0    0  0.49046307806E+01  0.38714144400E+02  0.31454884666E+03  0.31696027718E+03  0.00000000000E+00 0.  1.
</event>
<event>
12    1  0.8633375E-002  0.2342714E+03  0.7818608E-02  0.1124657E+00
         21   -1    0    0  501  502  0.00000000000E+00  0.00000000000E+00  0.11917312934E+03  0.11917312934E+03  0.00000000000E+00 0. -1.
         21   -1    0    0  502  503 -0.00000000000E+00 -0.00000000000E+00 -0.57911795496E+03  0.57911795496E+03  0.00000000000E+00 0. -1.
         -6    2    1    2    0  503  0.51511755493E+02  0.15072958911E+03 -0.66954799882E+02  0.24365145198E+03  0.17178537433E+03 0.  0.
        -24    2    3    3    0    0 -0.13017425512E+02  0.69022080577E+01 -0.16231451839E+02  0.77985285304E+02  0.74840836795E+02 0.  0.
          6    2    1    2  501    0 -0.51511755493E+02 -0.15072958911E+03 -0.39299002574E+03  0.45463963233E+03  0.16396086413E+03 0.  0.
         24    2    5    5    0    0 -0.84572296296E+02 -0.13336538246E+03 -0.24875649842E+03  0.30557617123E+03  0.80982728905E+02 0.  0.
          5    1    5    5  501    0  0.33060540803E+02 -0.17364206652E+02 -0.14423352732E+03  0.14906346110E+03  0.47000000000E+01 0. -1.
        -13    1    6    6    0    0  0.13973401010E+02 -0.34654225387E+01 -0.21680711368E+02  0.26025340239E+02  0.00000000000E+00 0.  1.
         14    1    6    6    0    0 -0.98545697305E+02 -0.12989995992E+03 -0.22707578705E+03  0.27955083100E+03  0.00000000000E+00 0. -1.
         -5    1    3    3    0  503  0.64529181005E+02  0.14382738106E+03 -0.50723348043E+02  0.16566616667E+03  0.47000000000E+01 0.  1.
         11    1    4    4    0    0 -0.31731272704E+02  0.25008099199E+02 -0.28257998700E+02  0.49303074787E+02  0.00000000000E+00 0. -1.
        -12    1    4    4    0    0  0.18713847192E+02 -0.18105891141E+02  0.12026546861E+02  0.28682210517E+02  0.00000000000E+00 0.  1.
</event>
<event>
12    1  0.8633375E-002  0.2960244E+03  0.7818608E-02  0.1087436E+00
         21   -1    0    0  503  502  0.00000000000E+00  0.00000000000E+00  0.12755463505E+03  0.12755463505E+03  0.00000000000E+00 0.  1.
         21   -1    0    0  501  503 -0.00000000000E+00 -0.00000000000E+00 -0.13212575313E+04  0.13212575313E+04  0.00000000000E+00 0.  1.
          6    2    1    2  501    0 -0.17691608759E+03  0.16235681273E+03 -0.10993430717E+04  0.11381125839E+04  0.17054626261E+03 0.  0.
         24    2    3    3    0    0 -0.17221211683E+03  0.17060293609E+03 -0.82400695044E+03  0.86257275819E+03  0.79258651339E+02 0.  0.
         -6    2    1    2    0  502  0.17691608759E+03 -0.16235681273E+03 -0.94359824552E+02  0.31069958243E+03  0.17312255008E+03 0.  0.
        -24    2    5    5    0    0  0.94002146048E+02 -0.35870819207E+02 -0.75440872784E+02  0.15820877945E+03  0.95997778490E+02 0.  0.
          5    1    3    3  501    0 -0.47039707610E+01 -0.82461233609E+01 -0.27533612127E+03  0.27553982574E+03  0.47000000000E+01 0. -1.
        -13    1    4    4    0    0 -0.44894140971E+02  0.12249704884E+02 -0.95096928861E+02  0.10587239981E+03  0.00000000000E+00 0.  1.
         14    1    4    4    0    0 -0.12731797586E+03  0.15835323120E+03 -0.72891002158E+03  0.75670035838E+03  0.00000000000E+00 0. -1.
         -5    1    5    5    0  502  0.82913941547E+02 -0.12648599352E+03 -0.18918951768E+02  0.15249080299E+03  0.47000000000E+01 0.  1.
         13    1    6    6    0    0 -0.17953644510E+02  0.33561775600E+01 -0.12867352257E+01  0.18309914433E+02  0.00000000000E+00 0. -1.
        -14    1    6    6    0    0  0.11195579056E+03 -0.39226996767E+02 -0.74154137558E+02  0.13989886501E+03  0.00000000000E+00 0.  1.
</event>
<event>
12    1  0.8633375E-002  0.1776369E+03  0.7818608E-02  0.1170819E+00
         21   -1    0    0  503  502  0.00000000000E+00  0.00000000000E+00  0.20541003953E+04  0.20541003953E+04  0.00000000000E+00 0. -1.
         21   -1    0    0  501  503 -0.00000000000E+00 -0.00000000000E+00 -0.15384519683E+02  0.15384519683E+02  0.00000000000E+00 0. -1.
          6    2    1    2  501    0 -0.42887699059E+02 -0.14909704799E+02  0.11479484301E+04  0.11611779679E+04  0.16878098486E+03 0.  0.
         24    2    3    3    0    0 -0.48838963857E+02 -0.10678037015E+02  0.33305879353E+03  0.34624205974E+03  0.80350103399E+02 0.  0.
         -6    2    1    2    0  502  0.42887699059E+02  0.14909704799E+02  0.89076744551E+03  0.90830694711E+03  0.17173588492E+03 0.  0.
        -24    2    5    5    0    0  0.64446919420E+01  0.33101413028E+02  0.17970210608E+03  0.19606047436E+03  0.70778704969E+02 0.  0.
          5    1    3    3  501    0  0.59512647982E+01 -0.42316677834E+01  0.81488963661E+03  0.81493590816E+03  0.47000000000E+01 0. -1.
        -11    1    4    4    0    0 -0.58342538083E+02 -0.33764040359E+02  0.20582582250E+03  0.21658285108E+03  0.00000000000E+00 0.  1.
         12    1    4    4    0    0  0.95035742253E+01  0.23086003344E+02  0.12723297103E+03  0.12965920866E+03  0.00000000000E+00 0. -1.
         -5    1    5    5    0  502  0.36443007117E+02 -0.18191708229E+02  0.71106533943E+03  0.71224647275E+03  0.47000000000E+01 0.  1.
         13    1    6    6    0    0 -0.15076085165E+02  0.43971438029E+02  0.15381156772E+03  0.16068221455E+03  0.00000000000E+00 0. -1.
        -14    1    6    6    0    0  0.21520777107E+02 -0.10870025001E+02  0.25890538357E+02  0.35378259811E+02  0.00000000000E+00 0.  1.
</event>
<event>
12    1  0.8633375E-002  0.1938747E+03  0.7818608E-02  0.1155198E+00
         21   -1    0    0  503  502  0.00000000000E+00  0.00000000000E+00  0.14769730852E+03  0.14769730852E+03  0.00000000000E+00 0.  1.
         21   -1    0    0  501  503 -0.00000000000E+00 -0.00000000000E+00 -0.25487667392E+03  0.25487667392E+03  0.00000000000E+00 0. -1.
          6    2    1    2  501    0 -0.30364417313E+01  0.88511217668E+02 -0.68870916063E+02  0.20495079112E+03  0.17151725298E+03 0.  0.
         24    2    3    3    0    0  0.74126934742E+01  0.12675312765E+03 -0.38759674042E+02  0.15494674127E+03  0.79905424751E+02 0.  0.
         -6    2    1    2    0  502  0.30364417313E+01 -0.88511217668E+02 -0.38308449336E+02  0.19762319132E+03  0.17246429435E+03 0.  0.
        -24    2    5    5    0    0  0.48518002890E+02 -0.10857190852E+03 -0.29701594111E+02  0.14695592694E+03  0.81067896527E+02 0.  0.
          5    1    3    3  501    0 -0.10449135206E+02 -0.38241909983E+02 -0.30111242021E+02  0.50004049853E+02  0.47000000000E+01 0. -1.
        -11    1    4    4    0    0  0.40173345331E+02  0.58780275883E+02 -0.25250507191E+01  0.71241802259E+02  0.00000000000E+00 0.  1.
         12    1    4    4    0    0 -0.32760651857E+02  0.67972851768E+02 -0.36234623323E+02  0.83704939011E+02  0.00000000000E+00 0. -1.
         -5    1    5    5    0  502 -0.45481561158E+02  0.20060690851E+02 -0.86068552255E+01  0.50667264379E+02  0.47000000000E+01 0.  1.
         11    1    6    6    0    0  0.54464251106E+02 -0.39008075466E+02 -0.37383487144E+02  0.76717075746E+02  0.00000000000E+00 0. -1.
        -12    1    6    6    0    0 -0.59462482164E+01 -0.69563833053E+02  0.76818930335E+01  0.70238851197E+02  0.00000000000E+00 0.  1.
</event>
<event>
12    1  0.8633375E-002  0.2206028E+03  0.7818608E-02  0.1133587E+00
         21   -1    0    0  503  502  0.00000000000E+00  0.00000000000E+00  0.10957347502E+03  0.10957347502E+03  0.00000000000E+00 0.  1.
         21   -1    0    0  501  503 -0.00000000000E+00 -0.00000000000E+00 -0.46856443021E+03  0.46856443021E+03  0.00000000000E+00 0.  1.
          6    2    1    2  501    0  0.32417879719E+02  0.13347306580E+03 -0.11098617540E+03  0.24621626704E+03  0.17157663245E+03 0.  0.
         24    2    3    3    0    0 -0.18312115509E+02  0.14570160697E+03 -0.81545585971E+02  0.18611711612E+03  0.80159880706E+02 0.  0.
         -6    2    1    2    0  502 -0.32417879719E+02 -0.13347306580E+03 -0.24800477979E+03  0.33192163819E+03  0.17262567850E+03 0.  0.
        -24    2    5    5    0    0 -0.61382482759E+01 -0.16139734609E+03 -0.18265685762E+03  0.25600836273E+03  0.78038277361E+02 0.  0.
          5    1    3    3  501    0  0.50729995229E+02 -0.12228541166E+02 -0.29440589427E+02  0.60099150916E+02  0.47000000000E+01 0. -1.
        -13    1    4    4    0    0 -0.75615577980E+01  0.69469864640E+02 -0.83781067561E+02  0.10909860921E+03  0.00000000000E+00 0.  1.
         14    1    4    4    0    0 -0.10750557711E+02  0.76231742328E+02  0.22354815893E+01  0.77018506915E+02  0.00000000000E+00 0. -1.
         -5    1    5    5    0  502 -0.26279631443E+02  0.27924280290E+02 -0.65347922173E+02  0.75913275459E+02  0.47000000000E+01 0.  1.
         13    1    6    6    0    0 -0.39617546807E+01 -0.80164872264E+02 -0.35198666715E+02  0.87641590491E+02  0.00000000000E+00 0. -1.
        -14    1    6    6    0    0 -0.21764935952E+01 -0.81232473828E+02 -0.14745819090E+03  0.16836677224E+03  0.00000000000E+00 0.  1.
</event>
<event>
12    1  0.8633375E-002  0.1819867E+03  0.7818608E-02  0.1166046E+00
         21   -1    0    0  503  502  0.00000000000E+00  0.00000000000E+00  0.37619656570E+03  0.37619656570E+03  0.00000000000E+00 0. -1.
         21   -1    0    0  501  503 -0.00000000000E+00 -0.00000000000E+00 -0.10854060192E+03  0.10854060192E+03  0.00000000000E+00 0. -1.
          6    2    1    2  501    0  0.57504844987E+02  0.72960366818E+01  0.23976721953E+03  0.30062591983E+03  0.17183592397E+03 0.  0.
         24    2    3    3    0    0  0.86818106830E+02 -0.93502061332E+01  0.23920903527E+03  0.26658526341E+03  0.78879211992E+02 0.  0.
         -6    2    1    2    0  502 -0.57504844987E+02 -0.72960366818E+01  0.27888744252E+02  0.18411124778E+03  0.17250834807E+03 0.  0.
        -24    2    5    5    0    0 -0.36875128035E+02  0.31137225252E+02  0.75236555330E+02  0.11956199482E+03  0.79405475142E+02 0.  0.
          5    1    3    3  501    0 -0.29313261844E+02  0.16646242815E+02  0.55818425322E+00  0.34040656419E+02  0.47000000000E+01 0. -1.
        -13    1    4    4    0    0  0.82183099269E+01  0.28894056892E+02  0.54259631058E+02  0.62020276558E+02  0.00000000000E+00 0.  1.
         14    1    4    4    0    0  0.78599796903E+02 -0.38244263026E+02  0.18494940422E+03  0.20456498686E+03  0.00000000000E+00 0. -1.
         -5    1    5    5    0  502 -0.20629716952E+02 -0.38433261934E+02 -0.47347811078E+02  0.64549252964E+02  0.47000000000E+01 0.  1.
         11    1    6    6    0    0 -0.37758406058E+02  0.54237869042E+01 -0.19545261769E+01  0.38196005878E+02  0.00000000000E+00 0. -1.
        -12    1    6    6    0    0  0.88327802348E+00  0.25713438348E+02  0.77191081507E+02  0.81365988938E+02  0.00000000000E+00 0.  1.
</event>
<event>
12    1  0.8633375E-002  0.2201566E+03  0.7818608E-02  0.1134473E+00
         21   -1    0    0  503  502  0.00000000000E+00  0.00000000000E+00  0.16286563291E+03  0.16286563291E+03  0.00000000000E+00 0. -1.
         21   -1    0    0  501  503 -0.00000000000E+00 -0.00000000000E+00 -0.59682082934E+03  0.59682082934E+03  0.00000000000E+00 0.  1.
          6    2    1    2  501    0 -0.64282329498E+02 -0.12125332584E+03 -0.48727562513E+03  0.53316490058E+03  0.16731015946E+03 0.  0.
         24    2    3    3    0    0 -0.36458111734E+02 -0.89081992135E+02 -0.47114254774E+03  0.48743145557E+03  0.79682672874E+02 0.  0.
         -6    2    1    2    0  502  0.64282329498E+02  0.12125332584E+03  0.53320428695E+02  0.22652156167E+03  0.17214634144E+03 0.  0.
        -24    2    5    5    0    0  0.81428509970E+02  0.23286646764E+02  0.51629517227E+02  0.12694038425E+03  0.79217321030E+02 0.  0.
          5    1    3    3  501    0 -0.27824217764E+02 -0.32171333709E+02 -0.16133077387E+02  0.45733445013E+02  0.47000000000E+01 0. -1.
        -11    1    4    4    0    0 -0.57383142834E+02 -0.62550312733E+02 -0.25742197834E+03  0.27105615956E+03  0.00000000000E+00 0.  1.
         12    1    4    4    0    0  0.20925031100E+02 -0.26531679402E+02 -0.21372056940E+03  0.21637529601E+03  0.00000000000E+00 0. -1.
         -5    1    5    5    0  502 -0.17146180472E+02  0.97966679079E+02  0.16909114687E+01  0.99581177419E+02  0.47000000000E+01 0.  1.
         13    1    6    6    0    0  0.19149779423E+02  0.34220175934E+02  0.50190046784E+02  0.63692819761E+02  0.00000000000E+00 0. -1.
        -14    1    6    6    0    0  0.62278730547E+02 -0.10933529170E+02  0.14394704422E+01  0.63247564489E+02  0.00000000000E+00 0.  1.
</event>
<event>
12    1  0.8633375E-002  0.3581434E+03  0.7818608E-02  0.1059401E+00
         21   -1    0    0  503  502  0.00000000000E+00  0.00000000000E+00  0.37956049471E+03  0.37956049471E+03  0.00000000000E+00 0.  1.
         21   -1    0    0  501  503 -0.00000000000E+00 -0.00000000000E+00 -0.34474737996E+03  0.34474737996E+03  0.00000000000E+00 0. -1.
          6    2    1    2  501    0 -0.61126441859E+02  0.30801052735E+03 -0.36273277724E+02  0.35917781706E+03  0.17054625982E+03 0.  0.
         24    2    3    3    0    0 -0.55836371725E+02  0.70380087656E+02 -0.15873085082E+01  0.11892499778E+03  0.77907499017E+02 0.  0.
         -6    2    1    2    0  502  0.61126441859E+02 -0.30801052735E+03  0.71086392472E+02  0.36513005761E+03  0.17222008280E+03 0.  0.
        -24    2    5    5    0    0  0.60234603832E+01 -0.59504354015E+02 -0.42155551973E+01  0.99641583137E+02  0.79584068523E+02 0.  0.
          5    1    3    3  501    0 -0.52900701336E+01  0.23763043969E+03 -0.34685969215E+02  0.24025281928E+03  0.47000000000E+01 0. -1.
        -11    1    4    4    0    0  0.18735496988E+02  0.43588107497E+01 -0.18700577301E+01  0.19326541192E+02  0.00000000000E+00 0.  1.
         12    1    4    4    0    0 -0.74571868713E+02  0.66021276906E+02  0.28274922189E+00  0.99598456589E+02  0.00000000000E+00 0. -1.
         -5    1    5    5    0  502  0.55102981476E+02 -0.24850617333E+03  0.75301947670E+02  0.26548847447E+03  0.47000000000E+01 0.  1.
         11    1    6    6    0    0 -0.28698077265E+02  0.16509709139E+01 -0.56815937834E+01  0.29301635647E+02  0.00000000000E+00 0. -1.
        -12    1    6    6    0    0  0.34721537648E+02 -0.61155324929E+02  0.14660385861E+01  0.70339947490E+02  0.00000000000E+00 0.  1.
</event>
<event>
12    1  0.8633375E-002  0.1845418E+03  0.7818608E-02  0.1164076E+00
         21   -1    0    0  501  502  0.00000000000E+00  0.00000000000E+00  0.14310492012E+03  0.14310492012E+03  0.00000000000E+00 0. -1.
         21   -1    0    0  502  503 -0.00000000000E+00 -0.00000000000E+00 -0.29143998710E+03  0.29143998710E+03  0.00000000000E+00 0. -1.
         -6    2    1    2    0  503  0.66469936178E+02  0.61262067067E+01 -0.16960252057E+03  0.24878170947E+03  0.16932672901E+03 0.  0.
        -24    2    3    3    0    0  0.92822283016E+02 -0.31300853356E+02 -0.16718727826E+03  0.20270400982E+03  0.59511426978E+02 0.  0.
          6    2    1    2  501    0 -0.66469936178E+02 -0.61262067067E+01  0.21267453594E+02  0.18576319776E+03  0.17204615147E+03 0.  0.
         24    2    5    5    0    0 -0.44285456341E+02 -0.30444638101E+02 -0.50017383575E+02  0.10710472548E+03  0.77984651870E+02 0.  0.
          5    1    5    5  501    0 -0.22184479837E+02  0.24318431395E+02  0.71284837169E+02  0.78658472280E+02  0.47000000000E+01 0. -1.
        -13    1    6    6    0    0 -0.24401214403E+02  0.62491569440E+01 -0.59231233175E+02  0.64364665852E+02  0.00000000000E+00 0.  1.
         14    1    6    6    0    0 -0.19884241938E+02 -0.36693795045E+02  0.92138495994E+01  0.42740059625E+02  0.00000000000E+00 0. -1.
         -5    1    3    3    0  503 -0.26352346839E+02  0.37427060062E+02 -0.24152423046E+01  0.46077699641E+02  0.47000000000E+01 0.  1.
         13    1    4    4    0    0  0.19587241510E+02 -0.34938529853E+02 -0.73809279050E+02  0.83977202693E+02  0.00000000000E+00 0. -1.
        -14    1    4    4    0    0  0.73235041506E+02  0.36376764969E+01 -0.93377999213E+02  0.11872680713E+03  0.00000000000E+00 0.  1.
</event>
<event>
12    1  0.8633375E-002  0.2285987E+03  0.7818608E-02  0.1128474E+00
         21   -1    0    0  501  502  0.00000000000E+00  0.00000000000E+00  0.94187015092E+02  0.94187015092E+02  0.00000000000E+00 0.  1.
         21   -1    0    0  502  503 -0.00000000000E+00 -0.00000000000E+00 -0.85629352602E+03  0.85629352602E+03  0.00000000000E+00 0.  1.
         -6    2    1    2    0  503  0.12904883993E+03 -0.60751697670E+02 -0.67080952967E+03  0.70869089140E+03  0.17864205161E+03 0.  0.
        -24    2    3    3    0    0  0.83244228353E+02 -0.46043767966E+02 -0.19785691834E+03  0.23327460203E+03  0.78867291665E+02 0.  0.
          6    2    1    2  501    0 -0.12904883993E+03  0.60751697670E+02 -0.91296981259E+02  0.24178964971E+03  0.17257671935E+03 0.  0.
         24    2    5    5    0    0 -0.14105120371E+03  0.33393766344E+02 -0.11638876798E+03  0.20249332796E+03  0.80290826734E+02 0.  0.
          5    1    5    5  501    0  0.12002363774E+02  0.27357931326E+02  0.25091786719E+02  0.39296321754E+02  0.47000000000E+01 0. -1.
        -11    1    6    6    0    0 -0.63707028959E+02  0.55273180978E+02 -0.48585851737E+02  0.97335990586E+02  0.00000000000E+00 0.  1.
         12    1    6    6    0    0 -0.77344174747E+02 -0.21879414634E+02 -0.67802916241E+02  0.10515733737E+03  0.00000000000E+00 0. -1.
         -5    1    3    3    0  503  0.45804611579E+02 -0.14707929704E+02 -0.47295261132E+03  0.47541628937E+03  0.47000000000E+01 0.  1.
         11    1    4    4    0    0  0.97678795808E+02 -0.35497809362E+02 -0.15273970071E+03  0.18474484511E+03  0.00000000000E+00 0. -1.
        -12    1    4    4    0    0 -0.14434567455E+02 -0.10545958605E+02 -0.45117217628E+02  0.48529756923E+02  0.00000000000E+00 0.  1.
</event>
<event>
12    1  0.8633375E-002  0.2012046E+03  0.7818608E-02  0.1148820E+00
         21   -1    0    0  503  502  0.00000000000E+00  0.00000000000E+00  0.12618904121E+04  0.12618904121E+04  0.00000000000E+00 0.  1.
         21   -1    0    0  501  503 -0.00000000000E+00 -0.00000000000E+00 -0.90131572034E+02  0.90131572034E+02  0.00000000000E+00 0.  1.
          6    2    1    2  501    0  0.98861612475E+02  0.31170223140E+02  0.43257567817E+02  0.20580209077E+03  0.17244733156E+03 0.  0.
         24    2    3    3    0    0  0.12477220962E+03  0.45389325289E+02  0.26174010691E+01  0.15533175232E+03  0.80577958202E+02 0.  0.
         -6    2    1    2    0  502 -0.98861612475E+02 -0.31170223140E+02  0.11285012722E+04  0.11462198934E+04  0.17192940770E+03 0.  0.
        -24    2    5    5    0    0 -0.10478170599E+03  0.32968255498E+02  0.73724494621E+03  0.74966927287E+03  0.80048711321E+02 0.  0.
          5    1    3    3  501    0 -0.25910597143E+02 -0.14219102149E+02  0.40640166748E+02  0.50470338453E+02  0.47000000000E+01 0. -1.
        -11    1    4    4    0    0  0.36527745025E+02  0.20830848497E+02  0.38445550494E+02  0.56975966499E+02  0.00000000000E+00 0.  1.
         12    1    4    4    0    0  0.88244464593E+02  0.24558476793E+02 -0.35828149425E+02  0.98355785823E+02  0.00000000000E+00 0. -1.
         -5    1    5    5    0  502  0.59200935150E+01 -0.64138478638E+02  0.39125632603E+03  0.39655062048E+03  0.47000000000E+01 0.  1.
         11    1    6    6    0    0 -0.81329196054E+02  0.23087436909E+02  0.30001499598E+03  0.31169931935E+03  0.00000000000E+00 0. -1.
        -12    1    6    6    0    0 -0.23452509935E+02  0.98808185885E+01  0.43722995024E+03  0.43796995351E+03  0.00000000000E+00 0.  1.
</event>
<event>
12    1  0.8633375E-002  0.1842952E+03  0.7818608E-02  0.1163805E+00
         21   -1    0    0  503  502  0.00000000000E+00  0.00000000000E+00  0.51397716954E+02  0.51397716954E+02  0.00000000000E+00 0.  1.
         21   -1    0    0  501  503 -0.00000000000E+00 -0.00000000000E+00 -0.84372514888E+03  0.84372514888E+03  0.00000000000E+00 0.  1.
          6    2    1    2  501    0  0.59225469076E+02 -0.25971339734E+02 -0.60572107953E+03  0.63313723956E+03  0.17257627665E+03 0.  0.
         24    2    3    3    0    0  0.10339898138E+03 -0.33217446606E+02 -0.51113185053E+03  0.52838506776E+03  0.78359830890E+02 0.  0.
         -6    2    1    2    0  502 -0.59225469076E+02  0.25971339734E+02 -0.18660635240E+03  0.26198562627E+03  0.17214055578E+03 0.  0.
        -24    2    5    5    0    0  0.23995342719E+02  0.52910309668E+01 -0.14145696023E+03  0.16496018476E+03  0.81228193874E+02 0.  0.
          5    1    3    3  501    0 -0.44173512308E+02  0.72461068721E+01 -0.94589228995E+02  0.10475217180E+03  0.47000000000E+01 0. -1.
        -13    1    4    4    0    0  0.19732772779E+02 -0.39934818948E+02 -0.11219842850E+03  0.12071727069E+03  0.00000000000E+00 0.  1.
         14    1    4    4    0    0  0.83666208605E+02  0.67173723414E+01 -0.39893342203E+03  0.40766779707E+03  0.00000000000E+00 0. -1.
         -5    1    5    5    0  502 -0.83220811794E+02  0.20680308767E+02 -0.45149392171E+02  0.97025441508E+02  0.47000000000E+01 0.  1.
         11    1    6    6    0    0 -0.11474478398E+02  0.33269207823E+02 -0.89151304552E+02  0.95846016855E+02  0.00000000000E+00 0. -1.
        -12    1    6    6    0    0  0.35469821116E+02 -0.27978176856E+02 -0.52305655674E+02  0.69114167909E+02  0.00000000000E+00 0.  1.
</event>
<event>
12    1  0.8633375E-002  0.2377943E+03  0.7818608E-02  0.1121323E+00
         21   -1    0    0  501  502  0.00000000000E+00  0.00000000000E+00  0.27734374956E+04  0.27734374956E+04  0.00000000000E+00 0.  1.
         21   -1    0    0  502  503 -0.00000000000E+00 -0.00000000000E+00 -0.21974455325E+02  0.21974455325E+02  0.00000000000E+00 0.  1.
         -6    2    1    2    0  503 -0.28204900740E+02  0.16041915450E+03  0.17535197284E+04  0.17695284369E+04  0.17282832323E+03 0.  0.
        -24    2    3    3    0    0  0.34185636783E+02  0.14473028927E+03  0.10888130298E+04  0.11016992635E+04  0.78178889825E+02 0.  0.
          6    2    1    2  501    0  0.28204900740E+02 -0.16041915450E+03  0.99794331189E+03  0.10258835141E+04  0.17325215501E+03 0.  0.
         24    2    5    5    0    0 -0.24339970836E+02 -0.27966534548E+02  0.26370826214E+03  0.27793441267E+03  0.79567135112E+02 0.  0.
          5    1    5    5  501    0  0.52544871576E+02 -0.13245261995E+03  0.73423504975E+03  0.74794910144E+03  0.47000000000E+01 0. -1.
        -13    1    6    6    0    0  0.14726507400E+02 -0.84772478564E+01  0.19989484354E+03  0.20061575767E+03  0.00000000000E+00 0.  1.
         14    1    6    6    0    0 -0.39066478236E+02 -0.19489286692E+02  0.63813418599E+02  0.77318654999E+02  0.00000000000E+00 0. -1.
         -5    1    3    3    0  503 -0.62390537523E+02  0.15688865229E+02  0.66470669862E+03  0.66782917341E+03  0.47000000000E+01 0.  1.
         11    1    4    4    0    0  0.18182725706E+02  0.17132886525E+02  0.41331972265E+03  0.41407407603E+03  0.00000000000E+00 0. -1.
        -12    1    4    4    0    0  0.16002911077E+02  0.12759740275E+03  0.67549330716E+03  0.68762518742E+03  0.00000000000E+00 0.  1.
</event>
<event>
12    1  0.8633375E-002  0.2016440E+03  0.7818608E-02  0.1148488E+00
         21   -1    0    0  503  502  0.00000000000E+00  0.00000000000E+00  0.10565772641E+04  0.10565772641E+04  0.00000000000E+00 0.  1.
         21   -1    0    0  501  503 -0.00000000000E+00 -0.00000000000E+00 -0.51470358806E+02  0.51470358806E+02  0.00000000000E+00 0.  1.
          6    2    1    2  501    0 -0.80126265869E+02 -0.67362515053E+02  0.22357388096E+03  0.30107406673E+03  0.17234380317E+03 0.  0.
         24    2    3    3    0    0 -0.16206949959E+02  0.13397132251E+02  0.78679749966E+02  0.12324212703E+03  0.92498488860E+02 0.  0.
         -6    2    1    2    0  502  0.80126265869E+02  0.67362515053E+02  0.78153302432E+03  0.80697355617E+03  0.17162320743E+03 0.  0.
        -24    2    5    5    0    0 -0.16747519826E+02  0.61361939475E+02  0.45370204597E+03  0.46504406398E+03  0.79841517309E+02 0.  0.
          5    1    3    3  501    0 -0.63919315911E+02 -0.80759647304E+02  0.14489413100E+03  0.17783193970E+03  0.47000000000E+01 0. -1.
        -11    1    4    4    0    0 -0.49851281472E+02 -0.53582465214E+01  0.65592835729E+02  0.82560772581E+02  0.00000000000E+00 0.  1.
         12    1    4    4    0    0  0.33644331513E+02  0.18755378772E+02  0.13086914237E+02  0.40681354453E+02  0.00000000000E+00 0. -1.
         -5    1    5    5    0  502  0.96873785695E+02  0.60005755784E+01  0.32783097835E+03  0.34192949219E+03  0.47000000000E+01 0.  1.
         11    1    6    6    0    0 -0.17984142472E+02 -0.92643768908E+01  0.21927069705E+03  0.22020194514E+03  0.00000000000E+00 0. -1.
        -12    1    6    6    0    0  0.12366226466E+01  0.70626316366E+02  0.23443134892E+03  0.24484211884E+03  0.00000000000E+00 0.  1.
</event>
<event>
12    1  0.8633375E-002  0.2009752E+03  0.7818608E-02  0.1148930E+00
         21   -1    0    0  503  502  0.00000000000E+00  0.00000000000E+00  0.75680768400E+03  0.75680768400E+03  0.00000000000E+00 0. -1.
         21   -1    0    0  501  503 -0.00000000000E+00 -0.00000000000E+00 -0.12691787661E+03  0.12691787661E+03  0.00000000000E+00 0.  1.
          6    2    1    2  501    0 -0.63884076037E+02 -0.82737594142E+02 -0.21434572556E+02  0.20211503906E+03  0.17165186704E+03 0.  0.
         24    2    3    3    0    0  0.11582606335E+01 -0.11801680654E+02 -0.57926015132E+02  0.99080458639E+02  0.79504042797E+02 0.  0.
         -6    2    1    2    0  502  0.63884076037E+02  0.82737594142E+02  0.65132437994E+03  0.68161052155E+03  0.17158895804E+03 0.  0.
        -24    2    5    5    0    0  0.53094896006E+02  0.22855965985E+02  0.57746689150E+03  0.58580220043E+03  0.79716648741E+02 0.  0.
          5    1    3    3  501    0 -0.65042336671E+02 -0.70935913487E+02  0.36491442576E+02  0.10303458042E+03  0.47000000000E+01 0. -1.
        -11    1    4    4    0    0  0.29826387908E+02  0.12859807290E+02 -0.33078529961E+01  0.32648582674E+02  0.00000000000E+00 0.  1.
         12    1    4    4    0    0 -0.28668127275E+02 -0.24661487945E+02 -0.54618162136E+02  0.66431875965E+02  0.00000000000E+00 0. -1.
         -5    1    5    5    0  502  0.10789180031E+02  0.59881628157E+02  0.73857488448E+02  0.95808321123E+02  0.47000000000E+01 0.  1.
         11    1    6    6    0    0  0.14756679473E+02  0.38145779571E+01  0.46822217970E+03  0.46847019133E+03  0.00000000000E+00 0. -1.
        -12    1    6    6    0    0  0.38338216532E+02  0.19041388027E+02  0.10924471179E+03  0.11733200910E+03  0.00000000000E+00 0.  1.
</event>
<event>
12    1  0.8633375E-002  0.2044111E+03  0.7818608E-02  0.1146373E+00
         21   -1    0    0  503  502  0.00000000000E+00  0.00000000000E+00  0.64279421133E+02  0.64279421133E+02  0.00000000000E+00 0.  1.
         21   -1    0    0  501  503 -0.00000000000E+00 -0.00000000000E+00 -0.13259828498E+04  0.13259828498E+04  0.00000000000E+00 0.  1.
          6    2    1    2  501    0  0.10885731139E+03  0.12798051709E+02 -0.11299886239E+04  0.11483284386E+04  0.17254045442E+03 0.  0.
         24    2    3    3    0    0  0.31760522149E+02 -0.49015985913E+02 -0.70814541871E+03  0.71504023208E+03  0.80008135865E+02 0.  0.
         -6    2    1    2    0  502 -0.10885731139E+03 -0.12798051709E+02 -0.13171480477E+03  0.24193383233E+03  0.17079076397E+03 0.  0.
        -24    2    5    5    0    0 -0.44393940194E+02 -0.69699022124E+02 -0.55095570652E+02  0.12666959807E+03  0.78618633667E+02 0.  0.
          5    1    3    3  501    0  0.77096789244E+02  0.61814037621E+02 -0.42184320518E+03  0.43328820652E+03  0.47000000000E+01 0. -1.
        -11    1    4    4    0    0  0.44047337633E+02 -0.25626981202E+02 -0.20633503985E+03  0.21253484135E+03  0.00000000000E+00 0.  1.
         12    1    4    4    0    0 -0.12286815483E+02 -0.23389004711E+02 -0.50181037886E+03  0.50250539072E+03  0.00000000000E+00 0. -1.
         -5    1    5    5    0  502 -0.64463371200E+02  0.56900970416E+02 -0.76619234122E+02  0.11526423425E+03  0.47000000000E+01 0.  1.
         11    1    6    6    0    0 -0.66573629780E+02 -0.42590878991E+02 -0.38564369055E+02  0.87938852141E+02  0.00000000000E+00 0. -1.
        -12    1    6    6    0    0  0.22179689586E+02 -0.27108143134E+02 -0.16531201597E+02  0.38730745933E+02  0.00000000000E+00 0.  1.
</event>
<event>
12    1  0.8633375E-002  0.1939153E+03  0.7818608E-02  0.1155295E+00
         21   -1    0    0  503  502  0.00000000000E+00  0.00000000000E+00  0.49108959680E+03  0.49108959680E+03  0.00000000000E+00 0.  1.
         21   -1    0    0  501  503 -0.00000000000E+00 -0.00000000000E+00 -0.78229101085E+02  0.78229101085E+02  0.00000000000E+00 0. -1.
          6    2    1    2  501    0  0.78251643416E+02  0.29908486306E+02  0.25371535387E+03  0.31845952167E+03  0.17328343516E+03 0.  0.
         24    2    3    3    0    0  0.59789706035E+01  0.60841460269E+01  0.22051719256E+03  0.23530216277E+03  0.81648702776E+02 0.  0.
         -6    2    1    2    0  502 -0.78251643416E+02 -0.29908486306E+02  0.15914514184E+03  0.25085917622E+03  0.17488657144E+03 0.  0.
        -24    2    5    5    0    0 -0.10586290034E+03 -0.57341406412E+02  0.15539967205E+03  0.21147561165E+03  0.77960795852E+02 0.  0.
          5    1    3    3  501    0  0.72272672813E+02  0.23824340279E+02  0.33198161313E+02  0.83157358904E+02  0.47000000000E+01 0. -1.
        -13    1    4    4    0    0  0.18261371188E+02  0.40526160970E+02  0.10180972680E+03  0.11109035904E+03  0.00000000000E+00 0.  1.
         14    1    4    4    0    0 -0.12282400584E+02 -0.34442014943E+02  0.11870746576E+03  0.12421180372E+03  0.00000000000E+00 0. -1.
         -5    1    5    5    0  502  0.27611256920E+02  0.27432920106E+02  0.37454697878E+01  0.39383564569E+02  0.47000000000E+01 0.  1.
         11    1    6    6    0    0 -0.32665574734E+02 -0.44009746433E+02  0.22661685995E+02  0.59308090223E+02  0.00000000000E+00 0. -1.
        -12    1    6    6    0    0 -0.73197325602E+02 -0.13331659979E+02  0.13273798606E+03  0.15216752142E+03  0.00000000000E+00 0.  1.
</event>
<event>
12    1  0.8633375E-002  0.2069735E+03  0.7818608E-02  0.1144842E+00
         21   -1    0    0  501  502  0.00000000000E+00  0.00000000000E+00  0.16037670688E+04  0.16037670688E+04  0.00000000000E+00 0.  1.
         21   -1    0    0  502  503 -0.00000000000E+00 -0.00000000000E+00 -0.63610392498E+02  0.63610392498E+02  0.00000000000E+00 0. -1.
         -6    2    1    2    0  503  0.88820125169E+02 -0.60125116987E+02  0.13375105768E+03  0.24642926098E+03  0.17701409805E+03 0.  0.
        -24    2    3    3    0    0  0.13054723686E+02 -0.71269935110E+02  0.13049880226E+03  0.16963557506E+03  0.80600629469E+02 0.  0.
          6    2    1    2  501    0 -0.88820125169E+02  0.60125116987E+02  0.14064056186E+04  0.14209482003E+04  0.17208422227E+03 0.  0.
         24    2    5    5    0    0 -0.14736098712E+02 -0.24147693308E+02  0.78155570800E+03  0.78608612841E+03  0.79383958593E+02 0.  0.
          5    1    5    5  501    0 -0.74084026457E+02  0.84272810295E+02  0.62484991061E+03  0.63486207188E+03  0.47000000000E+01 0. -1.
        -11    1    6    6    0    0 -0.26803792302E+02  0.22726572315E+02  0.27886307373E+03  0.28106859352E+03  0.00000000000E+00 0.  1.
         12    1    6    6    0    0  0.12067693590E+02 -0.46874265622E+02  0.50269263427E+03  0.50501753490E+03  0.00000000000E+00 0. -1.
         -5    1    3    3    0  503  0.75765401483E+02  0.11144818123E+02  0.32522554128E+01  0.76793685926E+02  0.47000000000E+01 0.  1.
         13    1    4    4    0    0  0.16121582960E+02 -0.51496632150E+01 -0.59824147374E+01  0.17950313492E+02  0.00000000000E+00 0. -1.
        -14    1    4    4    0    0 -0.30668592737E+01 -0.66120271894E+02  0.13648121700E+03  0.15168526156E+03  0.00000000000E+00 0.  1.
</event>
<event>
12    1  0.8633375E-002  0.2022546E+03  0.7818608E-02  0.1148018E+00
         21   -1    0    0  503  502  0.00000000000E+00  0.00000000000E+00  0.24169988726E+02  0.24169988726E+02  0.00000000000E+00 0. -1.
         21   -1    0    0  501  503 -0.00000000000E+00 -0.00000000000E+00 -0.19048497085E+04  0.19048497085E+04  0.00000000000E+00 0. -1.
          6    2    1    2  501    0  0.11468850702E+02  0.10464891266E+03 -0.12691086264E+04  0.12851239681E+04  0.17269620193E+03 0.  0.
         24    2    3    3    0    0 -0.33633322367E+02  0.10990346018E+03 -0.68098838461E+03  0.69523471989E+03  0.79976026547E+02 0.  0.
         -6    2    1    2    0  502 -0.11468850702E+02 -0.10464891266E+03 -0.61157109331E+03  0.64389572913E+03  0.17175441292E+03 0.  0.
        -24    2    5    5    0    0  0.35606558660E+02 -0.11567118852E+03 -0.36787109558E+03  0.39540153679E+03  0.79784594115E+02 0.  0.
          5    1    3    3  501    0  0.45102173068E+02 -0.52545475216E+01 -0.58812024182E+03  0.58988924819E+03  0.47000000000E+01 0. -1.
        -13    1    4    4    0    0 -0.54365708721E+01 -0.78237948165E+01 -0.11709203253E+02  0.15095479754E+02  0.00000000000E+00 0.  1.
         14    1    4    4    0    0 -0.28196751495E+02  0.11772725500E+03 -0.66927918136E+03  0.68013924013E+03  0.00000000000E+00 0. -1.
         -5    1    5    5    0  502 -0.47075409362E+02  0.11022275861E+02 -0.24369999773E+03  0.24849419234E+03  0.47000000000E+01 0.  1.
         11    1    6    6    0    0  0.26027522355E+02 -0.20235810495E+02 -0.31408404432E+02  0.45534688044E+02  0.00000000000E+00 0. -1.
        -12    1    6    6    0    0  0.95790363053E+01 -0.95435378025E+02 -0.33646269115E+03  0.34986684875E+03  0.00000000000E+00 0.  1.
</event>
<event>
12    1  0.8633375E-002  0.1729733E+03  0.7818608E-02  0.1175775E+00
         21   -1    0    0  501  502  0.00000000000E+00  0.00000000000E+00  0.62772947753E+02  0.62772947753E+02  0.00000000000E+00 0.  1.
         21   -1    0    0  502  503 -0.00000000000E+00 -0.00000000000E+00 -0.98468417591E+03  0.98468417591E+03  0.00000000000E+00 0.  1.
         -6    2    1    2    0  503 -0.23165341933E+02  0.11390650180E+02 -0.84347735220E+03  0.86103067233E+03  0.17103623893E+03 0.  0.
        -24    2    3    3    0    0 -0.29239792519E+01 -0.22774356225E+02 -0.78753107188E+03  0.79226268044E+03  0.83353132432E+02 0.  0.
          6    2    1    2  501    0  0.23165341933E+02 -0.11390650180E+02 -0.78433875956E+02  0.18642645134E+03  0.16714236113E+03 0.  0.
         24    2    5    5    0    0 -0.36153792271E+02 -0.47987219518E+02 -0.50751196478E+02  0.11128332582E+03  0.78730075119E+02 0.  0.
          5    1    5    5  501    0  0.59319134204E+02  0.36596569338E+02 -0.27682679477E+02  0.75143125521E+02  0.47000000000E+01 0. -1.
        -13    1    6    6    0    0 -0.96943318140E+01 -0.51279741412E+02 -0.63111531965E+02  0.81894184260E+02  0.00000000000E+00 0.  1.
         14    1    6    6    0    0 -0.26459460457E+02  0.32925218932E+01  0.12360335487E+02  0.29389141557E+02  0.00000000000E+00 0. -1.
         -5    1    3    3    0  503 -0.20241362681E+02  0.34165006405E+02 -0.55946280319E+02  0.68767991881E+02  0.47000000000E+01 0.  1.
         11    1    4    4    0    0  0.10465699213E+02 -0.29727093241E+01 -0.11381282539E+02  0.15744886566E+02  0.00000000000E+00 0. -1.
        -12    1    4    4    0    0 -0.13389678465E+02 -0.19801646901E+02 -0.77614978935E+03  0.77651779388E+03  0.00000000000E+00 0.  1.
</event>
<event>
12    1  0.8633375E-002  0.1726897E+03  0.7818608E-02  0.1175330E+00
         21   -1    0    0  501  502  0.00000000000E+00  0.00000000000E+00  0.10610016388E+04  0.10610016388E+04  0.00000000000E+00 0.  1.
         21   -1    0    0  502  503 -0.00000000000E+00 -0.00000000000E+00 -0.71172268512E+02  0.71172268512E+02  0.00000000000E+00 0.  1.
         -6    2    1    2    0  503 -0.39152621285E+01 -0.14363017444E+02  0.93552498975E+03  0.95114714393E+03  0.17103291324E+03 0.  0.
        -24    2    3    3    0    0 -0.19320191788E+02  0.22238068086E+02  0.87062220768E+03  0.87491452335E+03  0.81391603880E+02 0.  0.
          6    2    1    2  501    0  0.39152621285E+01  0.14363017444E+02  0.54304380565E+02  0.18102676341E+03  0.17204678949E+03 0.  0.
         24    2    5    5    0    0  0.65744581102E+01  0.75878864746E+02  0.33311522510E+02  0.11580360125E+03  0.80622521148E+02 0.  0.
          5    1    5    5  501    0 -0.26591959817E+01 -0.61515847302E+02  0.20992858055E+02  0.65223162158E+02  0.47000000000E+01 0. -1.
        -11    1    6    6    0    0 -0.14066005930E+02  0.20839783340E+02 -0.23237895543E+02  0.34236659909E+02  0.00000000000E+00 0.  1.
         12    1    6    6    0    0  0.20640464040E+02  0.55039081406E+02  0.56549418053E+02  0.81566941343E+02  0.00000000000E+00 0. -1.
         -5    1    3    3    0  503  0.15404929660E+02 -0.36601085530E+02  0.64902782072E+02  0.76232620580E+02  0.47000000000E+01 0.  1.
         13    1    4    4    0    0 -0.48293689432E+02  0.15196725737E+02  0.68933007859E+03  0.69118678963E+03  0.00000000000E+00 0. -1.
        -14    1    4    4    0    0  0.28973497644E+02  0.70413423485E+01  0.18129212909E+03  0.18372773372E+03  0.00000000000E+00 0.  1.
</event>
<event>
12    1  0.8633375E-002  0.2363329E+03  0.7818608E-02  0.1123496E+00
         21   -1    0    0  503  502  0.00000000000E+00  0.00000000000E+00  0.42974070870E+02  0.42974070870E+02  0.00000000000E+00 0.  1.
         21   -1    0    0  501  503 -0.00000000000E+00 -0.00000000000E+00 -0.15716476881E+04  0.15716476881E+04  0.00000000000E+00 0.  1.
          6    2    1    2  501    0 -0.13326750339E+03  0.71423681074E+02 -0.11328594732E+04  0.11572483793E+04  0.18163605267E+03 0.  0.
         24    2    3    3    0    0 -0.58159186589E+02  0.94327830160E+02 -0.44786678995E+03  0.46775369082E+03  0.76997553255E+02 0.  0.
         -6    2    1    2    0  502  0.13326750339E+03 -0.71423681074E+02 -0.39581414404E+03  0.45737337970E+03  0.17222079480E+03 0.  0.
        -24    2    5    5    0    0  0.14509492663E+03 -0.26604946040E+02 -0.22834379473E+03  0.28354295991E+03  0.80593800214E+02 0.  0.
          5    1    3    3  501    0 -0.75108316805E+02 -0.22904149085E+02 -0.68499268324E+03  0.68949468844E+03  0.47000000000E+01 0. -1.
        -11    1    4    4    0    0 -0.29531378477E+02  0.42729480936E+02 -0.34722715691E+03  0.35109059991E+03  0.00000000000E+00 0.  1.
         12    1    4    4    0    0 -0.28627808113E+02  0.51598349224E+02 -0.10063963304E+03  0.11666309090E+03  0.00000000000E+00 0. -1.
         -5    1    5    5    0  502 -0.11827423235E+02 -0.44818735034E+02 -0.16747034930E+03  0.17383041980E+03  0.47000000000E+01 0.  1.
         11    1    6    6    0    0  0.65242683754E+01 -0.11846212458E+02  0.26387344422E+01  0.13779032872E+02  0.00000000000E+00 0. -1.
        -12    1    6    6    0    0  0.13857065825E+03 -0.14758733583E+02 -0.23098252917E+03  0.26976392704E+03  0.00000000000E+00 0.  1.
</event>
<event>
12    1  0.8633375E-002  0.2593206E+03  0.7818608E-02  0.1107590E+00
         21   -1    0    0  503  502  0.00000000000E+00  0.00000000000E+00  0.82695676034E+03  0.82695676034E+03  0.00000000000E+00 0. -1.
         21   -1    0    0  501  503 -0.00000000000E+00 -0.00000000000E+00 -0.17306072341E+03  0.17306072341E+03  0.00000000000E+00 0.  1.
          6    2    1    2  501    0  0.17134513778E+03 -0.89586210674E+02 -0.37334917476E+02  0.26174421804E+03  0.17242764927E+03 0.  0.
         24    2    3    3    0    0  0.13733209083E+03 -0.29204228716E+02 -0.81481287069E+02  0.17944073661E+03  0.76464290136E+02 0.  0.
         -6    2    1    2    0  502 -0.17134513778E+03  0.89586210674E+02  0.69123095441E+03  0.73827326571E+03  0.17280722541E+03 0.  0.
        -24    2    5    5    0    0 -0.66887240879E+02  0.12232904998E+02  0.16372029661E+03  0.19496435707E+03  0.81137032530E+02 0.  0.
          5    1    3    3  501    0  0.34013046942E+02 -0.60381981958E+02  0.44146369592E+02  0.82303481431E+02  0.47000000000E+01 0. -1.
        -11    1    4    4    0    0  0.26070092418E+02  0.15461761243E+02 -0.44747425789E+02  0.54046719551E+02  0.00000000000E+00 0.  1.
         12    1    4    4    0    0  0.11126199842E+03 -0.44665989959E+02 -0.36733861280E+02  0.12539401706E+03  0.00000000000E+00 0. -1.
         -5    1    5    5    0  502 -0.10445789690E+03  0.77353305676E+02  0.52751065780E+03  0.54330890865E+03  0.47000000000E+01 0.  1.
         11    1    6    6    0    0 -0.17740234924E+02 -0.57795753879E+01  0.13293638790E+03  0.13423934838E+03  0.00000000000E+00 0. -1.
        -12    1    6    6    0    0 -0.49147005955E+02  0.18012480386E+02  0.30783908708E+02  0.60725008681E+02  0.00000000000E+00 0.  1.
</event>
<event>
12    1  0.8633375E-002  0.2170101E+03  0.7818608E-02  0.1136324E+00
         21   -1    0    0  503  502  0.00000000000E+00  0.00000000000E+00  0.92742961898E+02  0.92742961898E+02  0.00000000000E+00 0.  1.
         21   -1    0    0  501  503 -0.00000000000E+00 -0.00000000000E+00 -0.52809056756E+03  0.52809056756E+03  0.00000000000E+00 0. -1.
          6    2    1    2  501    0 -0.32781730178E+02  0.12750681494E+03 -0.28247174940E+03  0.35620736206E+03  0.17251308902E+03 0.  0.
         24    2    3    3    0    0 -0.76087990821E+02  0.43351980609E+02 -0.12206490527E+03  0.16990139330E+03  0.79359093840E+02 0.  0.
         -6    2    1    2    0  502  0.32781730178E+02 -0.12750681494E+03 -0.15287585626E+03  0.26462616740E+03  0.17124062413E+03 0.  0.
        -24    2    5    5    0    0  0.53991136387E+02 -0.64742750939E+02 -0.23100977966E+02  0.11884284984E+03  0.80518949120E+02 0.  0.
          5    1    3    3  501    0  0.43306260643E+02  0.84154834335E+02 -0.16040684413E+03  0.18630596876E+03  0.47000000000E+01 0. -1.
        -13    1    4    4    0    0 -0.81393838702E+02  0.30549375335E+02 -0.12807579712E+03  0.15479544929E+03  0.00000000000E+00 0.  1.
         14    1    4    4    0    0  0.53058478813E+01  0.12802605275E+02  0.60108918496E+01  0.15105944009E+02  0.00000000000E+00 0. -1.
         -5    1    5    5    0  502 -0.21209406209E+02 -0.62764064006E+02 -0.12977487830E+03  0.14578331756E+03  0.47000000000E+01 0.  1.
         11    1    6    6    0    0 -0.16340698877E+02 -0.30864055937E+02 -0.20995517820E+02  0.40748253425E+02  0.00000000000E+00 0. -1.
        -12    1    6    6    0    0  0.70331835264E+02 -0.33878695002E+02 -0.21054601462E+01  0.78094596414E+02  0.00000000000E+00 0.  1.
</event>
<event>
12    1  0.8633375E-002  0.1781982E+03  0.7818608E-02  0.1169585E+00
         21   -1    0    0  503  502  0.00000000000E+00  0.00000000000E+00  0.38635529795E+03  0.38635529795E+03  0.00000000000E+00 0.  1.
         21   -1    0    0  501  503 -0.00000000000E+00 -0.00000000000E+00 -0.86230417427E+02  0.86230417427E+02  0.00000000000E+00 0.  1.
          6    2    1    2  501    0 -0.29485126053E+02  0.37164191290E+02  0.98639025407E+02  0.20367687246E+03  0.17176746278E+03 0.  0.
         24    2    3    3    0    0  0.14743931667E+02  0.44371051750E+02  0.35926072153E+01  0.98491036933E+02  0.86610644699E+02 0.  0.
         -6    2    1    2    0  502  0.29485126053E+02 -0.37164191290E+02  0.20148585511E+03  0.26890884291E+03  0.17165333150E+03 0.  0.
        -24    2    5    5    0    0  0.67478165317E+02 -0.46015292076E+02  0.77187773479E+02  0.13854812753E+03  0.81036543411E+02 0.  0.
          5    1    3    3  501    0 -0.44229057720E+02 -0.72068604599E+01  0.95046418191E+02  0.10518583553E+03  0.47000000000E+01 0. -1.
        -11    1    4    4    0    0 -0.56319507045E+01 -0.23385253344E+02  0.12620433005E+02  0.27163657190E+02  0.00000000000E+00 0.  1.
         12    1    4    4    0    0  0.20375882371E+02  0.67756305094E+02 -0.90278257902E+01  0.71327379742E+02  0.00000000000E+00 0. -1.
         -5    1    5    5    0  502 -0.37993039264E+02  0.88511007862E+01  0.12429808163E+03  0.13036071539E+03  0.47000000000E+01 0.  1.
         13    1    6    6    0    0  0.43846191697E+02 -0.69079025567E+02  0.51105015274E+02  0.96468248070E+02  0.00000000000E+00 0. -1.
        -14    1    6    6    0    0  0.23631973620E+02  0.23063733491E+02  0.26082758205E+02  0.42079879459E+02  0.00000000000E+00 0.  1.
</event>
<event>
12    1  0.8633375E-002  0.4559263E+03  0.7818608E-02  0.1026023E+00
         21   -1    0    0  501  502  0.00000000000E+00  0.00000000000E+00  0.28151157740E+03  0.28151157740E+03  0.00000000000E+00 0. -1.
         21   -1    0    0  502  503 -0.00000000000E+00 -0.00000000000E+00 -0.73726197596E+03  0.73726197596E+03  0.00000000000E+00 0.  1.
         -6    2    1    2    0  503 -0.14830890265E+02 -0.42190310957E+03 -0.22430439909E+03  0.50811542671E+03  0.17218198001E+03 0.  0.
        -24    2    3    3    0    0 -0.40622158424E+02 -0.11766351999E+03 -0.77714153036E+02  0.16938587734E+03  0.84600367420E+02 0.  0.
          6    2    1    2  501    0  0.14830890265E+02  0.42190310957E+03 -0.23144599948E+03  0.51065812665E+03  0.17024183526E+03 0.  0.
         24    2    5    5    0    0  0.46235856193E+02  0.12745099273E+03 -0.10716846315E+03  0.18948011210E+03  0.77692492830E+02 0.  0.
          5    1    5    5  501    0 -0.31404965928E+02  0.29445211684E+03 -0.12427753632E+03  0.32117801455E+03  0.47000000000E+01 0. -1.
        -11    1    6    6    0    0  0.46018919397E+02  0.43774559883E+02 -0.15527438672E+02  0.65383900061E+02  0.00000000000E+00 0.  1.
         12    1    6    6    0    0  0.21693679673E+00  0.83676432850E+02 -0.91641024479E+02  0.12409621204E+03  0.00000000000E+00 0. -1.
         -5    1    3    3    0  503  0.25791268159E+02 -0.30423958958E+03 -0.14659024605E+03  0.33872954937E+03  0.47000000000E+01 0.  1.
         11    1    4    4    0    0  0.13983708059E+02 -0.83017348027E+02 -0.56240266696E+02  0.10124421842E+03  0.00000000000E+00 0. -1.
        -12    1    4    4    0    0 -0.54605866483E+02 -0.34646171962E+02 -0.21473886340E+02  0.68141658921E+02  0.00000000000E+00 0.  1.
</event>
<event>
12    1  0.8633375E-002  0.2039024E+03  0.7818608E-02  0.1146585E+00
         21   -1    0    0  503  502  0.00000000000E+00  0.00000000000E+00  0.27243795270E+03  0.27243795270E+03  0.00000000000E+00 0. -1.
         21   -1    0    0  501  503 -0.00000000000E+00 -0.00000000000E+00 -0.15225626652E+03  0.15225626652E+03  0.00000000000E+00 0.  1.
          6    2    1    2  501    0 -0.61631224514E+02 -0.88341214664E+02  0.59817446722E+02  0.21204423750E+03  0.17257477707E+03 0.  0.
         24    2    3    3    0    0 -0.80946598546E+02 -0.11785117304E+03  0.47259834327E+02  0.17431222262E+03  0.87806652433E+02 0.  0.
         -6    2    1    2    0  502  0.61631224514E+02  0.88341214664E+02  0.60364239458E+02  0.21264998173E+03  0.17312884011E+03 0.  0.
        -24    2    5    5    0    0 -0.30306876948E+02  0.68267926689E+02  0.31392555016E+02  0.11407513762E+03  0.80303349297E+02 0.  0.
          5    1    3    3  501    0  0.19315374032E+02  0.29509958378E+02  0.12557612395E+02  0.37732014875E+02  0.47000000000E+01 0. -1.
        -13    1    4    4    0    0 -0.28894694396E+02 -0.73814171419E+01  0.42732037021E+02  0.52109650462E+02  0.00000000000E+00 0.  1.
         14    1    4    4    0    0 -0.52051904150E+02 -0.11046975590E+03  0.45277973057E+01  0.12220257216E+03  0.00000000000E+00 0. -1.
         -5    1    5    5    0  502  0.91938101462E+02  0.20073287975E+02  0.28971684442E+02  0.98574844103E+02  0.47000000000E+01 0.  1.
         13    1    6    6    0    0 -0.31448294334E+02  0.34860527231E+02  0.55624008919E+02  0.72789298276E+02  0.00000000000E+00 0. -1.
        -14    1    6    6    0    0  0.11414173855E+01  0.33407399458E+02 -0.24231453903E+02  0.41285839346E+02  0.00000000000E+00 0.  1.
</event>
<event>
12    1  0.8633375E-002  0.1939019E+03  0.7818608E-02  0.1155748E+00
         21   -1    0    0  501  502  0.00000000000E+00  0.00000000000E+00  0.82607198310E+02  0.82607198310E+02  0.00000000000E+00 0.  1.
         21   -1    0    0  502  503 -0.00000000000E+00 -0.00000000000E+00 -0.44745000142E+03  0.44745000142E+03  0.00000000000E+00 0.  1.
         -6    2    1    2    0  503  0.61808536823E+02  0.55268357179E+02 -0.17697636951E+03  0.26252346072E+03  0.17527990625E+03 0.  0.
        -24    2    3    3    0    0  0.92274180237E+01  0.94501928202E+02 -0.13904955695E+03  0.18659862776E+03  0.80427040954E+02 0.  0.
          6    2    1    2  501    0 -0.61808536823E+02 -0.55268357179E+02 -0.18786643360E+03  0.26753373901E+03  0.17148066394E+03 0.  0.
         24    2    5    5    0    0 -0.85543051489E+02 -0.89191697804E+02 -0.15845617865E+03  0.21653203981E+03  0.80653524998E+02 0.  0.
          5    1    5    5  501    0  0.23734514666E+02  0.33923340625E+02 -0.29410254945E+02  0.51001699202E+02  0.47000000000E+01 0. -1.
        -11    1    6    6    0    0 -0.57056106384E+02 -0.93165845873E+02 -0.87506306286E+02  0.13997366807E+03  0.00000000000E+00 0.  1.
         12    1    6    6    0    0 -0.28486945105E+02  0.39741480683E+01 -0.70949872369E+02  0.76558371740E+02  0.00000000000E+00 0. -1.
         -5    1    3    3    0  503  0.52581118799E+02 -0.39233571023E+02 -0.37926812568E+02  0.75924832966E+02  0.47000000000E+01 0.  1.
         11    1    4    4    0    0 -0.28354669224E+02  0.65931338815E+02 -0.55857284676E+02  0.90944845682E+02  0.00000000000E+00 0. -1.
        -12    1    4    4    0    0  0.37582087248E+02  0.28570589387E+02 -0.83192272269E+02  0.95653782074E+02  0.00000000000E+00 0.  1.
</event>
<event>
12    1  0.8633375E-002  0.2118066E+03  0.7818608E-02  0.1141250E+00
         21   -1    0    0  503  502  0.00000000000E+00  0.00000000000E+00  0.26083195355E+04  0.26083195355E+04  0.00000000000E+00 0. -1.
         21   -1    0    0  501  503 -0.00000000000E+00 -0.00000000000E+00 -0.19899206847E+02  0.19899206847E+02  0.00000000000E+00 0. -1.
          6    2    1    2  501    0 -0.10629686155E+03 -0.55352676784E+02  0.78600554010E+03  0.81404344655E+03  0.17463986433E+03 0.  0.
         24    2    3    3    0    0  0.67058695144E+01  0.34981032565E+01  0.22655604958E+03  0.24025005693E+03  0.79594226175E+02 0.  0.
         -6    2    1    2    0  502  0.10629686155E+03  0.55352676784E+02  0.18024147885E+04  0.18141752958E+04  0.16783918571E+03 0.  0.
        -24    2    5    5    0    0  0.11335393444E+03  0.47877254139E+01  0.91170754806E+03  0.92199364677E+03  0.77392472012E+02 0.  0.
          5    1    3    3  501    0 -0.11300273106E+03 -0.58850780041E+02  0.55944949052E+03  0.57379338962E+03  0.47000000000E+01 0. -1.
        -11    1    4    4    0    0  0.13032634029E+02 -0.15527552109E+02  0.97072764823E+01  0.22476335131E+02  0.00000000000E+00 0.  1.
         12    1    4    4    0    0 -0.63267645142E+01  0.19025655366E+02  0.21684877310E+03  0.21777372180E+03  0.00000000000E+00 0. -1.
         -5    1    5    5    0  502 -0.70570728924E+01  0.50564951370E+02  0.89070724049E+03  0.89218164902E+03  0.47000000000E+01 0.  1.
         13    1    6    6    0    0  0.66440733183E+02 -0.35578939326E+02  0.51629724578E+03  0.52176918072E+03  0.00000000000E+00 0. -1.
        -14    1    6    6    0    0  0.46913201257E+02  0.40366664740E+02  0.39541030228E+03  0.40022446605E+03  0.00000000000E+00 0.  1.
</event>
<event>
12    1  0.8633375E-002  0.1932359E+03  0.7818608E-02  0.1156660E+00
         21   -1    0    0  503  502  0.00000000000E+00  0.00000000000E+00  0.58716520810E+03  0.58716520810E+03  0.00000000000E+00 0. -1.
         21   -1    0    0  501  503 -0.00000000000E+00 -0.00000000000E+00 -0.76117321889E+02  0.76117321889E+02  0.00000000000E+00 0. -1.
          6    2    1    2  501    0  0.73202075143E+02 -0.57569739213E+01  0.40095202594E+03  0.44508722187E+03  0.17874121352E+03 0.  0.
         24    2    3    3    0    0  0.48165164484E+01  0.49381388401E+02  0.13303749472E+03  0.16309943902E+03  0.80254169084E+02 0.  0.
         -6    2    1    2    0  502 -0.73202075143E+02  0.57569739213E+01  0.11009586027E+03  0.21819530812E+03  0.17348316196E+03 0.  0.
        -24    2    5    5    0    0 -0.11239244595E+03  0.92208350357E+01  0.11426990014E+03  0.17835316828E+03  0.77686271979E+02 0.  0.
          5    1    3    3  501    0  0.68385558695E+02 -0.55138362323E+02  0.26791453122E+03  0.28198778285E+03  0.47000000000E+01 0. -1.
        -13    1    4    4    0    0 -0.20690149083E+02  0.35716462312E+01  0.97556879615E+02  0.99790699396E+02  0.00000000000E+00 0.  1.
         14    1    4    4    0    0  0.25506665531E+02  0.45809742170E+02  0.35480615107E+02  0.63308739622E+02  0.00000000000E+00 0. -1.
         -5    1    5    5    0  502  0.39190370807E+02 -0.34638611143E+01 -0.41740398702E+01  0.39842139835E+02  0.47000000000E+01 0.  1.
         13    1    6    6    0    0 -0.76417635609E+02  0.23327676164E+01  0.22735413416E+02  0.79762120459E+02  0.00000000000E+00 0. -1.
        -14    1    6    6    0    0 -0.35974810341E+02  0.68880674193E+01  0.91534486723E+02  0.98591047826E+02  0.00000000000E+00 0.  1.
</event>
<event>
12    1  0.8633375E-002  0.1809959E+03  0.7818608E-02  0.1167431E+00
         21   -1    0    0  501  502  0.00000000000E+00  0.00000000000E+00  0.16364419356E+04  0.16364419356E+04  0.00000000000E+00 0. -1.
         21   -1    0    0  502  503 -0.00000000000E+00 -0.00000000000E+00 -0.22969105554E+02  0.22969105554E+02  0.00000000000E+00 0. -1.
         -6    2    1    2    0  503 -0.22415312345E+02  0.51415229954E+02  0.50085922042E+03  0.53255936980E+03  0.17208588431E+03 0.  0.
        -24    2    3    3    0    0 -0.53649493860E+02 -0.20611760955E+02  0.32800112638E+03  0.34265025419E+03  0.80754844495E+02 0.  0.
          6    2    1    2  501    0  0.22415312345E+02 -0.51415229954E+02  0.11126136096E+04  0.11268516713E+04  0.16952779365E+03 0.  0.
         24    2    5    5    0    0 -0.36590076127E+02 -0.30536672518E+02  0.91211275313E+03  0.91675589919E+03  0.78869399819E+02 0.  0.
          5    1    5    5  501    0  0.59005388473E+02 -0.20878557436E+02  0.20050085645E+03  0.21009577213E+03  0.47000000000E+01 0. -1.
        -13    1    6    6    0    0  0.12987732287E+02  0.89216163422E+01  0.45496491486E+03  0.45523768537E+03  0.00000000000E+00 0.  1.
         14    1    6    6    0    0 -0.49577808415E+02 -0.39458288860E+02  0.45714783827E+03  0.46151821382E+03  0.00000000000E+00 0. -1.
         -5    1    3    3    0  503  0.31234181515E+02  0.72026990909E+02  0.17285809405E+03  0.18990911561E+03  0.47000000000E+01 0.  1.
         13    1    4    4    0    0 -0.17467174933E+02  0.18467158695E+02  0.22745031763E+03  0.22886630407E+03  0.00000000000E+00 0. -1.
        -14    1    4    4    0    0 -0.36182318927E+02 -0.39078919651E+02  0.10055080875E+03  0.11378395012E+03  0.00000000000E+00 0.  1.
</event>
<event>
12    1  0.8633375E-002  0.2498154E+03  0.7818608E-02  0.1113422E+00
         21   -1    0    0  503  502  0.00000000000E+00  0.00000000000E+00  0.61079192019E+02  0.61079192019E+02  0.00000000000E+00 0.  1.
         21   -1    0    0  501  503 -0.00000000000E+00 -0.00000000000E+00 -0.11790896902E+04  0.11790896902E+04  0.00000000000E+00 0. -1.
          6    2    1    2  501    0  0.11991749529E+03 -0.13534104870E+03 -0.78553353741E+03  0.82430012422E+03  0.17236690880E+03 0.  0.
         24    2    3    3    0    0  0.12748916363E+03 -0.54119596176E+02 -0.41029865491E+03  0.44027205030E+03  0.79448565248E+02 0.  0.
         -6    2    1    2    0  502 -0.11991749529E+03  0.13534104870E+03 -0.33247696079E+03  0.41586875802E+03  0.17236150761E+03 0.  0.
        -24    2    5    5    0    0 -0.12406806873E+03  0.16243138313E+03 -0.31296933086E+03  0.38190184611E+03  0.78245626692E+02 0.  0.
          5    1    3    3  501    0 -0.75716683442E+01 -0.81221452520E+02 -0.37523488250E+03  0.38402807392E+03  0.47000000000E+01 0. -1.
        -13    1    4    4    0    0  0.54156003866E+02 -0.31280044490E+02 -0.82108608357E+02  0.10321403734E+03  0.00000000000E+00 0.  1.
         14    1    4    4    0    0  0.73333159765E+02 -0.22839551685E+02 -0.32819004655E+03  0.33705801296E+03  0.00000000000E+00 0. -1.
         -5    1    5    5    0  502  0.41505734407E+01 -0.27090334433E+02 -0.19507629924E+02  0.33966911912E+02  0.47000000000E+01 0.  1.
         11    1    6    6    0    0 -0.84910710270E+02  0.78266097292E+02 -0.11363850926E+03  0.16201580630E+03  0.00000000000E+00 0. -1.
        -12    1    6    6    0    0 -0.39157358457E+02  0.84165285837E+02 -0.19933082161E+03  0.21988603981E+03  0.00000000000E+00 0.  1.
</event>
<event>
12    1  0.8633375E-002  0.2193348E+03  0.7818608E-02  0.1135097E+00
         21   -1    0    0  501  502  0.00000000000E+00  0.00000000000E+00  0.63464733821E+02  0.63464733821E+02  0.00000000000E+00 0.  1.
         21   -1    0    0  502  503 -0.00000000000E+00 -0.00000000000E+00 -0.79156006648E+03  0.79156006648E+03  0.00000000000E+00 0.  1.
         -6    2    1    2    0  503  0.13108410186E+03  0.62939831548E+01 -0.47077072682E+03  0.51935807587E+03  0.17574150833E+03 0.  0.
        -24    2    3    3    0    0  0.85547012232E+02 -0.60390008493E+02 -0.22649457487E+03  0.26203860578E+03  0.79994962624E+02 0.  0.
          6    2    1    2  501    0 -0.13108410186E+03 -0.62939831548E+01 -0.25732460583E+03  0.33566672443E+03  0.17097818908E+03 0.  0.
         24    2    5    5    0    0 -0.14472063752E+03  0.18044643192E+02 -0.14609257247E+03  0.22089312518E+03  0.78619723691E+02 0.  0.
          5    1    5    5  501    0  0.13636535659E+02 -0.24338626347E+02 -0.11123203337E+03  0.11477359925E+03  0.47000000000E+01 0. -1.
        -13    1    6    6    0    0 -0.58284512415E+02 -0.16327270458E+02 -0.10045521499E+03  0.11728134705E+03  0.00000000000E+00 0.  1.
         14    1    6    6    0    0 -0.86436125101E+02  0.34371913651E+02 -0.45637357480E+02  0.10361177813E+03  0.00000000000E+00 0. -1.
         -5    1    3    3    0  503  0.45537089624E+02  0.66683991648E+02 -0.24427615195E+03  0.25731947008E+03  0.47000000000E+01 0.  1.
         13    1    4    4    0    0  0.34945122906E+02 -0.52698901967E+02 -0.57512879043E+02  0.85475535326E+02  0.00000000000E+00 0. -1.
        -14    1    4    4    0    0  0.50601889327E+02 -0.76911065260E+01 -0.16898169583E+03  0.17656307046E+03  0.00000000000E+00 0.  1.
</event>
<event>
12    1  0.8633375E-002  0.2311186E+03  0.7818608E-02  0.1126459E+00
         21   -1    0    0  501  502  0.00000000000E+00  0.00000000000E+00  0.35729305073E+03  0.35729305073E+03  0.00000000000E+00 0. -1.
         21   -1    0    0  502  503 -0.00000000000E+00 -0.00000000000E+00 -0.16256254605E+03  0.16256254605E+03  0.00000000000E+00 0. -1.
         -6    2    1    2    0  503  0.14775245692E+03 -0.20426555184E+02  0.18366086821E+02  0.23184714526E+03  0.17654391221E+03 0.  0.
        -24    2    3    3    0    0  0.80645139448E+02  0.45842379742E+02 -0.32663732977E+02  0.12451077536E+03  0.76360011998E+02 0.  0.
          6    2    1    2  501    0 -0.14775245692E+03  0.20426555184E+02  0.17636441786E+03  0.28800845152E+03  0.17203612289E+03 0.  0.
         24    2    5    5    0    0 -0.45045390966E+02 -0.43047428629E+02  0.47101523995E+02  0.11106587963E+03  0.78961431702E+02 0.  0.
          5    1    5    5  501    0 -0.10270706596E+03  0.63473983813E+02  0.12926289386E+03  0.17694257189E+03  0.47000000000E+01 0. -1.
        -11    1    6    6    0    0 -0.38081212184E+02 -0.37019924259E+02  0.69137983019E+02  0.87182075047E+02  0.00000000000E+00 0.  1.
         12    1    6    6    0    0 -0.69641787817E+01 -0.60275043707E+01 -0.22036459024E+02  0.23883804583E+02  0.00000000000E+00 0. -1.
         -5    1    3    3    0  503  0.67107317474E+02 -0.66268934926E+02  0.51029819798E+02  0.10733636990E+03  0.47000000000E+01 0.  1.
         11    1    4    4    0    0  0.90017161664E+02  0.23469792538E+02 -0.14370874484E+02  0.94129923984E+02  0.00000000000E+00 0. -1.
        -12    1    4    4    0    0 -0.93720222159E+01  0.22372587205E+02 -0.18292858493E+02  0.30380851379E+02  0.00000000000E+00 0.  1.
</event>
<event>
12    1  0.8633375E-002  0.2089205E+03  0.7818608E-02  0.1142485E+00
         21   -1    0    0  503  502  0.00000000000E+00  0.00000000000E+00  0.95078636331E+03  0.95078636331E+03  0.00000000000E+00 0. -1.
         21   -1    0    0  501  503 -0.00000000000E+00 -0.00000000000E+00 -0.58227623775E+02  0.58227623775E+02  0.00000000000E+00 0. -1.
          6    2    1    2  501    0 -0.10129600117E+03 -0.59850588902E+02  0.21383065250E+03  0.29895039986E+03  0.17264072747E+03 0.  0.
         24    2    3    3    0    0 -0.49695348029E+01  0.18993656613E+02  0.74803123446E+02  0.11227970851E+03  0.81398835361E+02 0.  0.
         -6    2    1    2    0  502  0.10129600117E+03  0.59850588902E+02  0.67872808704E+03  0.71006358723E+03  0.17226580894E+03 0.  0.
        -24    2    5    5    0    0  0.75289395373E+02  0.36929964855E+02  0.20941954056E+03  0.23945302599E+03  0.80304995658E+02 0.  0.
          5    1    3    3  501    0 -0.96326466366E+02 -0.78844245515E+02  0.13902752905E+03  0.18667069135E+03  0.47000000000E+01 0. -1.
        -13    1    4    4    0    0  0.75711540027E+01  0.15183096370E+02 -0.14317774297E+02  0.22200167773E+02  0.00000000000E+00 0.  1.
         14    1    4    4    0    0 -0.12540688806E+02  0.38105602427E+01  0.89120897742E+02  0.90079540738E+02  0.00000000000E+00 0. -1.
         -5    1    5    5    0  502  0.26006605796E+02  0.22920624047E+02  0.46930854648E+03  0.47061056124E+03  0.47000000000E+01 0.  1.
         13    1    6    6    0    0  0.88624300352E+02  0.31564173240E+02  0.20294119567E+03  0.22368659447E+03  0.00000000000E+00 0. -1.
        -14    1    6    6    0    0 -0.13334904979E+02  0.53657916150E+01  0.64783448931E+01  0.15766431524E+02  0.00000000000E+00 0.  1.
</event>
<event>
12    1  0.8633375E-002  0.1942325E+03  0.7818608E-02  0.1155246E+00
         21   -1    0    0  503  502  0.00000000000E+00  0.00000000000E+00  0.20501116266E+04  0.20501116266E+04  0.00000000000E+00 0. -1.
         21   -1    0    0  501  503 -0.00000000000E+00 -0.00000000000E+00 -0.28805719845E+02  0.28805719845E+02  0.00000000000E+00 0. -1.
          6    2    1    2  501    0 -0.68340975656E+02 -0.51945001931E+02  0.37486842567E+03  0.42106251446E+03  0.17146000215E+03 0.  0.
         24    2    3    3    0    0 -0.85654163393E+01  0.92134525438E+00  0.30301850138E+03  0.31358009833E+03  0.80237464167E+02 0.  0.
         -6    2    1    2    0  502  0.68340975656E+02  0.51945001931E+02  0.16464374811E+04  0.16578548320E+04  0.17423401689E+03 0.  0.
        -24    2    5    5    0    0 -0.60210734872E+01  0.76340464147E+02  0.76057381580E+03  0.76852847097E+03  0.79368517800E+02 0.  0.
          5    1    3    3  501    0 -0.59775559317E+02 -0.52866347185E+02  0.71849924294E+02  0.10748241613E+03  0.47000000000E+01 0. -1.
        -13    1    4    4    0    0  0.18056270038E+02 -0.26285604803E+02  0.63521572913E+02  0.71077085850E+02  0.00000000000E+00 0.  1.
         14    1    4    4    0    0 -0.26621686377E+02  0.27206950057E+02  0.23949692846E+03  0.24250301248E+03  0.00000000000E+00 0. -1.
         -5    1    5    5    0  502  0.74362049143E+02 -0.24395462216E+02  0.88586366525E+03  0.88932636098E+03  0.47000000000E+01 0.  1.
         13    1    6    6    0    0 -0.38937520077E+02  0.22855984207E+02  0.39836881161E+03  0.40091923944E+03  0.00000000000E+00 0. -1.
        -14    1    6    6    0    0  0.32916446590E+02  0.53484479940E+02  0.36220500419E+03  0.36760923153E+03  0.00000000000E+00 0.  1.
</event>
<event>
12    1  0.8633375E-002  0.3001747E+03  0.7818608E-02  0.1085303E+00
         21   -1    0    0  503  502  0.00000000000E+00  0.00000000000E+00  0.17458489398E+03  0.17458489398E+03  0.00000000000E+00 0.  1.
         21   -1    0    0  501  503 -0.00000000000E+00 -0.00000000000E+00 -0.85653914409E+03  0.85653914409E+03  0.00000000000E+00 0. -1.
          6    2    1    2  501    0 -0.12925166345E+03 -0.20868616306E+03 -0.66739448406E+03  0.73179249121E+03  0.17276847421E+03 0.  0.
         24    2    3    3    0    0 -0.87197170353E+02 -0.21131931210E+03 -0.45779476675E+03  0.51794758161E+03  0.80215027580E+02 0.  0.
         -6    2    1    2    0  502  0.12925166345E+03  0.20868616306E+03 -0.14559766046E+02  0.29933154686E+03  0.17067946861E+03 0.  0.
        -24    2    5    5    0    0  0.15348052878E+03  0.19980221670E+03 -0.34310065377E+02  0.26649670650E+03  0.79787940678E+02 0.  0.
          5    1    3    3  501    0 -0.42054493095E+02  0.26331490475E+01 -0.20959971731E+03  0.21384490960E+03  0.47000000000E+01 0. -1.
        -13    1    4    4    0    0 -0.77608255953E+02 -0.93631927266E+02 -0.19454026491E+03  0.22942513783E+03  0.00000000000E+00 0.  1.
         14    1    4    4    0    0 -0.95889143997E+01 -0.11768738484E+03 -0.26325450184E+03  0.28852244379E+03  0.00000000000E+00 0. -1.
         -5    1    5    5    0  502 -0.24228865329E+02  0.88839463559E+01  0.19750299332E+02  0.32834840363E+02  0.47000000000E+01 0.  1.
         13    1    6    6    0    0  0.33213534984E+02  0.33809870863E+02 -0.39126201819E+02  0.61458164166E+02  0.00000000000E+00 0. -1.
        -14    1    6    6    0    0  0.12026699379E+03  0.16599234584E+03  0.48161364413E+01  0.20503854233E+03  0.00000000000E+00 0.  1.
</event>
<event>
12    1  0.8633375E-002  0.1842584E+03  0.7818608E-02  0.1164163E+00
         21   -1    0    0  501  502  0.00000000000E+00  0.00000000000E+00  0.82508992550E+02  0.82508992550E+02  0.00000000000E+00 0. -1.
         21   -1    0    0  502  503 -0.00000000000E+00 -0.00000000000E+00 -0.49438234307E+03  0.49438234307E+03  0.00000000000E+00 0. -1.
         -6    2    1    2    0  503  0.11099352466E+02  0.63753183644E+02 -0.32765488631E+03  0.37591074187E+03  0.17252100534E+03 0.  0.
        -24    2    3    3    0    0  0.45541773482E+02 -0.10854279527E+02 -0.17584434434E+03  0.20322291781E+03  0.90479016196E+02 0.  0.
          6    2    1    2  501    0 -0.11099352466E+02 -0.63753183644E+02 -0.84218464208E+02  0.20098059374E+03  0.17062469135E+03 0.  0.
         24    2    5    5    0    0 -0.60595361122E+02 -0.28505047747E+02 -0.14576615889E+02  0.10843675011E+03  0.84034013988E+02 0.  0.
          5    1    5    5  501    0  0.49496008657E+02 -0.35248135897E+02 -0.69641848318E+02  0.92543843633E+02  0.47000000000E+01 0. -1.
        -13    1    6    6    0    0 -0.33105228958E+02  0.28466868939E+02 -0.65924593332E+00  0.43666387722E+02  0.00000000000E+00 0.  1.
         14    1    6    6    0    0 -0.27490132165E+02 -0.56971916686E+02 -0.13917369956E+02  0.64770362387E+02  0.00000000000E+00 0. -1.
         -5    1    3    3    0  503 -0.34442421016E+02  0.74607463172E+02 -0.15181054197E+03  0.17268782406E+03  0.47000000000E+01 0.  1.
         13    1    4    4    0    0  0.50298125842E+02  0.22927830256E+02 -0.56277656904E+02  0.78884482188E+02  0.00000000000E+00 0. -1.
        -14    1    4    4    0    0 -0.47563523603E+01 -0.33782109783E+02 -0.11956668743E+03  0.12433843562E+03  0.00000000000E+00 0.  1.
</event>
<event>
12    1  0.8633375E-002  0.2209860E+03  0.7818608E-02  0.1133563E+00
         21   -1    0    0  501  502  0.00000000000E+00  0.00000000000E+00  0.11937566077E+03  0.11937566077E+03  0.00000000000E+00 0. -1.
         21   -1    0    0  502  503 -0.00000000000E+00 -0.00000000000E+00 -0.19658430654E+04  0.19658430654E+04  0.00000000000E+00 0.  1.
         -6    2    1    2    0  503  0.11549857289E+03  0.77913196928E+02 -0.18512987636E+04  0.18641799039E+04  0.16866895201E+03 0.  0.
        -24    2    3    3    0    0  0.61159192504E+02  0.10142940005E+03 -0.15801596291E+04  0.15866113532E+04  0.80017264873E+02 0.  0.
          6    2    1    2  501    0 -0.11549857289E+03 -0.77913196928E+02  0.48313589562E+01  0.22103882229E+03  0.17153551334E+03 0.  0.
         24    2    5    5    0    0 -0.11057476728E+03 -0.10260410594E+03 -0.33771240708E+02  0.17471241999E+03  0.81422056504E+02 0.  0.
          5    1    5    5  501    0 -0.49238056113E+01  0.24690909009E+02  0.38602599665E+02  0.46326402302E+02  0.47000000000E+01 0. -1.
        -13    1    6    6    0    0 -0.22707646231E+02 -0.75478562363E+02 -0.23105265890E+02  0.82137104195E+02  0.00000000000E+00 0.  1.
         14    1    6    6    0    0 -0.87867121049E+02 -0.27125543575E+02 -0.10665974818E+02  0.92575315794E+02  0.00000000000E+00 0. -1.
         -5    1    3    3    0  503  0.54339380387E+02 -0.23516203125E+02 -0.27113913456E+03  0.27756855074E+03  0.47000000000E+01 0.  1.
         11    1    4    4    0    0  0.35524558696E+02  0.21080465334E+02 -0.22033549976E+03  0.22417429100E+03  0.00000000000E+00 0. -1.
        -12    1    4    4    0    0  0.25634633808E+02  0.80348934718E+02 -0.13598241293E+04  0.13624370622E+04  0.00000000000E+00 0.  1.
</event>
<event>
12    1  0.8633375E-002  0.1772325E+03  0.7818608E-02  0.1175618E+00
         21   -1    0    0  503  502  0.00000000000E+00  0.00000000000E+00  0.16519035985E+04  0.16519035985E+04  0.00000000000E+00 0.  1.
         21   -1    0    0  501  503 -0.00000000000E+00 -0.00000000000E+00 -0.30034736254E+02  0.30034736254E+02  0.00000000000E+00 0. -1.
          6    2    1    2  501    0  0.43691455042E+02  0.17795454054E+01  0.13380951820E+04  0.13473656746E+04  0.15160288574E+03 0.  0.
         24    2    3    3    0    0 -0.22955221635E+02  0.24580378880E+02  0.68452403700E+03  0.68999288150E+03  0.79911714234E+02 0.  0.
         -6    2    1    2    0  502 -0.43691455042E+02 -0.17795454054E+01  0.28377368025E+03  0.33457266016E+03  0.17175346663E+03 0.  0.
        -24    2    5    5    0    0 -0.47057934450E+02  0.61130157867E+02  0.13765881446E+03  0.17538532413E+03  0.76542258424E+02 0.  0.
          5    1    3    3  501    0  0.66646676678E+02 -0.22800833475E+02  0.65357114499E+03  0.65737279308E+03  0.47000000000E+01 0. -1.
        -13    1    4    4    0    0  0.20968465919E+02  0.13206191731E+02  0.47341209331E+03  0.47406021786E+03  0.00000000000E+00 0.  1.
         14    1    4    4    0    0 -0.43923687554E+02  0.11374187150E+02  0.21111194368E+03  0.21593266364E+03  0.00000000000E+00 0. -1.
         -5    1    5    5    0  502  0.33664794075E+01 -0.62909703272E+02  0.14611486578E+03  0.15918733603E+03  0.47000000000E+01 0.  1.
         13    1    6    6    0    0 -0.22116160143E+02 -0.16157241537E+02  0.37543489480E+02  0.46472514413E+02  0.00000000000E+00 0. -1.
        -14    1    6    6    0    0 -0.24941774307E+02  0.77287399404E+02  0.10011532498E+03  0.12891280972E+03  0.00000000000E+00 0.  1.
</event>
<event>
12    1  0.8633375E-002  0.2091608E+03  0.7818608E-02  0.1143256E+00
         21   -1    0    0  501  502  0.00000000000E+00  0.00000000000E+00  0.27160357456E+03  0.27160357456E+03  0.00000000000E+00 0.  1.
         21   -1    0    0  502  503 -0.00000000000E+00 -0.00000000000E+00 -0.22074682220E+03  0.22074682220E+03  0.00000000000E+00 0.  1.
         -6    2    1    2    0  503 -0.10748157565E+02 -0.10963115836E+03  0.15729438068E+03  0.25766507194E+03  0.17180003880E+03 0.  0.
        -24    2    3    3    0    0 -0.18733170978E+02 -0.47694189278E+02  0.59101963194E+01  0.93838304129E+02  0.78390238649E+02 0.  0.
          6    2    1    2  501    0  0.10748157565E+02  0.10963115836E+03 -0.10643762832E+03  0.23468532482E+03  0.17780247240E+03 0.  0.
         24    2    5    5    0    0  0.48902652873E+02  0.43869715692E+02  0.15314195468E+01  0.10255002238E+03  0.78728269588E+02 0.  0.
          5    1    5    5  501    0 -0.38154495309E+02  0.65761442668E+02 -0.10796904786E+03  0.13213530244E+03  0.47000000000E+01 0. -1.
        -11    1    6    6    0    0 -0.34645965913E+00  0.12631383672E+02 -0.32608768053E+02  0.34971468967E+02  0.00000000000E+00 0.  1.
         12    1    6    6    0    0  0.49249112532E+02  0.31238332020E+02  0.34140187600E+02  0.67578553417E+02  0.00000000000E+00 0. -1.
         -5    1    3    3    0  503  0.79850134138E+01 -0.61936969082E+02  0.15138418436E+03  0.16382676781E+03  0.47000000000E+01 0.  1.
         11    1    4    4    0    0  0.49315816116E+01  0.20441242296E+02  0.53934490422E+01  0.21708389539E+02  0.00000000000E+00 0. -1.
        -12    1    4    4    0    0 -0.23664752590E+02 -0.68135431575E+02  0.51674727723E+00  0.72129914590E+02  0.00000000000E+00 0.  1.
</event>
<event>
12    1  0.8633375E-002  0.1762929E+03  0.7818608E-02  0.1171697E+00
         21   -1    0    0  503  502  0.00000000000E+00  0.00000000000E+00  0.14808704507E+03  0.14808704507E+03  0.00000000000E+00 0. -1.
         21   -1    0    0  501  503 -0.00000000000E+00 -0.00000000000E+00 -0.36477552959E+03  0.36477552959E+03  0.00000000000E+00 0. -1.
          6    2    1    2  501    0  0.77164813806E+01  0.35937621370E+02 -0.27629136232E+03  0.32774397198E+03  0.17241849541E+03 0.  0.
         24    2    3    3    0    0  0.16582816916E+02  0.65954181138E+02 -0.63191779856E+02  0.11230690968E+03  0.63203616142E+02 0.  0.
         -6    2    1    2    0  502 -0.77164813806E+01 -0.35937621370E+02  0.59602877807E+02  0.18511860268E+03  0.17136317370E+03 0.  0.
        -24    2    5    5    0    0  0.10092730757E+02  0.11170936099E+02  0.97583529663E+02  0.12186511156E+03  0.71427635596E+02 0.  0.
          5    1    3    3  501    0 -0.88663355351E+01 -0.30016559768E+02 -0.21309958247E+03  0.21543706230E+03  0.47000000000E+01 0. -1.
        -13    1    4    4    0    0 -0.88035249503E+01  0.61650489224E+02 -0.26968035214E+02  0.67864274817E+02  0.00000000000E+00 0.  1.
         14    1    4    4    0    0  0.25386341866E+02  0.43036919135E+01 -0.36223744642E+02  0.44442634860E+02  0.00000000000E+00 0. -1.
         -5    1    5    5    0  502 -0.17809212138E+02 -0.47108557469E+02 -0.37980651855E+02  0.63253491122E+02  0.47000000000E+01 0.  1.
         11    1    6    6    0    0 -0.99567058311E+01  0.47602269645E+01  0.10006338723E+03  0.10067014063E+03  0.00000000000E+00 0. -1.
        -12    1    6    6    0    0  0.20049436588E+02  0.64107091344E+01 -0.24798575639E+01  0.21194970928E+02  0.00000000000E+00 0.  1.
</event>
<event>
12    1  0.8633375E-002  0.3067685E+03  0.7818608E-02  0.1082217E+00
         21   -1    0    0  501  502  0.00000000000E+00  0.00000000000E+00  0.10115932752E+04  0.10115932752E+04  0.00000000000E+00 0. -1.
         21   -1    0    0  502  503 -0.00000000000E+00 -0.00000000000E+00 -0.21936228953E+03  0.21936228953E+03  0.00000000000E+00 0.  1.
         -6    2    1    2    0  503 -0.93675036145E+02  0.23312460908E+03 -0.71693097118E+02  0.31503463877E+03  0.17602507689E+03 0.  0.
        -24    2    3    3    0    0 -0.67443408460E+02  0.23394312472E+03 -0.20398517166E+02  0.25722467258E+03  0.80439006276E+02 0.  0.
          6    2    1    2  501    0  0.93675036145E+02 -0.23312460908E+03  0.86392408274E+03  0.91592092592E+03  0.17153491203E+03 0.  0.
         24    2    5    5    0    0  0.91539792475E+02 -0.20336412898E+03  0.85034692423E+03  0.88280484713E+03  0.80734156330E+02 0.  0.
          5    1    5    5  501    0  0.21352436704E+01 -0.29760480104E+02  0.13577158509E+02  0.33116078795E+02  0.47000000000E+01 0. -1.
        -11    1    6    6    0    0  0.41447488486E+01 -0.28659057662E+01  0.12734182955E+03  0.12744149211E+03  0.00000000000E+00 0.  1.
         12    1    6    6    0    0  0.87395043626E+02 -0.20049822321E+03  0.72300509469E+03  0.75536335502E+03  0.00000000000E+00 0. -1.
         -5    1    3    3    0  503 -0.26231627685E+02 -0.81851563853E+00 -0.51294579952E+02  0.57809966193E+02  0.47000000000E+01 0.  1.
         11    1    4    4    0    0 -0.74367636840E+01 -0.46202585648E+01  0.47281540480E+01  0.99502604990E+01  0.00000000000E+00 0. -1.
        -12    1    4    4    0    0 -0.60006644776E+02  0.23856338329E+03 -0.25126671214E+02  0.24727441208E+03  0.00000000000E+00 0.  1.
</event>
<event>
12    1  0.8633375E-002  0.1801220E+03  0.7818608E-02  0.1168126E+00
         21   -1    0    0  501  502  0.00000000000E+00  0.00000000000E+00  0.47482029779E+02  0.47482029779E+02  0.00000000000E+00 0. -1.
         21   -1    0    0  502  503 -0.00000000000E+00 -0.00000000000E+00 -0.70972792542E+03  0.70972792542E+03  0.00000000000E+00 0.  1.
         -6    2    1    2    0  503  0.32957218528E+02  0.40999798625E+02 -0.41474088249E+03  0.45216584088E+03  0.17226951648E+03 0.  0.
        -24    2    3    3    0    0  0.49110204601E+02 -0.33290609289E+02 -0.28138977017E+03  0.29859308019E+03  0.80358869583E+02 0.  0.
          6    2    1    2  501    0 -0.32957218528E+02 -0.40999798625E+02 -0.24750501315E+03  0.30504411432E+03  0.17037023920E+03 0.  0.
         24    2    5    5    0    0 -0.72721615536E+02 -0.13143161552E+02 -0.22774933523E+03  0.25241735014E+03  0.79897327169E+02 0.  0.
          5    1    5    5  501    0  0.39764397007E+02 -0.27856637073E+02 -0.19755677914E+02  0.52626764181E+02  0.47000000000E+01 0. -1.
        -13    1    6    6    0    0 -0.17441847399E+02 -0.32941659271E+02 -0.15239191160E+03  0.15688424292E+03  0.00000000000E+00 0.  1.
         14    1    6    6    0    0 -0.55279768137E+02  0.19798497718E+02 -0.75357423631E+02  0.95533107211E+02  0.00000000000E+00 0. -1.
         -5    1    3    3    0  503 -0.16152986072E+02  0.74290407914E+02 -0.13335111232E+03  0.15357276069E+03  0.47000000000E+01 0.  1.
         11    1    4    4    0    0 -0.10762266677E+02 -0.14522856188E+02 -0.16825994985E+03  0.16922810186E+03  0.00000000000E+00 0. -1.
        -12    1    4    4    0    0  0.59872471278E+02 -0.18767753101E+02 -0.11312982032E+03  0.12936497833E+03  0.00000000000E+00 0.  1.
</event>
<event>
12    1  0.8633375E-002  0.2092737E+03  0.7818608E-02  0.1142662E+00
         21   -1    0    0  501  502  0.00000000000E+00  0.00000000000E+00  0.17918568353E+03  0.17918568353E+03  0.00000000000E+00 0.  1.
         21   -1    0    0  502  503 -0.00000000000E+00 -0.00000000000E+00 -0.28987660632E+03  0.28987660632E+03  0.00000000000E+00 0.  1.
         -6    2    1    2    0  503 -0.11313528884E+03 -0.11013870955E+02 -0.15097093416E+03  0.25594738722E+03  0.17261501421E+03 0.  0.
        -24    2    3    3    0    0 -0.47997707573E+02 -0.61607061235E+02 -0.13849832353E+02  0.95863465620E+02  0.53840284714E+02 0.  0.
          6    2    1    2  501    0  0.11313528884E+03  0.11013870955E+02  0.40280011358E+02  0.21311490263E+03  0.17571164865E+03 0.  0.
         24    2    5    5    0    0  0.10926347984E+03  0.47177192977E+02  0.75896634184E+02  0.16199337501E+03  0.79481814905E+02 0.  0.
          5    1    5    5  501    0  0.38718089967E+01 -0.36163322023E+02 -0.35616622826E+02  0.51121527620E+02  0.47000000000E+01 0. -1.
        -11    1    6    6    0    0  0.77054958454E+02 -0.93576963944E+01  0.47493473863E+02  0.90998149233E+02  0.00000000000E+00 0.  1.
         12    1    6    6    0    0  0.32208521390E+02  0.56534889372E+02  0.28403160321E+02  0.70995225773E+02  0.00000000000E+00 0. -1.
         -5    1    3    3    0  503 -0.65137581269E+02  0.50593190281E+02 -0.13712110180E+03  0.16008392160E+03  0.47000000000E+01 0.  1.
         13    1    4    4    0    0 -0.27484138090E+02 -0.67669523585E+02 -0.68584509868E+01  0.73359257212E+02  0.00000000000E+00 0. -1.
        -14    1    4    4    0    0 -0.20513569483E+02  0.60624623491E+01 -0.69913813663E+01  0.22504208408E+02  0.00000000000E+00 0.  1.
</event>
<event>
12    1  0.8633375E-002  0.1927590E+03  0.7818608E-02  0.1156379E+00
         21   -1    0    0  503  502  0.00000000000E+00  0.00000000000E+00  0.42886416825E+03  0.42886416825E+03  0.00000000000E+00 0.  1.
         21   -1    0    0  501  503 -0.00000000000E+00 -0.00000000000E+00 -0.12698306099E+03  0.12698306099E+03  0.00000000000E+00 0. -1.
          6    2    1    2  501    0 -0.83105909857E+02 -0.97428206267E+01 -0.76619270520E+01  0.19119268225E+03  0.17173940087E+03 0.  0.
         24    2    3    3    0    0 -0.39563287347E+02  0.36107871658E+02  0.47159682426E+02  0.10737296605E+03  0.80223974536E+02 0.  0.
         -6    2    1    2    0  502  0.83105909857E+02  0.97428206267E+01  0.30954303432E+03  0.36465454699E+03  0.17365060823E+03 0.  0.
        -24    2    5    5    0    0  0.11728564774E+02 -0.51871047378E+02  0.12906329669E+03  0.16097337502E+03  0.80168124120E+02 0.  0.
          5    1    3    3  501    0 -0.43542622511E+02 -0.45850692284E+02 -0.54821609478E+02  0.83819716200E+02  0.47000000000E+01 0. -1.
        -13    1    4    4    0    0  0.39162516987E+01  0.46734214084E+02  0.40804998730E+02  0.62164875249E+02  0.00000000000E+00 0.  1.
         14    1    4    4    0    0 -0.43479539045E+02 -0.10626342426E+02  0.63546836965E+01  0.45208090800E+02  0.00000000000E+00 0. -1.
         -5    1    5    5    0  502  0.71377345084E+02  0.61613868005E+02  0.18047973763E+03  0.20368117197E+03  0.47000000000E+01 0.  1.
         11    1    6    6    0    0  0.20446367101E+02  0.13233253355E+02  0.64179290706E+02  0.68645132949E+02  0.00000000000E+00 0. -1.
        -12    1    6    6    0    0 -0.87178023274E+01 -0.65104300733E+02  0.64884005984E+02  0.92328242071E+02  0.00000000000E+00 0.  1.
</event>
<event>
12    1  0.8633375E-002  0.2719982E+03  0.7818608E-02  0.1100231E+00
         21   -1    0    0  501  502  0.00000000000E+00  0.00000000000E+00  0.67428305235E+03  0.67428305235E+03  0.00000000000E+00 0.  1.
         21   -1    0    0  502  503 -0.00000000000E+00 -0.00000000000E+00 -0.18691059877E+03  0.18691059877E+03  0.00000000000E+00 0.  1.
         -6    2    1    2    0  503  0.18529857391E+03  0.99623214551E+02  0.52069258009E+03  0.58716215539E+03  0.17140095505E+03 0.  0.
        -24    2    3    3    0    0  0.34341564183E+02  0.47900959524E+02  0.28818988172E+03  0.30512881481E+03  0.81094640678E+02 0.  0.
          6    2    1    2  501    0 -0.18529857391E+03 -0.99623214551E+02 -0.33320126503E+02  0.27403149573E+03  0.17240267821E+03 0.  0.
         24    2    5    5    0    0 -0.17273634980E+03 -0.13342411903E+03 -0.15294600987E+02  0.23344430331E+03  0.81378595763E+02 0.  0.
          5    1    5    5  501    0 -0.12562224104E+02  0.33800904480E+02 -0.18025525516E+02  0.40587192416E+02  0.47000000000E+01 0. -1.
        -13    1    6    6    0    0 -0.42373154621E+02 -0.28873569238E+02  0.31157033896E+02  0.59999399949E+02  0.00000000000E+00 0.  1.
         14    1    6    6    0    0 -0.13036319518E+03 -0.10455054979E+03 -0.46451634883E+02  0.17344490337E+03  0.00000000000E+00 0. -1.
         -5    1    3    3    0  503  0.15095700972E+03  0.51722255027E+02  0.23250269836E+03  0.28203334057E+03  0.47000000000E+01 0.  1.
         11    1    4    4    0    0  0.50336250195E+02  0.62411024132E+00  0.14548315386E+03  0.15394634018E+03  0.00000000000E+00 0. -1.
        -12    1    4    4    0    0 -0.15994686012E+02  0.47276849283E+02  0.14270672786E+03  0.15118247463E+03  0.00000000000E+00 0.  1.
</event>
<event>
12    1  0.8633375E-002  0.2187527E+03  0.7818608E-02  0.1134890E+00
         21   -1    0    0  503  502  0.00000000000E+00  0.00000000000E+00  0.75660056140E+03  0.75660056140E+03  0.00000000000E+00 0. -1.
         21   -1    0    0  501  503 -0.00000000000E+00 -0.00000000000E+00 -0.13104768709E+03  0.13104768709E+03  0.00000000000E+00 0. -1.
          6    2    1    2  501    0  0.13373774517E+03  0.85596711876E+01 -0.68611734846E+01  0.21846944667E+03  0.17240293204E+03 0.  0.
         24    2    3    3    0    0  0.78640544681E+02  0.66397015944E+02  0.25125764322E+02  0.13229454232E+03  0.79231577676E+02 0.  0.
         -6    2    1    2    0  502 -0.13373774517E+03 -0.85596711876E+01  0.63241404780E+03  0.66917880182E+03  0.17289791351E+03 0.  0.
        -24    2    5    5    0    0 -0.85483983813E+02  0.23916800042E+02  0.20354035533E+03  0.23635333958E+03  0.80961102208E+02 0.  0.
          5    1    3    3  501    0  0.55097200489E+02 -0.57837344757E+02 -0.31986937807E+02  0.86174904355E+02  0.47000000000E+01 0. -1.
        -11    1    4    4    0    0  0.79070146182E+02  0.24919138239E+02  0.34454436905E+02  0.89778392112E+02  0.00000000000E+00 0.  1.
         12    1    4    4    0    0 -0.42960150132E+00  0.41477877705E+02 -0.93286725824E+01  0.42516150208E+02  0.00000000000E+00 0. -1.
         -5    1    5    5    0  502 -0.48253761357E+02 -0.32476471230E+02  0.42887369247E+03  0.43282546223E+03  0.47000000000E+01 0.  1.
         13    1    6    6    0    0 -0.82337760743E+01  0.33928343937E+02  0.10554642425E+03  0.11117092814E+03  0.00000000000E+00 0. -1.
        -14    1    6    6    0    0 -0.77250207738E+02 -0.10011543895E+02  0.97993931081E+02  0.12518241145E+03  0.00000000000E+00 0.  1.
</event>
<event>
12    1  0.8633375E-002  0.1823692E+03  0.7818608E-02  0.1165602E+00
         21   -1    0    0  503  502  0.00000000000E+00  0.00000000000E+00  0.40017340271E+02  0.40017340271E+02  0.00000000000E+00 0. -1.
         21   -1    0    0  501  503 -0.00000000000E+00 -0.00000000000E+00 -0.12229918767E+04  0.12229918767E+04  0.00000000000E+00 0. -1.
          6    2    1    2  501    0 -0.54597622869E+02 -0.26352235139E+02 -0.94925803000E+03  0.96656032390E+03  0.17167618211E+03 0.  0.
         24    2    3    3    0    0 -0.22488886988E+02  0.11434143764E+02 -0.22380525531E+03  0.23939968164E+03  0.81159876684E+02 0.  0.
         -6    2    1    2    0  502  0.54597622869E+02  0.26352235139E+02 -0.23371650643E+03  0.29644889307E+03  0.17199767471E+03 0.  0.
        -24    2    5    5    0    0  0.61837266675E+02  0.58922148401E+02 -0.86140508236E+02  0.14507525952E+03  0.79567434559E+02 0.  0.
          5    1    3    3  501    0 -0.32108735881E+02 -0.37786378903E+02 -0.72545277469E+03  0.72716064226E+03  0.47000000000E+01 0. -1.
        -13    1    4    4    0    0 -0.18997662587E+02  0.43029489403E+02 -0.86487445297E+02  0.98450628927E+02  0.00000000000E+00 0.  1.
         14    1    4    4    0    0 -0.34912244006E+01 -0.31595345639E+02 -0.13731781002E+03  0.14094905272E+03  0.00000000000E+00 0. -1.
         -5    1    5    5    0  502 -0.72396438065E+01 -0.32569913262E+02 -0.14757599820E+03  0.15137363356E+03  0.47000000000E+01 0.  1.
         13    1    6    6    0    0  0.58248825184E+02  0.12866738158E+01 -0.51320725917E+02  0.77642759311E+02  0.00000000000E+00 0. -1.
        -14    1    6    6    0    0  0.35884414912E+01  0.57635474585E+02 -0.34819782319E+02  0.67432500204E+02  0.00000000000E+00 0.  1.
</event>
<event>
12    1  0.8633375E-002  0.1742264E+03  0.7818608E-02  0.1173796E+00
         21   -1    0    0  501  502  0.00000000000E+00  0.00000000000E+00  0.39033129791E+03  0.39033129791E+03  0.00000000000E+00 0. -1.
         21   -1    0    0  502  503 -0.00000000000E+00 -0.00000000000E+00 -0.11611079700E+03  0.11611079700E+03  0.00000000000E+00 0. -1.
         -6    2    1    2    0  503  0.89147655332E+01  0.23715603650E+02 -0.90584967315E+01  0.17446176652E+03  0.17237444333E+03 0.  0.
        -24    2    3    3    0    0  0.57018031966E+02 -0.15542392808E+02 -0.31791828347E+02  0.10817444576E+03  0.84843199038E+02 0.  0.
          6    2    1    2  501    0 -0.89147655332E+01 -0.23715603650E+02  0.28327899764E+03  0.33198032839E+03  0.17123680981E+03 0.  0.
         24    2    5    5    0    0  0.30957729470E+02  0.12622662553E+02  0.25888449779E+03  0.27258784510E+03  0.78519026199E+02 0.  0.
          5    1    5    5  501    0 -0.39872495003E+02 -0.36338266203E+02  0.24394499843E+02  0.59392483287E+02  0.47000000000E+01 0. -1.
        -11    1    6    6    0    0 -0.15119832741E+01  0.33351045448E+02  0.49609922276E+02  0.59797347049E+02  0.00000000000E+00 0.  1.
         12    1    6    6    0    0  0.32469712744E+02 -0.20728382895E+02  0.20927457552E+03  0.21279049805E+03  0.00000000000E+00 0. -1.
         -5    1    3    3    0  503 -0.48103266433E+02  0.39257996458E+02  0.22733331615E+02  0.66287320762E+02  0.47000000000E+01 0.  1.
         13    1    4    4    0    0  0.37607250671E+01  0.24957109032E+02 -0.32642806586E+02  0.41262006327E+02  0.00000000000E+00 0. -1.
        -14    1    4    4    0    0  0.53257306899E+02 -0.40499501840E+02  0.85097823914E+00  0.66912439437E+02  0.00000000000E+00 0.  1.
</event>
<event>
12    1  0.8633375E-002  0.1740756E+03  0.7818608E-02  0.1173739E+00
         21   -1    0    0  501  502  0.00000000000E+00  0.00000000000E+00  0.10758881721E+03  0.10758881721E+03  0.00000000000E+00 0. -1.
         21   -1    0    0  502  503 -0.00000000000E+00 -0.00000000000E+00 -0.31759689660E+03  0.31759689660E+03  0.00000000000E+00 0. -1.
         -6    2    1    2    0  503  0.16937185537E+02  0.14539233313E+02 -0.17692904692E+03  0.24799506570E+03  0.17233516010E+03 0.  0.
        -24    2    3    3    0    0  0.24933285565E+01  0.42475310059E+02 -0.19239735729E+03  0.21263395692E+03  0.79913002019E+02 0.  0.
          6    2    1    2  501    0 -0.16937185537E+02 -0.14539233313E+02 -0.33079032461E+02  0.17719064811E+03  0.17263848305E+03 0.  0.
         24    2    5    5    0    0  0.29400968102E+02  0.41228861905E+02 -0.39556240046E+02  0.10424307005E+03  0.82083406044E+02 0.  0.
          5    1    5    5  501    0 -0.46338153639E+02 -0.55768095218E+02  0.64772075850E+01  0.72947578061E+02  0.47000000000E+01 0. -1.
        -11    1    6    6    0    0  0.46472629193E+02  0.98910940913E+01  0.42936234177E+01  0.47707171458E+02  0.00000000000E+00 0.  1.
         12    1    6    6    0    0 -0.17071661091E+02  0.31337767813E+02 -0.43849863464E+02  0.56535898593E+02  0.00000000000E+00 0. -1.
         -5    1    3    3    0  503  0.14443856980E+02 -0.27936076746E+02  0.15468310369E+02  0.35361108779E+02  0.47000000000E+01 0.  1.
         13    1    4    4    0    0  0.40619304066E+02  0.15122632868E+02 -0.84233440557E+02  0.94730641272E+02  0.00000000000E+00 0. -1.
        -14    1    4    4    0    0 -0.38125975509E+02  0.27352677191E+02 -0.10816391673E+03  0.11790331565E+03  0.00000000000E+00 0.  1.
</event>
<event>
12    1  0.8633375E-002  0.2048014E+03  0.7818608E-02  0.1146643E+00
         21   -1    0    0  503  502  0.00000000000E+00  0.00000000000E+00  0.70794238666E+02  0.70794238666E+02  0.00000000000E+00 0.  1.
         21   -1    0    0  501  503 -0.00000000000E+00 -0.00000000000E+00 -0.66806241719E+03  0.66806241719E+03  0.00000000000E+00 0. -1.
          6    2    1    2  501    0 -0.72484486264E+02  0.74346349194E+02 -0.42995221514E+03  0.47439823136E+03  0.17150333590E+03 0.  0.
         24    2    3    3    0    0 -0.76834444320E+02  0.50441652178E+02 -0.43266426132E+03  0.44950241104E+03  0.80038505751E+02 0.  0.
         -6    2    1    2    0  502  0.72484486264E+02 -0.74346349194E+02 -0.16731596339E+03  0.26445842450E+03  0.17652831585E+03 0.  0.
        -24    2    5    5    0    0  0.10880100676E+03 -0.80239349074E+02 -0.16492351699E+03  0.22729081887E+03  0.78646917751E+02 0.  0.
          5    1    3    3  501    0  0.43499580561E+01  0.23904697016E+02  0.27120461831E+01  0.24895820312E+02  0.47000000000E+01 0. -1.
        -11    1    4    4    0    0 -0.49465772003E+02  0.55922148819E+02 -0.17406402143E+03  0.18940019241E+03  0.00000000000E+00 0.  1.
         12    1    4    4    0    0 -0.27368672317E+02 -0.54804966409E+01 -0.25860023989E+03  0.26010221863E+03  0.00000000000E+00 0. -1.
         -5    1    5    5    0  502 -0.36316520498E+02  0.58929998795E+01 -0.23924463946E+01  0.37167605632E+02  0.47000000000E+01 0.  1.
         13    1    6    6    0    0  0.15027080154E+02 -0.47352939505E+02 -0.90132463558E+02  0.10291732121E+03  0.00000000000E+00 0. -1.
        -14    1    6    6    0    0  0.93773926608E+02 -0.32886409569E+02 -0.74791053434E+02  0.12437349766E+03  0.00000000000E+00 0.  1.
</event>
<event>
12    1  0.8633375E-002  0.3742578E+03  0.7818608E-02  0.1053106E+00
         21   -1    0    0  501  502  0.00000000000E+00  0.00000000000E+00  0.21731689178E+03  0.21731689178E+03  0.00000000000E+00 0. -1.
         21   -1    0    0  502  503 -0.00000000000E+00 -0.00000000000E+00 -0.73248989432E+03  0.73248989432E+03  0.00000000000E+00 0.  1.
         -6    2    1    2    0  503  0.27050874764E+03  0.19313909138E+03 -0.42274105083E+03  0.56460509659E+03  0.17202100997E+03 0.  0.
        -24    2    3    3    0    0  0.23332693036E+03  0.12418312870E+03 -0.39360665544E+03  0.48088941514E+03  0.80408485258E+02 0.  0.
          6    2    1    2  501    0 -0.27050874764E+03 -0.19313909138E+03 -0.92431951713E+02  0.38520168951E+03  0.17134463731E+03 0.  0.
         24    2    5    5    0    0 -0.23266467516E+03 -0.21592458810E+03 -0.65256283739E+02  0.33312521102E+03  0.77186429092E+02 0.  0.
          5    1    5    5  501    0 -0.37844072475E+02  0.22785496716E+02 -0.27175667973E+02  0.52076478490E+02  0.47000000000E+01 0. -1.
        -13    1    6    6    0    0 -0.34908477603E+02 -0.37994503546E+01 -0.17421367337E+02  0.39198745789E+02  0.00000000000E+00 0.  1.
         14    1    6    6    0    0 -0.19775619756E+03 -0.21212513774E+03 -0.47834916402E+02  0.29392646523E+03  0.00000000000E+00 0. -1.
         -5    1    3    3    0  503  0.37181817277E+02  0.68955962687E+02 -0.29134395390E+02  0.83715681451E+02  0.47000000000E+01 0.  1.
         13    1    4    4    0    0  0.23722124911E+02  0.45488009382E+02 -0.90952382039E+02  0.10442334033E+03  0.00000000000E+00 0. -1.
        -14    1    4    4    0    0  0.20960480545E+03  0.78695119314E+02 -0.30265427340E+03  0.37646607480E+03  0.00000000000E+00 0.  1.
</event>
<event>
12    1  0.8633375E-002  0.2587721E+03  0.7818608E-02  0.1108062E+00
         21   -1    0    0  503  502  0.00000000000E+00  0.00000000000E+00  0.53370299406E+03  0.53370299406E+03  0.00000000000E+00 0. -1.
         21   -1    0    0  501  503 -0.00000000000E+00 -0.00000000000E+00 -0.14773152182E+03  0.14773152182E+03  0.00000000000E+00 0.  1.
          6    2    1    2  501    0 -0.18874175749E+03 -0.33629048177E+02  0.59408017119E+02  0.26550385652E+03  0.17380627557E+03 0.  0.
         24    2    3    3    0    0 -0.94703578378E+02 -0.59979794351E+02  0.89597815220E+02  0.16317568413E+03  0.77667186844E+02 0.  0.
         -6    2    1    2    0  502  0.18874175749E+03  0.33629048177E+02  0.32656345512E+03  0.41593065936E+03  0.17204725882E+03 0.  0.
        -24    2    5    5    0    0  0.10361921219E+03 -0.48248201355E+02  0.16317218727E+03  0.21426626458E+03  0.78867226209E+02 0.  0.
          5    1    3    3  501    0 -0.94038179112E+02  0.26350746174E+02 -0.30189798101E+02  0.10232817239E+03  0.47000000000E+01 0. -1.
        -13    1    4    4    0    0  0.92456195553E+00 -0.33708728002E+02  0.77726513853E+01  0.34605595904E+02  0.00000000000E+00 0.  1.
         14    1    4    4    0    0 -0.95628140334E+02 -0.26271066349E+02  0.81825163835E+02  0.12857008823E+03  0.00000000000E+00 0. -1.
         -5    1    5    5    0  502  0.85122545301E+02  0.81877249532E+02  0.16339126785E+03  0.20166439477E+03  0.47000000000E+01 0.  1.
         13    1    6    6    0    0  0.35091631025E+02  0.63102130467E+01  0.10028785573E+03  0.10643728371E+03  0.00000000000E+00 0. -1.
        -14    1    6    6    0    0  0.68527581164E+02 -0.54558414402E+02  0.62884331543E+02  0.10782898087E+03  0.00000000000E+00 0.  1.
</event>
<event>
12    1  0.8633375E-002  0.3246932E+03  0.7818608E-02  0.1073707E+00
         21   -1    0    0  503  502  0.00000000000E+00  0.00000000000E+00  0.16604825051E+04  0.16604825051E+04  0.00000000000E+00 0. -1.
         21   -1    0    0  501  503 -0.00000000000E+00 -0.00000000000E+00 -0.77082373807E+02  0.77082373807E+02  0.00000000000E+00 0. -1.
          6    2    1    2  501    0 -0.27494831823E+03  0.11313245513E+02  0.42060186452E+03  0.53028466999E+03  0.16903057583E+03 0.  0.
         24    2    3    3    0    0 -0.94601298014E+02 -0.29613917200E+02  0.10532241214E+03  0.16473945604E+03  0.78866267820E+02 0.  0.
         -6    2    1    2    0  502  0.27494831823E+03 -0.11313245513E+02  0.11627982668E+04  0.12072802090E+04  0.17234014745E+03 0.  0.
        -24    2    5    5    0    0  0.17651883559E+03  0.48637074927E+02  0.86595106183E+03  0.88881081156E+03  0.81172365311E+02 0.  0.
          5    1    3    3  501    0 -0.18034702021E+03  0.40927162713E+02  0.31527945238E+03  0.36554521395E+03  0.47000000000E+01 0. -1.
        -13    1    4    4    0    0 -0.64570090386E+02 -0.56204504198E+00  0.10462823049E+03  0.12294990477E+03  0.00000000000E+00 0.  1.
         14    1    4    4    0    0 -0.30031207628E+02 -0.29051872158E+02  0.69418165225E+00  0.41789551274E+02  0.00000000000E+00 0. -1.
         -5    1    5    5    0  502  0.98429482634E+02 -0.59950320440E+02  0.29684720499E+03  0.31846939741E+03  0.47000000000E+01 0.  1.
         13    1    6    6    0    0  0.14603020443E+03  0.10628878405E+02  0.55140577761E+03  0.57051391327E+03  0.00000000000E+00 0. -1.
        -14    1    6    6    0    0  0.30488631164E+02  0.38008196521E+02  0.31454528422E+03  0.31829689828E+03  0.00000000000E+00 0.  1.
</event>
<event>
12    1  0.8633375E-002  0.2235573E+03  0.7818608E-02  0.1131266E+00
         21   -1    0    0  501  502  0.00000000000E+00  0.00000000000E+00  0.16348038143E+03  0.16348038143E+03  0.00000000000E+00 0.  1.
         21   -1    0    0  502  503 -0.00000000000E+00 -0.00000000000E+00 -0.33975492826E+03  0.33975492826E+03  0.00000000000E+00 0. -1.
         -6    2    1    2    0  503 -0.13421693965E+03 -0.49727632773E+02 -0.16784592341E+03  0.27951922077E+03  0.17167328395E+03 0.  0.
        -24    2    3    3    0    0 -0.15548520321E+03 -0.73849812294E+02 -0.14046247673E+03  0.23702025923E+03  0.82579977751E+02 0.  0.
          6    2    1    2  501    0  0.13421693965E+03  0.49727632773E+02 -0.84286234211E+01  0.22371608893E+03  0.17172892127E+03 0.  0.
         24    2    5    5    0    0  0.45646315981E+02  0.81298606387E+02 -0.39726906719E+02  0.12450341690E+03  0.72317523048E+02 0.  0.
          5    1    5    5  501    0  0.88570623671E+02 -0.31570973614E+02  0.31298283298E+02  0.99212672022E+02  0.47000000000E+01 0. -1.
        -11    1    6    6    0    0  0.42297751682E+02  0.55334105350E+02  0.79607272383E+01  0.70102326569E+02  0.00000000000E+00 0.  1.
         12    1    6    6    0    0  0.33485642985E+01  0.25964501037E+02 -0.47687633958E+02  0.54401090333E+02  0.00000000000E+00 0. -1.
         -5    1    3    3    0  503  0.21268263556E+02  0.24122179520E+02 -0.27383446684E+02  0.42498961537E+02  0.47000000000E+01 0.  1.
         11    1    4    4    0    0 -0.56111352748E+02 -0.66965626767E+01 -0.91354613845E+02  0.10741970643E+03  0.00000000000E+00 0. -1.
        -12    1    4    4    0    0 -0.99373850459E+02 -0.67153249617E+02 -0.49107862881E+02  0.12960055280E+03  0.00000000000E+00 0.  1.
</event>
<event>
12    1  0.8633375E-002  0.1949009E+03  0.7818608E-02  0.1154520E+00
         21   -1    0    0  501  502  0.00000000000E+00  0.00000000000E+00  0.98923581744E+03  0.98923581744E+03  0.00000000000E+00 0.  1.
         21   -1    0    0  502  503 -0.00000000000E+00 -0.00000000000E+00 -0.10666800472E+03  0.10666800472E+03  0.00000000000E+00 0. -1.
         -6    2    1    2    0  503 -0.82303126082E+02  0.31973075918E+02  0.25051878911E+01  0.19491696875E+03  0.17375346498E+03 0.  0.
        -24    2    3    3    0    0 -0.95360302333E+02  0.49965024106E+02 -0.45692499605E+02  0.14163181949E+03  0.79885398396E+02 0.  0.
          6    2    1    2  501    0  0.82303126082E+02 -0.31973075918E+02  0.88006262484E+03  0.90098685342E+03  0.17167120973E+03 0.  0.
         24    2    5    5    0    0 -0.48176473513E+01  0.30026054602E+02  0.42141595810E+03  0.43001681588E+03  0.79989240008E+02 0.  0.
          5    1    5    5  501    0  0.87120773433E+02 -0.61999130519E+02  0.45864666674E+03  0.47097003754E+03  0.47000000000E+01 0. -1.
        -11    1    6    6    0    0  0.28575376267E+02  0.24176675250E+02  0.33662571623E+03  0.33870036401E+03  0.00000000000E+00 0.  1.
         12    1    6    6    0    0 -0.33393023619E+02  0.58493793515E+01  0.84790241870E+02  0.91316451867E+02  0.00000000000E+00 0. -1.
         -5    1    3    3    0  503  0.13057176251E+02 -0.17991948188E+02  0.48197687496E+02  0.53285149256E+02  0.47000000000E+01 0.  1.
         11    1    4    4    0    0  0.12825628330E+01  0.83337893702E+01 -0.34839447801E+02  0.35845280523E+02  0.00000000000E+00 0. -1.
        -12    1    4    4    0    0 -0.96642865166E+02  0.41631234735E+02 -0.10853051804E+02  0.10578653897E+03  0.00000000000E+00 0.  1.
</event>
<event>
12    1  0.8633375E-002  0.1735732E+03  0.7818608E-02  0.1174396E+00
         21   -1    0    0  503  502  0.00000000000E+00  0.00000000000E+00  0.88597514765E+03  0.88597514765E+03  0.00000000000E+00 0.  1.
         21   -1    0    0  501  503 -0.00000000000E+00 -0.00000000000E+00 -0.10262463720E+03  0.10262463720E+03  0.00000000000E+00 0.  1.
          6    2    1    2  501    0 -0.52549349735E+01  0.14903885330E+02 -0.12695863827E+02  0.17403691739E+03  0.17285231707E+03 0.  0.
         24    2    3    3    0    0  0.19633655869E+02 -0.54539239757E+02 -0.66354370085E+01  0.99870831145E+02  0.81056429562E+02 0.  0.
         -6    2    1    2    0  502  0.52549349735E+01 -0.14903885330E+02  0.79604637427E+03  0.81456286746E+03  0.17196829625E+03 0.  0.
        -24    2    5    5    0    0 -0.27336657005E+02  0.45786593153E+02  0.30337740119E+03  0.31707884452E+03  0.75215963460E+02 0.  0.
          5    1    3    3  501    0 -0.24888590842E+02  0.69443125087E+02 -0.60604268183E+01  0.74166086246E+02  0.47000000000E+01 0. -1.
        -13    1    4    4    0    0 -0.21495733387E+02  0.85643400701E+01  0.49461674046E+01  0.23661763389E+02  0.00000000000E+00 0.  1.
         14    1    4    4    0    0  0.41129389255E+02 -0.63103579827E+02 -0.11581604413E+02  0.76209067756E+02  0.00000000000E+00 0. -1.
         -5    1    5    5    0  502  0.32591591978E+02 -0.60690478483E+02  0.49266897308E+03  0.49748402294E+03  0.47000000000E+01 0.  1.
         13    1    6    6    0    0 -0.10438435315E+02 -0.71596164958E+01  0.50653451641E+01  0.13633736166E+02  0.00000000000E+00 0. -1.
        -14    1    6    6    0    0 -0.16898221690E+02  0.52946209649E+02  0.29831205603E+03  0.30344510836E+03  0.00000000000E+00 0.  1.
</event>
<event>
12    1  0.8633375E-002  0.1858923E+03  0.7818608E-02  0.1162716E+00
         21   -1    0    0  501  502  0.00000000000E+00  0.00000000000E+00  0.46356300183E+03  0.46356300183E+03  0.00000000000E+00 0.  1.
         21   -1    0    0  502  503 -0.00000000000E+00 -0.00000000000E+00 -0.77215938686E+02  0.77215938686E+02  0.00000000000E+00 0.  1.
         -6    2    1    2    0  503  0.34208345257E+02  0.58937009660E+02  0.25197937223E+03  0.31312862090E+03  0.17295128563E+03 0.  0.
        -24    2    3    3    0    0  0.64555334216E+02  0.35895083566E+02  0.74317586751E+02  0.13136594564E+03  0.79234208350E+02 0.  0.
          6    2    1    2  501    0 -0.34208345257E+02 -0.58937009660E+02  0.13436769090E+03  0.22765031961E+03  0.17066402570E+03 0.  0.
         24    2    5    5    0    0 -0.37067201790E+02 -0.86515263437E+02  0.15063939784E+03  0.19516045060E+03  0.80848655161E+02 0.  0.
          5    1    5    5  501    0  0.28588565328E+01  0.27578253777E+02 -0.16271706931E+02  0.32489869014E+02  0.47000000000E+01 0. -1.
        -11    1    6    6    0    0 -0.56548955648E+02 -0.68053567260E+02  0.78848722210E+02  0.11851663763E+03  0.00000000000E+00 0.  1.
         12    1    6    6    0    0  0.19481753857E+02 -0.18461696177E+02  0.71790675625E+02  0.76643812965E+02  0.00000000000E+00 0. -1.
         -5    1    3    3    0  503 -0.30346988958E+02  0.23041926094E+02  0.17766178548E+03  0.18176267526E+03  0.47000000000E+01 0.  1.
         11    1    4    4    0    0  0.29661772426E+02  0.19431453101E+02 -0.11496797206E+02  0.37277050031E+02  0.00000000000E+00 0. -1.
        -12    1    4    4    0    0  0.34893561790E+02  0.16463630466E+02  0.85814383957E+02  0.94088895606E+02  0.00000000000E+00 0.  1.
</event>
<event>
12    1  0.8633375E-002  0.2967508E+03  0.7818608E-02  0.1086896E+00
         21   -1    0    0  501  502  0.00000000000E+00  0.00000000000E+00  0.14917665855E+03  0.14917665855E+03  0.00000000000E+00 0. -1.
         21   -1    0    0  502  503 -0.00000000000E+00 -0.00000000000E+00 -0.10890208908E+04  0.10890208908E+04  0.00000000000E+00 0. -1.
         -6    2    1    2    0  503 -0.22042462404E+02 -0.24060984602E+03 -0.88907655065E+03  0.93729299243E+03  0.17228485887E+03 0.  0.
        -24    2    3    3    0    0  0.45158238341E+02 -0.18579897075E+03 -0.67458966937E+03  0.70589100784E+03  0.81549794103E+02 0.  0.
          6    2    1    2  501    0  0.22042462404E+02  0.24060984602E+03 -0.50767681641E+02  0.30090455697E+03  0.17200937985E+03 0.  0.
         24    2    5    5    0    0  0.28869754941E+02  0.50590549223E+02  0.14690794914E+02  0.99755738352E+02  0.79639948882E+02 0.  0.
          5    1    5    5  501    0 -0.68272925367E+01  0.19001929679E+03 -0.65458476555E+02  0.20114881862E+03  0.47000000000E+01 0. -1.
        -13    1    6    6    0    0  0.54528121804E+02  0.22108840671E+02  0.39215329433E+00  0.58841062937E+02  0.00000000000E+00 0.  1.
         14    1    6    6    0    0 -0.25658366864E+02  0.28481708552E+02  0.14298641620E+02  0.40914675415E+02  0.00000000000E+00 0. -1.
         -5    1    3    3    0  503 -0.67200700745E+02 -0.54810875265E+02 -0.21448688128E+03  0.23140198459E+03  0.47000000000E+01 0.  1.
         13    1    4    4    0    0 -0.16793957632E+02 -0.54949383232E+02 -0.27355844511E+03  0.27952762765E+03  0.00000000000E+00 0. -1.
        -14    1    4    4    0    0  0.61952195973E+02 -0.13084958752E+03 -0.40103122426E+03  0.42636338019E+03  0.00000000000E+00 0.  1.
</event>
<event>
12    1  0.8633375E-002  0.2202270E+03  0.7818608E-02  0.1134664E+00
         21   -1    0    0  503  502  0.00000000000E+00  0.00000000000E+00  0.61481267115E+03  0.61481267115E+03  0.00000000000E+00 0.  1.
         21   -1    0    0  501  503 -0.00000000000E+00 -0.00000000000E+00 -0.78657449890E+02  0.78657449890E+02  0.00000000000E+00 0.  1.
          6    2    1    2  501    0  0.54262824168E+02  0.12407633973E+03  0.21610957182E+03  0.30497410435E+03  0.16723177067E+03 0.  0.
         24    2    3    3    0    0  0.46717929626E+02  0.15452089258E+03  0.16023104516E+03  0.24072228746E+03  0.78828679148E+02 0.  0.
         -6    2    1    2    0  502 -0.54262824168E+02 -0.12407633973E+03  0.32004564944E+03  0.38849601669E+03  0.17366791612E+03 0.  0.
        -24    2    5    5    0    0 -0.75414126080E+01 -0.61692946669E+02  0.60729392225E+02  0.11767949341E+03  0.79356861804E+02 0.  0.
          5    1    3    3  501    0  0.75448945416E+01 -0.30444552845E+02  0.55878526657E+02  0.64251816885E+02  0.47000000000E+01 0. -1.
        -11    1    4    4    0    0  0.53831874291E+02  0.75473703577E+02  0.12030253250E+03  0.15187774671E+03  0.00000000000E+00 0.  1.
         12    1    4    4    0    0 -0.71139446653E+01  0.79047189002E+02  0.39928512667E+02  0.88844540753E+02  0.00000000000E+00 0. -1.
         -5    1    5    5    0  502 -0.46721411560E+02 -0.62383393065E+02  0.25931625721E+03  0.27081652328E+03  0.47000000000E+01 0.  1.
         11    1    6    6    0    0  0.33363891513E+02 -0.27932936743E+02  0.10790434724E+02  0.44831146467E+02  0.00000000000E+00 0. -1.
        -12    1    6    6    0    0 -0.40905304121E+02 -0.33760009926E+02  0.49938957502E+02  0.72848346939E+02  0.00000000000E+00 0.  1.
</event>
<event>
12    1  0.8633375E-002  0.2957797E+03  0.7818608E-02  0.1087603E+00
         21   -1    0    0  501  502  0.00000000000E+00  0.00000000000E+00  0.37488353459E+03  0.37488353459E+03  0.00000000000E+00 0.  1.
         21   -1    0    0  502  503 -0.00000000000E+00 -0.00000000000E+00 -0.26592453187E+03  0.26592453187E+03  0.00000000000E+00 0.  1.
         -6    2    1    2    0  503  0.19845128007E+03  0.13295138110E+03 -0.60234215503E+02  0.30005602721E+03  0.17130813888E+03 0.  0.
        -24    2    3    3    0    0  0.10404848974E+03  0.77507198986E+02  0.33566827597E+02  0.15581085453E+03  0.79478527687E+02 0.  0.
          6    2    1    2  501    0 -0.19845128007E+03 -0.13295138110E+03  0.16919321822E+03  0.34075203925E+03  0.17443229878E+03 0.  0.
         24    2    5    5    0    0 -0.90542822559E+02 -0.14387267247E+03  0.11232505196E+03  0.21819760994E+03  0.78076443859E+02 0.  0.
          5    1    5    5  501    0 -0.10790845752E+03  0.10921291368E+02  0.56868166259E+02  0.12255442930E+03  0.47000000000E+01 0. -1.
        -13    1    6    6    0    0 -0.65612989740E+02 -0.39589333012E+02  0.66994551898E+02  0.10178727669E+03  0.00000000000E+00 0.  1.
         14    1    6    6    0    0 -0.24929832818E+02 -0.10428333946E+03  0.45330500063E+02  0.11641033326E+03  0.00000000000E+00 0. -1.
         -5    1    3    3    0  503  0.94402790337E+02  0.55444182117E+02 -0.93801043099E+02  0.14424517268E+03  0.47000000000E+01 0.  1.
         13    1    4    4    0    0  0.35907941223E+02  0.34233795122E+00  0.38629341646E+02  0.52742046548E+02  0.00000000000E+00 0. -1.
        -14    1    4    4    0    0  0.68140548515E+02  0.77164861034E+02 -0.50625140490E+01  0.10306880798E+03  0.00000000000E+00 0.  1.
</event>
<event>
12    1  0.8633375E-002  0.1890452E+03  0.7818608E-02  0.1160651E+00
         21   -1    0    0  501  502  0.00000000000E+00  0.00000000000E+00  0.36080394879E+03  0.36080394879E+03  0.00000000000E+00 0. -1.
         21   -1    0    0  502  503 -0.00000000000E+00 -0.00000000000E+00 -0.19172345165E+03  0.19172345165E+03  0.00000000000E+00 0. -1.
         -6    2    1    2    0  503  0.20193091926E+02 -0.59418646624E+02 -0.10993600994E+03  0.21868698248E+03  0.17832479777E+03 0.  0.
        -24    2    3    3    0    0  0.72854049605E+02 -0.74645286418E+02 -0.59385989205E+02  0.14397137756E+03  0.79507424267E+02 0.  0.
          6    2    1    2  501    0 -0.20193091926E+02  0.59418646624E+02  0.27901650708E+03  0.33384041795E+03  0.17222333438E+03 0.  0.
         24    2    5    5    0    0  0.40574302398E+02  0.43052727720E+02  0.86089964501E+02  0.13085455552E+03  0.78813839735E+02 0.  0.
          5    1    5    5  501    0 -0.60767394324E+02  0.16365918904E+02  0.19292654258E+03  0.20298586243E+03  0.47000000000E+01 0. -1.
        -11    1    6    6    0    0  0.13459404234E+02  0.32014154301E+02  0.94265116917E+02  0.10045881696E+03  0.00000000000E+00 0.  1.
         12    1    6    6    0    0  0.27114898164E+02  0.11038573419E+02 -0.81751524165E+01  0.30395738560E+02  0.00000000000E+00 0. -1.
         -5    1    3    3    0  503 -0.52660957679E+02  0.15226639794E+02 -0.50550020736E+02  0.74715604926E+02  0.47000000000E+01 0.  1.
         11    1    4    4    0    0  0.11474807604E+02 -0.68512053710E+02 -0.31103284847E+02  0.76111674803E+02  0.00000000000E+00 0. -1.
        -12    1    4    4    0    0  0.61379242001E+02 -0.61332327083E+01 -0.28282704358E+02  0.67859702754E+02  0.00000000000E+00 0.  1.
</event>
<event>
12    1  0.8633375E-002  0.2921470E+03  0.7818608E-02  0.1089409E+00
         21   -1    0    0  503  502  0.00000000000E+00  0.00000000000E+00  0.14335894992E+04  0.14335894992E+04  0.00000000000E+00 0. -1.
         21   -1    0    0  501  503 -0.00000000000E+00 -0.00000000000E+00 -0.79308027121E+02  0.79308027121E+02  0.00000000000E+00 0. -1.
          6    2    1    2  501    0  0.17124391963E+03 -0.15963594056E+03  0.29798897348E+03  0.41730962982E+03  0.17476208196E+03 0.  0.
         24    2    3    3    0    0  0.14024059799E+03 -0.36349732115E+02  0.17385434648E+03  0.23956770801E+03  0.78604227516E+02 0.  0.
         -6    2    1    2    0  502 -0.17124391963E+03  0.15963594056E+03  0.10562924986E+04  0.10955878965E+04  0.17248444233E+03 0.  0.
        -24    2    5    5    0    0 -0.69026466785E+02  0.87750590512E+02  0.78391828213E+03  0.79587851224E+03  0.80186744168E+02 0.  0.
          5    1    3    3  501    0  0.31003321642E+02 -0.12328620845E+03  0.12413462701E+03  0.17774192181E+03  0.47000000000E+01 0. -1.
        -11    1    4    4    0    0  0.87044482863E+02 -0.51071382835E+02  0.14668074385E+03  0.17804569289E+03  0.00000000000E+00 0.  1.
         12    1    4    4    0    0  0.53196115127E+02  0.14721650720E+02  0.27173602630E+02  0.61522015120E+02  0.00000000000E+00 0. -1.
         -5    1    5    5    0  502 -0.10221745285E+03  0.71885350049E+02  0.27237421647E+03  0.29970938426E+03  0.47000000000E+01 0.  1.
         13    1    6    6    0    0 -0.67494395110E+02  0.23739930763E+02  0.34758967401E+03  0.35487696341E+03  0.00000000000E+00 0. -1.
        -14    1    6    6    0    0 -0.15320716749E+01  0.64010659749E+02  0.43632860812E+03  0.44100154883E+03  0.00000000000E+00 0.  1.
</event>
<event>
12    1  0.8633375E-002  0.1837245E+03  0.7818608E-02  0.1164908E+00
         21   -1    0    0  503  502  0.00000000000E+00  0.00000000000E+00  0.10085316040E+03  0.10085316040E+03  0.00000000000E+00 0.  1.
         21   -1    0    0  501  503 -0.00000000000E+00 -0.00000000000E+00 -0.94355084443E+03  0.94355084443E+03  0.00000000000E+00 0.  1.
          6    2    1    2  501    0 -0.13978940677E+02 -0.49600597802E+02 -0.84144108714E+03  0.86067520121E+03  0.17344471387E+03 0.  0.
         24    2    3    3    0    0 -0.54556600378E+02 -0.80304636699E+01 -0.72030308872E+03  0.72624630856E+03  0.74540258158E+02 0.  0.
         -6    2    1    2    0  502  0.13978940677E+02  0.49600597802E+02 -0.12565968937E+01  0.18372880363E+03  0.17634926754E+03 0.  0.
        -24    2    5    5    0    0  0.26922201509E+01 -0.36223278286E+02  0.23745837161E+02  0.93504973763E+02  0.82824763186E+02 0.  0.
          5    1    3    3  501    0  0.40577659702E+02 -0.41570134132E+02 -0.12113799842E+03  0.13442889265E+03  0.47000000000E+01 0. -1.
        -13    1    4    4    0    0 -0.71974907603E+02 -0.56639371405E+01 -0.63893599125E+03  0.64300207497E+03  0.00000000000E+00 0.  1.
         14    1    4    4    0    0  0.17418307225E+02 -0.23665265294E+01 -0.81367097468E+02  0.83244233582E+02  0.00000000000E+00 0. -1.
         -5    1    5    5    0  502  0.11286720526E+02  0.85823876088E+02 -0.25002434055E+02  0.90223829866E+02  0.47000000000E+01 0.  1.
         11    1    6    6    0    0 -0.38946332695E+02 -0.24355220978E+02  0.46019013792E+01  0.46164608908E+02  0.00000000000E+00 0. -1.
        -12    1    6    6    0    0  0.41638552846E+02 -0.11868057308E+02  0.19143935782E+02  0.47340364855E+02  0.00000000000E+00 0.  1.
</event>
<event>
12    1  0.8633375E-002  0.2126373E+03  0.7818608E-02  0.1140065E+00
         21   -1    0    0  501  502  0.00000000000E+00  0.00000000000E+00  0.19798310744E+04  0.19798310744E+04  0.00000000000E+00 0.  1.
         21   -1    0    0  502  503 -0.00000000000E+00 -0.00000000000E+00 -0.24000978482E+02  0.24000978482E+02  0.00000000000E+00 0. -1.
         -6    2    1    2    0  503 -0.11813109117E+03  0.14382452653E+02  0.73590077054E+03  0.76600558238E+03  0.17621804251E+03 0.  0.
        -24    2    3    3    0    0 -0.12318892269E+02  0.40609576917E+02  0.48776278149E+03  0.49493615383E+03  0.72445652149E+02 0.  0.
          6    2    1    2  501    0  0.11813109117E+03 -0.14382452653E+02  0.12199293254E+04  0.12378264705E+04  0.17269916768E+03 0.  0.
         24    2    5    5    0    0  0.17783537650E+01 -0.21616629473E+02  0.29628654788E+03  0.30684399846E+03  0.76792445780E+02 0.  0.
          5    1    5    5  501    0  0.11635273741E+03  0.72341768202E+01  0.92364277749E+03  0.93098247203E+03  0.47000000000E+01 0. -1.
        -13    1    6    6    0    0  0.15291638762E+02  0.22604041253E+02  0.17362119315E+03  0.17575293911E+03  0.00000000000E+00 0.  1.
         14    1    6    6    0    0 -0.13513284997E+02 -0.44220670726E+02  0.12266535473E+03  0.13109105935E+03  0.00000000000E+00 0. -1.
         -5    1    3    3    0  503 -0.10581219890E+03 -0.26227124265E+02  0.24813798905E+03  0.27106942855E+03  0.47000000000E+01 0.  1.
         13    1    4    4    0    0  0.21194671372E+02  0.22505585772E+02  0.86294512478E+02  0.91664924423E+02  0.00000000000E+00 0. -1.
        -14    1    4    4    0    0 -0.33513563641E+02  0.18103991145E+02  0.40146826901E+03  0.40327122941E+03  0.00000000000E+00 0.  1.
</event>
<event>
12    1  0.8633375E-002  0.2638719E+03  0.7818608E-02  0.1104892E+00
         21   -1    0    0  503  502  0.00000000000E+00  0.00000000000E+00  0.94716858354E+02  0.94716858354E+02  0.00000000000E+00 0.  1.
         21   -1    0    0  501  503 -0.00000000000E+00 -0.00000000000E+00 -0.95536473293E+03  0.95536473293E+03  0.00000000000E+00 0.  1.
          6    2    1    2  501    0 -0.19686700618E+03  0.38181752819E+02 -0.68321253277E+03  0.73239862254E+03  0.17150484834E+03 0.  0.
         24    2    3    3    0    0 -0.79492721418E+02 -0.19441272646E+02 -0.45623583577E+03  0.47041074732E+03  0.80237631500E+02 0.  0.
         -6    2    1    2    0  502  0.19686700618E+03 -0.38181752819E+02 -0.17743534180E+03  0.31768296874E+03  0.17095234346E+03 0.  0.
        -24    2    5    5    0    0  0.39493593533E+02 -0.25830613487E+01 -0.14789393217E+02  0.88533558017E+02  0.77801340653E+02 0.  0.
          5    1    3    3  501    0 -0.11737428476E+03  0.57623025464E+02 -0.22697669699E+03  0.26198787522E+03  0.47000000000E+01 0. -1.
        -11    1    4    4    0    0 -0.49011194777E+02 -0.38475176332E+02 -0.15524964863E+03  0.16728684888E+03  0.00000000000E+00 0.  1.
         12    1    4    4    0    0 -0.30481526641E+02  0.19033903687E+02 -0.30098618714E+03  0.30312389844E+03  0.00000000000E+00 0. -1.
         -5    1    5    5    0  502  0.15737341264E+03 -0.35598691470E+02 -0.16264594859E+03  0.22914941072E+03  0.47000000000E+01 0.  1.
         13    1    6    6    0    0  0.28121942816E+00  0.33748917281E+02 -0.38499095474E+01  0.33968960914E+02  0.00000000000E+00 0. -1.
        -14    1    6    6    0    0  0.39212374105E+02 -0.36331978630E+02 -0.10939483669E+02  0.54564597103E+02  0.00000000000E+00 0.  1.
</event>
<event>
12    1  0.8633375E-002  0.1985080E+03  0.7818608E-02  0.1151399E+00
         21   -1    0    0  503  502  0.00000000000E+00  0.00000000000E+00  0.95319929872E+02  0.95319929872E+02  0.00000000000E+00 0. -1.
         21   -1    0    0  501  503 -0.00000000000E+00 -0.00000000000E+00 -0.46358506957E+03  0.46358506957E+03  0.00000000000E+00 0.  1.
          6    2    1    2  501    0 -0.71722096291E+02 -0.61627346731E+02 -0.28028813384E+03  0.34346302994E+03  0.17453774951E+03 0.  0.
         24    2    3    3    0    0 -0.37654058756E+02  0.26061977221E+02 -0.19919426590E+03  0.21917162182E+03  0.79125150521E+02 0.  0.
         -6    2    1    2    0  502  0.71722096291E+02  0.61627346731E+02 -0.87977005852E+02  0.21544196949E+03  0.17243346456E+03 0.  0.
        -24    2    5    5    0    0  0.99164160329E+02  0.22026655272E+02 -0.19093088649E+02  0.13124953698E+03  0.80889991273E+02 0.  0.
          5    1    3    3  501    0 -0.34068037535E+02 -0.87689323952E+02 -0.81093867944E+02  0.12429140813E+03  0.47000000000E+01 0. -1.
        -11    1    4    4    0    0 -0.69606767823E+01 -0.11851243205E+02 -0.14733829548E+03  0.14797795884E+03  0.00000000000E+00 0.  1.
         12    1    4    4    0    0 -0.30693381973E+02  0.37913220426E+02 -0.51855970416E+02  0.71193662975E+02  0.00000000000E+00 0. -1.
         -5    1    5    5    0  502 -0.27442064038E+02  0.39600691459E+02 -0.68883917202E+02  0.84192432509E+02  0.47000000000E+01 0.  1.
         11    1    6    6    0    0  0.16196992338E+02 -0.13049881979E+02  0.23692435819E+02  0.31527345202E+02  0.00000000000E+00 0. -1.
        -12    1    6    6    0    0  0.82967167990E+02  0.35076537251E+02 -0.42785524468E+02  0.99722191782E+02  0.00000000000E+00 0.  1.
</event>
<event>
12    1  0.8633375E-002  0.1812892E+03  0.7818608E-02  0.1166826E+00
         21   -1    0    0  501  502  0.00000000000E+00  0.00000000000E+00  0.95538502893E+02  0.95538502893E+02  0.00000000000E+00 0. -1.
         21   -1    0    0  502  503 -0.00000000000E+00 -0.00000000000E+00 -0.34574163774E+03  0.34574163774E+03  0.00000000000E+00 0. -1.
         -6    2    1    2    0  503  0.42124300931E+02  0.36723969693E+02 -0.14866852177E+03  0.23445275803E+03  0.17246060333E+03 0.  0.
        -24    2    3    3    0    0  0.40016026732E+02  0.61385661889E+02 -0.27801430447E+02  0.11098783326E+03  0.78586880052E+02 0.  0.
          6    2    1    2  501    0 -0.42124300931E+02 -0.36723969693E+02 -0.10153461308E+03  0.20682738261E+03  0.17130435448E+03 0.  0.
         24    2    5    5    0    0 -0.91218537051E+02 -0.32201160146E+02 -0.51626863500E+02  0.13651683365E+03  0.81325129075E+02 0.  0.
          5    1    5    5  501    0  0.49094236120E+02 -0.45228095467E+01 -0.49907749575E+02  0.70310548953E+02  0.47000000000E+01 0. -1.
        -13    1    6    6    0    0 -0.21670230575E+02  0.24313297357E+02 -0.30110194672E+02  0.44354922441E+02  0.00000000000E+00 0.  1.
         14    1    6    6    0    0 -0.69548306476E+02 -0.56514457504E+02 -0.21516668829E+02  0.92161911211E+02  0.00000000000E+00 0. -1.
         -5    1    3    3    0  503  0.21082741989E+01 -0.24661692196E+02 -0.12086709133E+03  0.12346492477E+03  0.47000000000E+01 0.  1.
         11    1    4    4    0    0 -0.23980990375E+02  0.16631252136E+02 -0.10381221364E+02  0.30975090056E+02  0.00000000000E+00 0. -1.
        -12    1    4    4    0    0  0.63997017106E+02  0.44754409753E+02 -0.17420209083E+02  0.80012743206E+02  0.00000000000E+00 0.  1.
</event>
<event>
12    1  0.8633375E-002  0.2530792E+03  0.7818608E-02  0.1111769E+00
         21   -1    0    0  503  502  0.00000000000E+00  0.00000000000E+00  0.68589675876E+03  0.68589675876E+03  0.00000000000E+00 0. -1.
         21   -1    0    0  501  503 -0.00000000000E+00 -0.00000000000E+00 -0.17011619067E+03  0.17011619067E+03  0.00000000000E+00 0. -1.
          6    2    1    2  501    0 -0.18316557700E+03  0.69228721149E+01 -0.32004027378E+02  0.25259181802E+03  0.17082392691E+03 0.  0.
         24    2    3    3    0    0 -0.11389808736E+03  0.70575753611E+02 -0.25117507769E+02  0.15815036210E+03  0.80168176562E+02 0.  0.
         -6    2    1    2    0  502  0.18316557700E+03 -0.69228721149E+01  0.54778459547E+03  0.60342113142E+03  0.17450370786E+03 0.  0.
        -24    2    5    5    0    0  0.19402444608E+03 -0.93695772644E+01  0.55190750693E+03  0.59065438544E+03  0.80854388766E+02 0.  0.
          5    1    3    3  501    0 -0.69267489638E+02 -0.63652881496E+02 -0.68865196093E+01  0.94441455918E+02  0.47000000000E+01 0. -1.
        -13    1    4    4    0    0 -0.25542513393E+02  0.24533603228E+02  0.28087343043E+02  0.45201952580E+02  0.00000000000E+00 0.  1.
         14    1    4    4    0    0 -0.88355573966E+02  0.46042150383E+02 -0.53204850812E+02  0.11294840952E+03  0.00000000000E+00 0. -1.
         -5    1    5    5    0  502 -0.10858869085E+02  0.24467051495E+01 -0.41229114616E+01  0.12766745976E+02  0.47000000000E+01 0.  1.
         13    1    6    6    0    0  0.62040099046E+02 -0.41294720879E+02  0.20384468587E+03  0.21704120305E+03  0.00000000000E+00 0. -1.
        -14    1    6    6    0    0  0.13198434704E+03  0.31925143614E+02  0.34806282106E+03  0.37361318240E+03  0.00000000000E+00 0.  1.
</event>
<event>
12    1  0.8633375E-002  0.2002480E+03  0.7818608E-02  0.1150851E+00
         21   -1    0    0  501  502  0.00000000000E+00  0.00000000000E+00  0.82409878136E+02  0.82409878136E+02  0.00000000000E+00 0. -1.
         21   -1    0    0  502  503 -0.00000000000E+00 -0.00000000000E+00 -0.48359347709E+03  0.48359347709E+03  0.00000000000E+00 0. -1.
         -6    2    1    2    0  503 -0.79508393278E+02  0.38611757002E+02 -0.24801680048E+03  0.31876572695E+03  0.17968528869E+03 0.  0.
        -24    2    3    3    0    0  0.30957527185E+02  0.11671772937E+02 -0.10341788214E+03  0.13475643503E+03  0.79808769336E+02 0.  0.
          6    2    1    2  501    0  0.79508393278E+02 -0.38611757002E+02 -0.15316679847E+03  0.24723762828E+03  0.17278288197E+03 0.  0.
         24    2    5    5    0    0  0.79446733575E+02 -0.89746870210E+02 -0.10338712179E+03  0.17571903059E+03  0.76302008965E+02 0.  0.
          5    1    5    5  501    0  0.61659702918E-01  0.51135113208E+02 -0.49779676679E+02  0.71518597686E+02  0.47000000000E+01 0. -1.
        -11    1    6    6    0    0  0.10343441935E+02  0.82790942113E-01 -0.48873098669E+02  0.49955714577E+02  0.00000000000E+00 0.  1.
         12    1    6    6    0    0  0.69103291641E+02 -0.89829661152E+02 -0.54514023120E+02  0.12576331601E+03  0.00000000000E+00 0. -1.
         -5    1    3    3    0  503 -0.11046592046E+03  0.26939984065E+02 -0.14459891834E+03  0.18400929192E+03  0.47000000000E+01 0.  1.
         13    1    4    4    0    0 -0.12576520025E+02  0.34071860920E+02 -0.54924173941E+02  0.65846225751E+02  0.00000000000E+00 0. -1.
        -14    1    4    4    0    0  0.43534047210E+02 -0.22400087983E+02 -0.48493708200E+02  0.68910209281E+02  0.00000000000E+00 0.  1.
</event>
<event>
12    1  0.8633375E-002  0.1955822E+03  0.7818608E-02  0.1154107E+00
         21   -1    0    0  503  502  0.00000000000E+00  0.00000000000E+00  0.10833807758E+03  0.10833807758E+03  0.00000000000E+00 0. -1.
         21   -1    0    0  501  503 -0.00000000000E+00 -0.00000000000E+00 -0.10441645050E+04  0.10441645050E+04  0.00000000000E+00 0. -1.
          6    2    1    2  501    0  0.87087192618E+02  0.18663134774E+02 -0.93942380323E+03  0.95956733971E+03  0.17412611991E+03 0.  0.
         24    2    3    3    0    0  0.93733305796E+02  0.57931757592E+02 -0.51022782077E+03  0.52850182622E+03  0.82702660628E+02 0.  0.
         -6    2    1    2    0  502 -0.87087192618E+02 -0.18663134774E+02  0.35973758525E+01  0.19293524283E+03  0.17110983343E+03 0.  0.
        -24    2    5    5    0    0 -0.11552095890E+03 -0.10330313640E+02  0.41356807017E+02  0.14470890548E+03  0.76016277944E+02 0.  0.
          5    1    3    3  501    0 -0.66461131778E+01 -0.39268622817E+02 -0.42919598246E+03  0.43106551349E+03  0.47000000000E+01 0. -1.
        -13    1    4    4    0    0  0.53741919518E+02  0.13241653906E+02 -0.10344229517E+03  0.11731940906E+03  0.00000000000E+00 0.  1.
         14    1    4    4    0    0  0.39991386278E+02  0.44690103686E+02 -0.40678552560E+03  0.41118241716E+03  0.00000000000E+00 0. -1.
         -5    1    5    5    0  502  0.28433766281E+02 -0.83328211341E+01 -0.37759431165E+02  0.48226337357E+02  0.47000000000E+01 0.  1.
         13    1    6    6    0    0  0.93598395214E+01  0.78620787157E+01  0.61904572358E+01  0.13701847992E+02  0.00000000000E+00 0. -1.
        -14    1    6    6    0    0 -0.12488079842E+03 -0.18192392356E+02  0.35166349781E+02  0.13100705748E+03  0.00000000000E+00 0.  1.
</event>
<event>
12    1  0.8633375E-002  0.2149487E+03  0.7818608E-02  0.1137755E+00
         21   -1    0    0  501  502  0.00000000000E+00  0.00000000000E+00  0.20591371760E+04  0.20591371760E+04  0.00000000000E+00 0.  1.
         21   -1    0    0  502  503 -0.00000000000E+00 -0.00000000000E+00 -0.24685011621E+02  0.24685011621E+02  0.00000000000E+00 0.  1.
         -6    2    1    2    0  503  0.27766638365E+02  0.12695360284E+03  0.70155981332E+03  0.73375002386E+03  0.17121542680E+03 0.  0.
        -24    2    3    3    0    0  0.46753080569E+02  0.66770280425E+02  0.21148764729E+03  0.23960901645E+03  0.77726024727E+02 0.  0.
          6    2    1    2  501    0 -0.27766638365E+02 -0.12695360284E+03  0.13328923511E+04  0.13500721638E+04  0.17089360539E+03 0.  0.
         24    2    5    5    0    0  0.51007831549E+02 -0.72557810579E+02  0.65541948752E+03  0.66585298092E+03  0.76935380874E+02 0.  0.
          5    1    5    5  501    0 -0.78774469914E+02 -0.54395792259E+02  0.67747286357E+03  0.68421918287E+03  0.47000000000E+01 0. -1.
        -11    1    6    6    0    0  0.28933113975E+02 -0.71449377765E+02  0.61476230786E+03  0.61957633415E+03  0.00000000000E+00 0.  1.
         12    1    6    6    0    0  0.22074717573E+02 -0.11084328138E+01  0.40657179657E+02  0.46276646777E+02  0.00000000000E+00 0. -1.
         -5    1    3    3    0  503 -0.18986442204E+02  0.60183322413E+02  0.49007216603E+03  0.49414100741E+03  0.47000000000E+01 0.  1.
         13    1    4    4    0    0 -0.14401627373E+02  0.41028270162E+01  0.57989893382E+01  0.16058279418E+02  0.00000000000E+00 0. -1.
        -14    1    4    4    0    0  0.61154707942E+02  0.62667453409E+02  0.20568865795E+03  0.22355073703E+03  0.00000000000E+00 0.  1.
</event>
<event>
12    1  0.8633375E-002  0.2131042E+03  0.7818608E-02  0.1139965E+00
         21   -1    0    0  501  502  0.00000000000E+00  0.00000000000E+00  0.14551930448E+03  0.14551930448E+03  0.00000000000E+00 0.  1.
         21   -1    0    0  502  503 -0.00000000000E+00 -0.00000000000E+00 -0.63702366818E+03  0.63702366818E+03  0.00000000000E+00 0.  1.
         -6    2    1    2    0  503  0.71935768308E+02  0.10237040752E+03 -0.52665731406E+03  0.56655883836E+03  0.16723198192E+03 0.  0.
        -24    2    3    3    0    0 -0.11025324698E+02  0.95026926230E+02 -0.34247185367E+03  0.36436377540E+03  0.79512991206E+02 0.  0.
          6    2    1    2  501    0 -0.71935768308E+02 -0.10237040752E+03  0.35152950359E+02  0.21598413429E+03  0.17250785851E+03 0.  0.
         24    2    5    5    0    0 -0.70330579489E+02 -0.19953285211E+02 -0.28874706475E+02  0.11150069292E+03  0.79083069270E+02 0.  0.
          5    1    5    5  501    0 -0.16051888190E+01 -0.82417122310E+02  0.64027656834E+02  0.10448344137E+03  0.47000000000E+01 0. -1.
        -11    1    6    6    0    0 -0.25934029032E+02 -0.35182851705E+02 -0.44165293032E+02  0.62136784794E+02  0.00000000000E+00 0.  1.
         12    1    6    6    0    0 -0.44396550456E+02  0.15229566494E+02  0.15290586557E+02  0.49363908124E+02  0.00000000000E+00 0. -1.
         -5    1    3    3    0  503  0.82961093006E+02  0.73434812909E+01 -0.18418546039E+03  0.20219506297E+03  0.47000000000E+01 0.  1.
         13    1    4    4    0    0 -0.26419441562E+02  0.96734421160E+02 -0.23107332633E+03  0.25189366263E+03  0.00000000000E+00 0. -1.
        -14    1    4    4    0    0  0.15394116865E+02 -0.17074949294E+01 -0.11139852734E+03  0.11247011277E+03  0.00000000000E+00 0.  1.
</event>
<event>
12    1  0.8633375E-002  0.2040292E+03  0.7818608E-02  0.1146449E+00
         21   -1    0    0  501  502  0.00000000000E+00  0.00000000000E+00  0.98666434010E+03  0.98666434010E+03  0.00000000000E+00 0.  1.
         21   -1    0    0  502  503 -0.00000000000E+00 -0.00000000000E+00 -0.17587285018E+03  0.17587285018E+03  0.00000000000E+00 0.  1.
         -6    2    1    2    0  503 -0.76551678599E+02  0.78550744709E+02 -0.10158032156E+03  0.22763064662E+03  0.17165887849E+03 0.  0.
        -24    2    3    3    0    0  0.16639486537E+02  0.73796104770E+02 -0.62387273924E+02  0.12631241113E+03  0.79623587380E+02 0.  0.
          6    2    1    2  501    0  0.76551678599E+02 -0.78550744709E+02  0.91237181148E+03  0.93490654366E+03  0.17203936761E+03 0.  0.
         24    2    5    5    0    0  0.95483977341E+02 -0.95091443959E+02  0.55651911832E+03  0.57813595085E+03  0.79800225337E+02 0.  0.
          5    1    5    5  501    0 -0.18932298742E+02  0.16540699250E+02  0.35585269316E+03  0.35677059281E+03  0.47000000000E+01 0. -1.
        -11    1    6    6    0    0  0.82192004602E+02 -0.44938928756E+02  0.45007606840E+03  0.45972111142E+03  0.00000000000E+00 0.  1.
         12    1    6    6    0    0  0.13291972739E+02 -0.50152515203E+02  0.10644304992E+03  0.11841483942E+03  0.00000000000E+00 0. -1.
         -5    1    3    3    0  503 -0.93191165135E+02  0.47546399388E+01 -0.39193047633E+02  0.10131823549E+03  0.47000000000E+01 0.  1.
         11    1    4    4    0    0  0.27672121630E+02 -0.52750421179E+01 -0.26873810571E+02  0.38932943370E+02  0.00000000000E+00 0. -1.
        -12    1    4    4    0    0 -0.11032635094E+02  0.79071146888E+02 -0.35513463354E+02  0.87379467764E+02  0.00000000000E+00 0.  1.
</event>
<event>
12    1  0.8633375E-002  0.3289091E+03  0.7818608E-02  0.1071992E+00
         21   -1    0    0  501  502  0.00000000000E+00  0.00000000000E+00  0.15678983256E+03  0.15678983256E+03  0.00000000000E+00 0.  1.
         21   -1    0    0  502  503 -0.00000000000E+00 -0.00000000000E+00 -0.99961669531E+03  0.99961669531E+03  0.00000000000E+00 0.  1.
         -6    2    1    2    0  503 -0.80488233709E+02 -0.26791683817E+03 -0.74827294979E+03  0.81736993864E+03  0.17298387575E+03 0.  0.
        -24    2    3    3    0    0  0.18824444753E+02 -0.10270404936E+03 -0.37117777218E+03  0.39383583533E+03  0.80195044457E+02 0.  0.
          6    2    1    2  501    0  0.80488233709E+02  0.26791683817E+03 -0.94553912960E+02  0.33903658922E+03  0.16657604400E+03 0.  0.
         24    2    5    5    0    0  0.10418846593E+03  0.27108335598E+03 -0.86883813411E+02  0.31348960762E+03  0.79909415766E+02 0.  0.
          5    1    5    5  501    0 -0.23700232218E+02 -0.31665178070E+01 -0.76700995484E+01  0.25546981608E+02  0.47000000000E+01 0. -1.
        -11    1    6    6    0    0  0.29816861192E+02  0.11129049284E+03  0.37965073349E+01  0.11527806589E+03  0.00000000000E+00 0.  1.
         12    1    6    6    0    0  0.74371604735E+02  0.15979286314E+03 -0.90680320746E+02  0.19821154172E+03  0.00000000000E+00 0. -1.
         -5    1    3    3    0  503 -0.99312678462E+02 -0.16521278882E+03 -0.37709517760E+03  0.42353410331E+03  0.47000000000E+01 0.  1.
         13    1    4    4    0    0  0.27611607225E+02 -0.19868322858E+02 -0.40811121631E+02  0.53129076366E+02  0.00000000000E+00 0. -1.
        -14    1    4    4    0    0 -0.87871624721E+01 -0.82835726498E+02 -0.33036665055E+03  0.34070675897E+03  0.00000000000E+00 0.  1.
</event>
<event>
12    1  0.8633375E-002  0.2031060E+03  0.7818608E-02  0.1147160E+00
         21   -1    0    0  503  502  0.00000000000E+00  0.00000000000E+00  0.68359238447E+03  0.68359238447E+03  0.00000000000E+00 0. -1.
         21   -1    0    0  501  503 -0.00000000000E+00 -0.00000000000E+00 -0.84347759667E+02  0.84347759667E+02  0.00000000000E+00 0. -1.
          6    2    1    2  501    0 -0.59363205127E+02 -0.90399312702E+02  0.94742934592E+02  0.22411665053E+03  0.17191865382E+03 0.  0.
         24    2    3    3    0    0  0.45041319539E+01 -0.30346211129E+02 -0.12641432593E+02  0.85412273999E+02  0.78703691127E+02 0.  0.
         -6    2    1    2    0  502  0.59363205127E+02  0.90399312702E+02  0.50450169021E+03  0.54382349360E+03  0.17183134437E+03 0.  0.
        -24    2    5    5    0    0 -0.25813148382E+01  0.65664269038E+02  0.43599047061E+03  0.44809041076E+03  0.79867805409E+02 0.  0.
          5    1    3    3  501    0 -0.63867337081E+02 -0.60053101572E+02  0.10738436719E+03  0.13870437654E+03  0.47000000000E+01 0. -1.
        -11    1    4    4    0    0  0.19086244652E+02  0.13259827139E+02  0.18647363740E+02  0.29796508606E+02  0.00000000000E+00 0.  1.
         12    1    4    4    0    0 -0.14582112698E+02 -0.43606038269E+02 -0.31288796333E+02  0.55615765392E+02  0.00000000000E+00 0. -1.
         -5    1    5    5    0  502  0.61944519966E+02  0.24735043663E+02  0.68511219600E+02  0.95733082839E+02  0.47000000000E+01 0.  1.
         11    1    6    6    0    0  0.27388731015E+02  0.62177950779E+02  0.22752780282E+03  0.23745555628E+03  0.00000000000E+00 0. -1.
        -12    1    6    6    0    0 -0.29970045853E+02  0.34863182593E+01  0.20846266778E+03  0.21063485448E+03  0.00000000000E+00 0.  1.
</event>
<event>
12    1  0.8633375E-002  0.2255874E+03  0.7818608E-02  0.1129851E+00
         21   -1    0    0  501  502  0.00000000000E+00  0.00000000000E+00  0.17440990183E+03  0.17440990183E+03  0.00000000000E+00 0. -1.
         21   -1    0    0  502  503 -0.00000000000E+00 -0.00000000000E+00 -0.29591252842E+03  0.29591252842E+03  0.00000000000E+00 0.  1.
         -6    2    1    2    0  503 -0.12680571792E+03 -0.72557387778E+02 -0.90047380803E+02  0.24255260028E+03  0.17140294191E+03 0.  0.
        -24    2    3    3    0    0 -0.33214985737E+02 -0.60882536296E+02  0.80271887278E+01  0.10640474501E+03  0.80297045386E+02 0.  0.
          6    2    1    2  501    0  0.12680571792E+03  0.72557387778E+02 -0.31455245783E+02  0.22776982996E+03  0.17188774923E+03 0.  0.
         24    2    5    5    0    0  0.13875098982E+03  0.80609072469E+01 -0.19449599062E+02  0.16092141132E+03  0.78743877960E+02 0.  0.
          5    1    5    5  501    0 -0.11945271900E+02  0.64496480531E+02 -0.12005646721E+02  0.66848418641E+02  0.47000000000E+01 0. -1.
        -13    1    6    6    0    0  0.66333075586E+02  0.42849351643E+02 -0.15554644309E+02  0.80486587781E+02  0.00000000000E+00 0.  1.
         14    1    6    6    0    0  0.72417914236E+02 -0.34788444396E+02 -0.38949547532E+01  0.80434823543E+02  0.00000000000E+00 0. -1.
         -5    1    3    3    0  503 -0.93590732186E+02 -0.11674851482E+02 -0.98074569530E+02  0.13614785528E+03  0.47000000000E+01 0.  1.
         11    1    4    4    0    0 -0.50717217135E+02 -0.13565973408E+02 -0.87792056123E+01  0.53229185600E+02  0.00000000000E+00 0. -1.
        -12    1    4    4    0    0  0.17502231399E+02 -0.47316562888E+02  0.16806394340E+02  0.53175559406E+02  0.00000000000E+00 0.  1.
</event>
<event>
12    1  0.8633375E-002  0.2098173E+03  0.7818608E-02  0.1141801E+00
         21   -1    0    0  503  502  0.00000000000E+00  0.00000000000E+00  0.14812305706E+03  0.14812305706E+03  0.00000000000E+00 0.  1.
         21   -1    0    0  501  503 -0.00000000000E+00 -0.00000000000E+00 -0.44666092622E+03  0.44666092622E+03  0.00000000000E+00 0. -1.
          6    2    1    2  501    0 -0.64117472408E+02 -0.10229954776E+03 -0.32177414282E+03  0.38413786102E+03  0.17160142640E+03 0.  0.
         24    2    3    3    0    0 -0.28828897617E+02 -0.38667251103E+02 -0.59153402493E+02  0.11158310333E+03  0.81396574110E+02 0.  0.
         -6    2    1    2    0  502  0.64117472408E+02  0.10229954776E+03  0.23236273657E+02  0.21064612226E+03  0.17104273346E+03 0.  0.
        -24    2    5    5    0    0 -0.90201694522E+01  0.10792459334E+03  0.24178292842E+02  0.13713603319E+03  0.80576798457E+02 0.  0.
          5    1    3    3  501    0 -0.35288574791E+02 -0.63632296653E+02 -0.26262074033E+03  0.27255475769E+03  0.47000000000E+01 0. -1.
        -13    1    4    4    0    0 -0.42059146419E+02 -0.56418085000E+02 -0.54384976303E+02  0.88936481604E+02  0.00000000000E+00 0.  1.
         14    1    4    4    0    0  0.13230248802E+02  0.17750833896E+02 -0.47684261901E+01  0.22646621728E+02  0.00000000000E+00 0. -1.
         -5    1    5    5    0  502  0.73137641860E+02 -0.56250455841E+01 -0.94201918471E+00  0.73510089068E+02  0.47000000000E+01 0.  1.
         11    1    6    6    0    0  0.30803440752E+02  0.62343829703E+02  0.31173185313E+02  0.76206118827E+02  0.00000000000E+00 0. -1.
        -12    1    6    6    0    0 -0.39823610205E+02  0.45580763638E+02 -0.69948924709E+01  0.60929914363E+02  0.00000000000E+00 0.  1.
</event>
<event>
12    1  0.8633375E-002  0.2190248E+03  0.7818608E-02  0.1134815E+00
         21   -1    0    0  501  502  0.00000000000E+00  0.00000000000E+00  0.22877305309E+03  0.22877305309E+03  0.00000000000E+00 0. -1.
         21   -1    0    0  502  503 -0.00000000000E+00 -0.00000000000E+00 -0.78167125583E+03  0.78167125583E+03  0.00000000000E+00 0. -1.
         -6    2    1    2    0  503 -0.99179235614E+02  0.90662968117E+02 -0.70919715019E+03  0.74224823629E+03  0.17296112820E+03 0.  0.
        -24    2    3    3    0    0 -0.13230849883E+03  0.68500978181E+02 -0.46439336826E+03  0.49417630412E+03  0.79693765121E+02 0.  0.
          6    2    1    2  501    0  0.99179235614E+02 -0.90662968117E+02  0.15629894746E+03  0.26819607263E+03  0.17159101909E+03 0.  0.
         24    2    5    5    0    0  0.11523060687E+03 -0.28944588717E+02  0.14426122871E+03  0.20312840364E+03  0.79586206601E+02 0.  0.
          5    1    5    5  501    0 -0.16051371252E+02 -0.61718379400E+02  0.12037718745E+02  0.65067668987E+02  0.47000000000E+01 0. -1.
        -11    1    6    6    0    0  0.71706862645E+00  0.78662413507E+01  0.49158846238E+02  0.49789397504E+02  0.00000000000E+00 0.  1.
         12    1    6    6    0    0  0.11451353824E+03 -0.36810830068E+02  0.95102382475E+02  0.15333900614E+03  0.00000000000E+00 0. -1.
         -5    1    3    3    0  503  0.33129263216E+02  0.22161989936E+02 -0.24480378194E+03  0.24807193217E+03  0.47000000000E+01 0.  1.
         13    1    4    4    0    0 -0.10298625888E+03  0.19469727067E+02 -0.36263262982E+03  0.37747538198E+03  0.00000000000E+00 0. -1.
        -14    1    4    4    0    0 -0.29322239948E+02  0.49031251114E+02 -0.10176073844E+03  0.11670092214E+03  0.00000000000E+00 0.  1.
</event>
<event>
12    1  0.8633375E-002  0.2011951E+03  0.7818608E-02  0.1148937E+00
         21   -1    0    0  503  502  0.00000000000E+00  0.00000000000E+00  0.63420547083E+02  0.63420547083E+02  0.00000000000E+00 0. -1.
         21   -1    0    0  501  503 -0.00000000000E+00 -0.00000000000E+00 -0.12766830520E+04  0.12766830520E+04  0.00000000000E+00 0. -1.
          6    2    1    2  501    0  0.38101180328E+02  0.92284382434E+02 -0.10823092958E+04  0.11008509759E+04  0.17467499030E+03 0.  0.
         24    2    3    3    0    0  0.72096173000E+02  0.45490466692E+02 -0.40001805652E+03  0.41609645402E+03  0.76515180071E+02 0.  0.
         -6    2    1    2    0  502 -0.38101180328E+02 -0.92284382434E+02 -0.13095320913E+03  0.23925262317E+03  0.17356545604E+03 0.  0.
        -24    2    5    5    0    0 -0.71413777231E+02 -0.63678192106E+01 -0.60646511908E+02  0.12325043947E+03  0.79826027861E+02 0.  0.
          5    1    3    3  501    0 -0.33994992672E+02  0.46793915742E+02 -0.68229123926E+03  0.68475452189E+03  0.47000000000E+01 0. -1.
        -11    1    4    4    0    0  0.61242777874E+02  0.25934987131E+02 -0.13868150696E+03  0.15380462208E+03  0.00000000000E+00 0.  1.
         12    1    4    4    0    0  0.10853395126E+02  0.19555479561E+02 -0.26133654956E+03  0.26229183194E+03  0.00000000000E+00 0. -1.
         -5    1    5    5    0  502  0.33312596902E+02 -0.85916563224E+02 -0.70306697226E+02  0.11600218370E+03  0.47000000000E+01 0.  1.
         13    1    6    6    0    0 -0.11608402479E+02 -0.19777806353E+01  0.19725305117E+02  0.22972903307E+02  0.00000000000E+00 0. -1.
        -14    1    6    6    0    0 -0.59805374751E+02 -0.43900385753E+01 -0.80371817025E+02  0.10027753617E+03  0.00000000000E+00 0.  1.
</event>
<event>
12    1  0.8633375E-002  0.1741228E+03  0.7818608E-02  0.1173684E+00
         21   -1    0    0  501  502  0.00000000000E+00  0.00000000000E+00  0.37217722259E+03  0.37217722259E+03  0.00000000000E+00 0. -1.
         21   -1    0    0  502  503 -0.00000000000E+00 -0.00000000000E+00 -0.14991715876E+03  0.14991715876E+03  0.00000000000E+00 0. -1.
         -6    2    1    2    0  503  0.10842645990E+02 -0.29316452729E+02 -0.65477666074E+02  0.18577350267E+03  0.17101886495E+03 0.  0.
        -24    2    3    3    0    0  0.22571027163E+02  0.26740293314E+01  0.26412213463E+02  0.87657317317E+02  0.80433814774E+02 0.  0.
          6    2    1    2  501    0 -0.10842645990E+02  0.29316452729E+02  0.28773772991E+03  0.33632087867E+03  0.17129423472E+03 0.  0.
         24    2    5    5    0    0 -0.63737454812E+02  0.38965929358E+02  0.12488755734E+03  0.16475968871E+03  0.77253130985E+02 0.  0.
          5    1    5    5  501    0  0.52894808822E+02 -0.96494766292E+01  0.16285017256E+03  0.17156118997E+03  0.47000000000E+01 0. -1.
        -13    1    6    6    0    0 -0.11887562264E+02  0.31923940216E+01  0.93633710632E+02  0.94439278285E+02  0.00000000000E+00 0.  1.
         14    1    6    6    0    0 -0.51849892548E+02  0.35773535336E+02  0.31253846710E+02  0.70320410421E+02  0.00000000000E+00 0. -1.
         -5    1    3    3    0  503 -0.11728381173E+02 -0.31990482060E+02 -0.91889879537E+02  0.98116185355E+02  0.47000000000E+01 0.  1.
         13    1    4    4    0    0 -0.27067832488E+02  0.16922472452E+02  0.92123160968E+01  0.33225056770E+02  0.00000000000E+00 0. -1.
        -14    1    4    4    0    0  0.49638859651E+02 -0.14248443121E+02  0.17199897366E+02  0.54432260547E+02  0.00000000000E+00 0.  1.
</event>
<event>
12    1  0.8633375E-002  0.1907073E+03  0.7818608E-02  0.1157872E+00
         21   -1    0    0  501  502  0.00000000000E+00  0.00000000000E+00  0.63051009053E+03  0.63051009053E+03  0.00000000000E+00 0. -1.
         21   -1    0    0  502  503 -0.00000000000E+00 -0.00000000000E+00 -0.70180522387E+02  0.70180522387E+02  0.00000000000E+00 0.  1.
         -6    2    1    2    0  503 -0.60183831280E+02  0.54982705634E+02  0.13181760909E+03  0.23165782344E+03  0.17217512488E+03 0.  0.
        -24    2    3    3    0    0 -0.74869106799E+02 -0.42730505737E+01  0.13059987287E+03  0.17041670292E+03  0.79761417524E+02 0.  0.
          6    2    1    2  501    0  0.60183831280E+02 -0.54982705634E+02  0.42851195906E+03  0.46903278948E+03  0.17240669096E+03 0.  0.
         24    2    5    5    0    0 -0.11016993913E+01  0.30819936649E+02  0.21016886992E+03  0.22651721418E+03  0.78663919290E+02 0.  0.
          5    1    5    5  501    0  0.61285530671E+02 -0.85802642283E+02  0.21834308914E+03  0.24251557531E+03  0.47000000000E+01 0. -1.
        -11    1    6    6    0    0  0.43541952898E+01 -0.24759536294E+02  0.38395218228E+02  0.45893206871E+02  0.00000000000E+00 0.  1.
         12    1    6    6    0    0 -0.54558946810E+01  0.55579472943E+02  0.17177365169E+03  0.18062400731E+03  0.00000000000E+00 0. -1.
         -5    1    3    3    0  503  0.14685275520E+02  0.59255756208E+02  0.12177362164E+01  0.61241120518E+02  0.47000000000E+01 0.  1.
         11    1    4    4    0    0 -0.78274957907E+02  0.17735633745E+02  0.12303097673E+03  0.14689500664E+03  0.00000000000E+00 0. -1.
        -12    1    4    4    0    0  0.34058511075E+01 -0.22008684319E+02  0.75688961432E+01  0.23521696283E+02  0.00000000000E+00 0.  1.
</event>
<event>
12    1  0.8633375E-002  0.1973706E+03  0.7818608E-02  0.1152162E+00
         21   -1    0    0  501  502  0.00000000000E+00  0.00000000000E+00  0.77837606466E+03  0.77837606466E+03  0.00000000000E+00 0. -1.
         21   -1    0    0  502  503 -0.00000000000E+00 -0.00000000000E+00 -0.71244166461E+02  0.71244166461E+02  0.00000000000E+00 0. -1.
         -6    2    1    2    0  503 -0.75512973976E+02  0.59246275088E+02  0.58593362923E+03  0.61800810743E+03  0.17147440809E+03 0.  0.
        -24    2    3    3    0    0 -0.57252655073E+01  0.37793285506E+02  0.13353375363E+03  0.15973057966E+03  0.78876381917E+02 0.  0.
          6    2    1    2  501    0  0.75512973976E+02 -0.59246275088E+02  0.12119826897E+03  0.23161212370E+03  0.17246108283E+03 0.  0.
         24    2    5    5    0    0  0.11315043785E+02 -0.79072566488E+02  0.26852805364E+02  0.11569140693E+03  0.79264919704E+02 0.  0.
          5    1    5    5  501    0  0.64197930191E+02  0.19826291400E+02  0.94345463605E+02  0.11592071676E+03  0.47000000000E+01 0. -1.
        -11    1    6    6    0    0  0.38340385853E+01 -0.49801947217E+02  0.55072762282E+02  0.74350137484E+02  0.00000000000E+00 0.  1.
         12    1    6    6    0    0  0.74810051993E+01 -0.29270619271E+02 -0.28219956918E+02  0.41341269450E+02  0.00000000000E+00 0. -1.
         -5    1    3    3    0  503 -0.69787708469E+02  0.21452989582E+02  0.45239987560E+03  0.45827752777E+03  0.47000000000E+01 0.  1.
         11    1    4    4    0    0  0.54325360920E+00  0.24265677671E+02  0.14098769481E+03  0.14306169413E+03  0.00000000000E+00 0. -1.
        -12    1    4    4    0    0 -0.62685191165E+01  0.13527607835E+02 -0.74539411837E+01  0.16668885530E+02  0.00000000000E+00 0.  1.
</event>
<event>
12    1  0.8633375E-002  0.1795430E+03  0.7818608E-02  0.1168442E+00
         21   -1    0    0  501  502  0.00000000000E+00  0.00000000000E+00  0.28969449741E+02  0.28969449741E+02  0.00000000000E+00 0. -1.
         21   -1    0    0  502  503 -0.00000000000E+00 -0.00000000000E+00 -0.20570253109E+04  0.20570253109E+04  0.00000000000E+00 0. -1.
         -6    2    1    2    0  503  0.53848732342E+02 -0.28662383544E+01 -0.17237791019E+04  0.17331041785E+04  0.17125361384E+03 0.  0.
        -24    2    3    3    0    0  0.27835541447E+02  0.63232820214E+02 -0.11758212856E+04  0.11805413947E+04  0.79681127128E+02 0.  0.
          6    2    1    2  501    0 -0.53848732342E+02  0.28662383544E+01 -0.30427675928E+03  0.35289058211E+03  0.17040984540E+03 0.  0.
         24    2    5    5    0    0 -0.72853080818E+02 -0.40960086724E+02 -0.26744943459E+03  0.29239055009E+03  0.83532829659E+02 0.  0.
          5    1    5    5  501    0  0.19004348477E+02  0.43826325079E+02 -0.36827324689E+02  0.60500032022E+02  0.47000000000E+01 0. -1.
        -11    1    6    6    0    0  0.40043704225E+01 -0.28148219433E+02 -0.14118775924E+03  0.14402201429E+03  0.00000000000E+00 0.  1.
         12    1    6    6    0    0 -0.76857451241E+02 -0.12811867291E+02 -0.12626167535E+03  0.14836853580E+03  0.00000000000E+00 0. -1.
         -5    1    3    3    0  503  0.26013190895E+02 -0.66099058569E+02 -0.54795781633E+03  0.55256278387E+03  0.47000000000E+01 0.  1.
         13    1    4    4    0    0  0.30987698997E+02  0.13159467001E+02 -0.86844013773E+03  0.86909244726E+03  0.00000000000E+00 0. -1.
        -14    1    4    4    0    0 -0.31521575501E+01  0.50073353213E+02 -0.30738114784E+03  0.31144894742E+03  0.00000000000E+00 0.  1.
</event>
<event>
12    1  0.8633375E-002  0.1964782E+03  0.7818608E-02  0.1152872E+00
         21   -1    0    0  503  502  0.00000000000E+00  0.00000000000E+00  0.26636743742E+03  0.26636743742E+03  0.00000000000E+00 0.  1.
         21   -1    0    0  501  503 -0.00000000000E+00 -0.00000000000E+00 -0.15014547356E+03  0.15014547356E+03  0.00000000000E+00 0.  1.
          6    2    1    2  501    0  0.28167282230E+02 -0.90464160696E+02  0.17614478135E+02  0.19667858103E+03  0.17144980092E+03 0.  0.
         24    2    3    3    0    0  0.18114638385E+02 -0.27455505560E+02  0.66224287084E+02  0.11632841117E+03  0.89803664377E+02 0.  0.
         -6    2    1    2    0  502 -0.28167282230E+02  0.90464160696E+02  0.98607485727E+02  0.21983432996E+03  0.17212360741E+03 0.  0.
        -24    2    5    5    0    0 -0.50427186568E+02  0.54900579943E+02  0.12516030500E+03  0.16996035049E+03  0.87546810156E+02 0.  0.
          5    1    3    3  501    0  0.10052643845E+02 -0.63008655136E+02 -0.48609808949E+02  0.80350169859E+02  0.47000000000E+01 0. -1.
        -11    1    4    4    0    0 -0.62712507833E+01 -0.55696533093E+02  0.51816580225E+02  0.76330795693E+02  0.00000000000E+00 0.  1.
         12    1    4    4    0    0  0.24385889168E+02  0.28241027533E+02  0.14407706858E+02  0.39997615474E+02  0.00000000000E+00 0. -1.
         -5    1    5    5    0  502  0.22259904338E+02  0.35563580752E+02 -0.26552819270E+02  0.49873979471E+02  0.47000000000E+01 0.  1.
         11    1    6    6    0    0 -0.13147691179E+02  0.28665232045E+02  0.12001020244E+03  0.12408467271E+03  0.00000000000E+00 0. -1.
        -12    1    6    6    0    0 -0.37279495389E+02  0.26235347898E+02  0.51501025603E+01  0.45875677785E+02  0.00000000000E+00 0.  1.
</event>
<event>
12    1  0.8633375E-002  0.2517090E+03  0.7818608E-02  0.1112242E+00
         21   -1    0    0  503  502  0.00000000000E+00  0.00000000000E+00  0.88883056733E+03  0.88883056733E+03  0.00000000000E+00 0.  1.
         21   -1    0    0  501  503 -0.00000000000E+00 -0.00000000000E+00 -0.75618221272E+02  0.75618221272E+02  0.00000000000E+00 0. -1.
          6    2    1    2  501    0 -0.99148217989E+02 -0.15520709789E+03  0.29088844683E+03  0.38467322863E+03  0.17157445020E+03 0.  0.
         24    2    3    3    0    0 -0.36088758780E+02 -0.42190079425E+02  0.20842303416E+03  0.23114155064E+03  0.83089433472E+02 0.  0.
         -6    2    1    2    0  502  0.99148217989E+02  0.15520709789E+03  0.52232389923E+03  0.57977555997E+03  0.17145795947E+03 0.  0.
        -24    2    5    5    0    0  0.11878271911E+03  0.16637487106E+03  0.40937037825E+03  0.46448973824E+03  0.79854106088E+02 0.  0.
          5    1    3    3  501    0 -0.63059459208E+02 -0.11301701847E+03  0.82465412674E+02  0.15353167799E+03  0.47000000000E+01 0. -1.
        -13    1    4    4    0    0 -0.20276237282E+01 -0.35556529652E+02  0.18699805506E+03  0.19035926732E+03  0.00000000000E+00 0.  1.
         14    1    4    4    0    0 -0.34061135052E+02 -0.66335497730E+01  0.21424979095E+02  0.40782283320E+02  0.00000000000E+00 0. -1.
         -5    1    5    5    0  502 -0.19634501119E+02 -0.11167773163E+02  0.11295352098E+03  0.11528582173E+03  0.47000000000E+01 0.  1.
         11    1    6    6    0    0  0.26545382099E+02  0.10573283344E+03  0.19761467560E+03  0.22568927620E+03  0.00000000000E+00 0. -1.
        -12    1    6    6    0    0  0.92237337009E+02  0.60642037619E+02  0.21175570265E+03  0.23880046204E+03  0.00000000000E+00 0.  1.
</event>
<event>
12    1  0.8633375E-002  0.1777683E+03  0.7818608E-02  0.1170433E+00
         21   -1    0    0  503  502  0.00000000000E+00  0.00000000000E+00  0.76747930494E+02  0.76747930494E+02  0.00000000000E+00 0.  1.
         21   -1    0    0  501  503 -0.00000000000E+00 -0.00000000000E+00 -0.93307562482E+03  0.93307562482E+03  0.00000000000E+00 0.  1.
          6    2    1    2  501    0 -0.15745247310E+02 -0.32811445706E+02 -0.80805969738E+03  0.82738264572E+03  0.17400305782E+03 0.  0.
         24    2    3    3    0    0  0.11226904729E+02  0.32467875043E+02 -0.23278887581E+03  0.24777286764E+03  0.77592054594E+02 0.  0.
         -6    2    1    2    0  502  0.15745247310E+02  0.32811445706E+02 -0.48267996949E+02  0.18244090959E+03  0.17213477912E+03 0.  0.
        -24    2    5    5    0    0  0.12848260106E+02  0.49479578187E+02 -0.93517096662E+02  0.13390442641E+03  0.81065662263E+02 0.  0.
          5    1    3    3  501    0 -0.26972152039E+02 -0.65279320749E+02 -0.57527082157E+03  0.57960977808E+03  0.47000000000E+01 0. -1.
        -11    1    4    4    0    0  0.61858879539E+01 -0.25286780685E+02 -0.89229596382E+02  0.92949488206E+02  0.00000000000E+00 0.  1.
         12    1    4    4    0    0  0.50410167751E+01  0.57754655728E+02 -0.14355927943E+03  0.15482337943E+03  0.00000000000E+00 0. -1.
         -5    1    5    5    0  502  0.28969872037E+01 -0.16668132481E+02  0.45249099713E+02  0.48536483187E+02  0.47000000000E+01 0.  1.
         11    1    6    6    0    0  0.35573504939E+02  0.40257519127E+02 -0.21568604223E+02  0.57890817821E+02  0.00000000000E+00 0. -1.
        -12    1    6    6    0    0 -0.22725244833E+02  0.92220590598E+01 -0.71948492440E+02  0.76013608587E+02  0.00000000000E+00 0.  1.
</event>
<event>
12    1  0.8633375E-002  0.1901757E+03  0.7818608E-02  0.1159265E+00
         21   -1    0    0  503  502  0.00000000000E+00  0.00000000000E+00  0.63999631415E+03  0.63999631415E+03  0.00000000000E+00 0.  1.
         21   -1    0    0  501  503 -0.00000000000E+00 -0.00000000000E+00 -0.76794203142E+02  0.76794203142E+02  0.00000000000E+00 0.  1.
          6    2    1    2  501    0  0.44706790364E+02  0.67449037018E+02  0.89565671006E+02  0.20640020271E+03  0.16742450406E+03 0.  0.
         24    2    3    3    0    0  0.58663879110E+02  0.95554877210E+02  0.27834955912E+02  0.13699191960E+03  0.73619399573E+02 0.  0.
         -6    2    1    2    0  502 -0.44706790364E+02 -0.67449037018E+02  0.47363644000E+03  0.51039031458E+03  0.17210091870E+03 0.  0.
        -24    2    5    5    0    0  0.15518746071E+02 -0.31387099773E+02  0.39651310749E+03  0.40599837536E+03  0.79912795395E+02 0.  0.
          5    1    3    3  501    0 -0.13957088746E+02 -0.28105840192E+02  0.61730715094E+02  0.69408283117E+02  0.47000000000E+01 0. -1.
        -11    1    4    4    0    0  0.53389444542E+02  0.50024516492E+02  0.47378635804E+02  0.87164328537E+02  0.00000000000E+00 0.  1.
         12    1    4    4    0    0  0.52744345680E+01  0.45530360718E+02 -0.19543679892E+02  0.49827591060E+02  0.00000000000E+00 0. -1.
         -5    1    5    5    0  502 -0.60225536436E+02 -0.36061937245E+02  0.77123332510E+02  0.10439193922E+03  0.47000000000E+01 0.  1.
         11    1    6    6    0    0 -0.68487067596E+01  0.22510040016E+02  0.18824209680E+03  0.18970686253E+03  0.00000000000E+00 0. -1.
        -12    1    6    6    0    0  0.22367452831E+02 -0.53897139788E+02  0.20827101070E+03  0.21629151282E+03  0.00000000000E+00 0.  1.
</event>
<event>
12    1  0.8633375E-002  0.2037642E+03  0.7818608E-02  0.1147535E+00
         21   -1    0    0  503  502  0.00000000000E+00  0.00000000000E+00  0.29677366864E+03  0.29677366864E+03  0.00000000000E+00 0. -1.
         21   -1    0    0  501  503 -0.00000000000E+00 -0.00000000000E+00 -0.22658743442E+03  0.22658743442E+03  0.00000000000E+00 0. -1.
          6    2    1    2  501    0 -0.60571716038E+02  0.85868202957E+02 -0.12982063003E+03  0.23783948802E+03  0.16932792155E+03 0.  0.
         24    2    3    3    0    0 -0.21929698852E+02  0.10883714056E+03 -0.53393990231E+02  0.14904816604E+03  0.83892805117E+02 0.  0.
         -6    2    1    2    0  502  0.60571716038E+02 -0.85868202957E+02  0.20000686426E+03  0.28552161505E+03  0.17457825136E+03 0.  0.
        -24    2    5    5    0    0  0.27574446404E+02 -0.56664081322E+02  0.21562896696E+03  0.23853395053E+03  0.80196171724E+02 0.  0.
          5    1    3    3  501    0 -0.38642017186E+02 -0.22968937604E+02 -0.76426639802E+02  0.88791321976E+02  0.47000000000E+01 0. -1.
        -11    1    4    4    0    0  0.31567697344E+02  0.53124486776E+02 -0.20645928901E+02  0.65153549335E+02  0.00000000000E+00 0.  1.
         12    1    4    4    0    0 -0.53497396196E+02  0.55712653785E+02 -0.32748061331E+02  0.83894616707E+02  0.00000000000E+00 0. -1.
         -5    1    5    5    0  502  0.32997269634E+02 -0.29204121635E+02 -0.15622102702E+02  0.46987664515E+02  0.47000000000E+01 0.  1.
         13    1    6    6    0    0  0.15425320705E+02  0.10644663321E+02  0.88296115182E+01  0.20717418170E+02  0.00000000000E+00 0. -1.
        -14    1    6    6    0    0  0.12149125700E+02 -0.67308744643E+02  0.20679935544E+03  0.21781653236E+03  0.00000000000E+00 0.  1.
</event>
<event>
12    1  0.8633375E-002  0.2349133E+03  0.7818608E-02  0.1123559E+00
         21   -1    0    0  501  502  0.00000000000E+00  0.00000000000E+00  0.66404053502E+02  0.66404053502E+02  0.00000000000E+00 0.  1.
         21   -1    0    0  502  503 -0.00000000000E+00 -0.00000000000E+00 -0.16488570936E+04  0.16488570936E+04  0.00000000000E+00 0. -1.
         -6    2    1    2    0  503  0.12674119177E+03 -0.93637439844E+02 -0.18635285876E+03  0.29985272889E+03  0.17422104127E+03 0.  0.
        -24    2    3    3    0    0  0.59954068745E+02 -0.89122124661E+02 -0.19055767045E+03  0.23261673916E+03  0.79126974596E+02 0.  0.
          6    2    1    2  501    0 -0.12674119177E+03  0.93637439844E+02 -0.13961001814E+04  0.14154084182E+04  0.17162160175E+03 0.  0.
         24    2    5    5    0    0 -0.35357405054E+02  0.10207232521E+03 -0.63240401021E+03  0.64620358492E+03  0.77300293461E+02 0.  0.
          5    1    5    5  501    0 -0.91383786720E+02 -0.84348853668E+01 -0.76369617116E+03  0.76920483333E+03  0.47000000000E+01 0. -1.
        -13    1    6    6    0    0 -0.12863713987E+02  0.17587215998E+02 -0.27852903128E+02  0.35363392325E+02  0.00000000000E+00 0.  1.
         14    1    6    6    0    0 -0.22493691067E+02  0.84485109213E+02 -0.60455110708E+03  0.61084019260E+03  0.00000000000E+00 0. -1.
         -5    1    3    3    0  503  0.66787123029E+02 -0.45153151823E+01  0.42048116838E+01  0.67235989730E+02  0.47000000000E+01 0.  1.
         13    1    4    4    0    0  0.75331213033E+02 -0.72887034491E+02 -0.17903060332E+03  0.20745907639E+03  0.00000000000E+00 0. -1.
        -14    1    4    4    0    0 -0.15377144289E+02 -0.16235090170E+02 -0.11527067129E+02  0.25157662767E+02  0.00000000000E+00 0.  1.
</event>
<event>
12    1  0.8633375E-002  0.2176820E+03  0.7818608E-02  0.1136118E+00
         21   -1    0    0  503  502  0.00000000000E+00  0.00000000000E+00  0.89521203616E+02  0.89521203616E+02  0.00000000000E+00 0. -1.
         21   -1    0    0  501  503 -0.00000000000E+00 -0.00000000000E+00 -0.81762873968E+03  0.81762873968E+03  0.00000000000E+00 0.  1.
          6    2    1    2  501    0  0.12653863817E+03  0.41423906724E+02 -0.63771662459E+03  0.67384563218E+03  0.17221345978E+03 0.  0.
         24    2    3    3    0    0  0.11332530116E+03  0.87994293521E+02 -0.54435714804E+03  0.56857704683E+03  0.79809360196E+02 0.  0.
         -6    2    1    2    0  502 -0.12653863817E+03 -0.41423906724E+02 -0.90390911474E+02  0.23330431112E+03  0.16891541584E+03 0.  0.
        -24    2    5    5    0    0 -0.83636810477E+02  0.24540615481E+02 -0.56876947659E+01  0.11759515016E+03  0.78733167048E+02 0.  0.
          5    1    3    3  501    0  0.13213337016E+02 -0.46570386797E+02 -0.93359476548E+02  0.10526858536E+03  0.47000000000E+01 0. -1.
        -11    1    4    4    0    0  0.49437875597E+02  0.39119337303E+02 -0.38437837783E+03  0.38951400929E+03  0.00000000000E+00 0.  1.
         12    1    4    4    0    0  0.63887425562E+02  0.48874956218E+02 -0.15997877022E+03  0.17906303753E+03  0.00000000000E+00 0. -1.
         -5    1    5    5    0  502 -0.42901827698E+02 -0.65964522204E+02 -0.84703216708E+02  0.11570916096E+03  0.47000000000E+01 0.  1.
         13    1    6    6    0    0 -0.34651854790E+02 -0.68512084672E+00  0.34881103112E+02  0.49172266424E+02  0.00000000000E+00 0. -1.
        -14    1    6    6    0    0 -0.48984955687E+02  0.25225736328E+02 -0.40568797878E+02  0.68422883731E+02  0.00000000000E+00 0.  1.
</event>
<event>
12    1  0.8633375E-002  0.2192568E+03  0.7818608E-02  0.1134505E+00
         21   -1    0    0  501  502  0.00000000000E+00  0.00000000000E+00  0.26112965995E+04  0.26112965995E+04  0.00000000000E+00 0. -1.
         21   -1    0    0  502  503 -0.00000000000E+00 -0.00000000000E+00 -0.11979136883E+03  0.11979136883E+03  0.00000000000E+00 0.  1.
         -6    2    1    2    0  503  0.12214440533E+03  0.57150858577E+02 -0.10516199851E+02  0.21950887025E+03  0.17288168576E+03 0.  0.
        -24    2    3    3    0    0 -0.81032995948E+01  0.35811443064E+02 -0.20935039304E+01  0.87172680572E+02  0.79035248850E+02 0.  0.
          6    2    1    2  501    0 -0.12214440533E+03 -0.57150858577E+02  0.25020214305E+04  0.25115790981E+04  0.17243216269E+03 0.  0.
         24    2    5    5    0    0 -0.49424347367E+02 -0.70019458697E+02  0.89729155408E+03  0.90514395341E+03  0.82510318473E+02 0.  0.
          5    1    5    5  501    0 -0.72720057959E+02  0.12868600119E+02  0.16047298764E+04  0.16064351446E+04  0.47000000000E+01 0. -1.
        -13    1    6    6    0    0 -0.55863946813E+02 -0.61066358458E+02  0.88403052646E+03  0.88789630723E+03  0.00000000000E+00 0.  1.
         14    1    6    6    0    0  0.64395994463E+01 -0.89531002391E+01  0.13261027626E+02  0.17247646176E+02  0.00000000000E+00 0. -1.
         -5    1    3    3    0  503  0.13024770492E+03  0.21339415513E+02 -0.84226959208E+01  0.13233618968E+03  0.47000000000E+01 0.  1.
         11    1    4    4    0    0  0.28412803315E+01 -0.25095357326E+02 -0.22160865263E-01  0.25255698849E+02  0.00000000000E+00 0. -1.
        -12    1    4    4    0    0 -0.10944579926E+02  0.60906800390E+02 -0.20713430651E+01  0.61916981723E+02  0.00000000000E+00 0.  1.
</event>
<event>
12    1  0.8633375E-002  0.2019831E+03  0.7818608E-02  0.1148426E+00
         21   -1    0    0  503  502  0.00000000000E+00  0.00000000000E+00  0.60788484366E+02  0.60788484366E+02  0.00000000000E+00 0.  1.
         21   -1    0    0  501  503 -0.00000000000E+00 -0.00000000000E+00 -0.77164479085E+03  0.77164479085E+03  0.00000000000E+00 0. -1.
          6    2    1    2  501    0 -0.18487916428E+02 -0.99831867756E+02 -0.50845767353E+03  0.54649205282E+03  0.17267354504E+03 0.  0.
         24    2    3    3    0    0 -0.72672140500E+02 -0.69319255086E+02 -0.41243565397E+03  0.43199634151E+03  0.80195207330E+02 0.  0.
         -6    2    1    2    0  502  0.18487916428E+02  0.99831867756E+02 -0.20239863296E+03  0.28594122239E+03  0.17461091365E+03 0.  0.
        -24    2    5    5    0    0  0.24254846072E+02  0.15248625962E+02 -0.17796125296E+03  0.19758479755E+03  0.80924202296E+02 0.  0.
          5    1    3    3  501    0  0.54184224072E+02 -0.30512612669E+02 -0.96022019554E+02  0.11449571132E+03  0.47000000000E+01 0. -1.
        -13    1    4    4    0    0 -0.65724367905E+02 -0.13571659076E+02 -0.16226798002E+03  0.17559834796E+03  0.00000000000E+00 0.  1.
         14    1    4    4    0    0 -0.69477725949E+01 -0.55747596010E+02 -0.25016767395E+03  0.25639799355E+03  0.00000000000E+00 0. -1.
         -5    1    5    5    0  502 -0.57669296440E+01  0.84583241793E+02 -0.24437380003E+02  0.88356424844E+02  0.47000000000E+01 0.  1.
         13    1    6    6    0    0  0.39298385241E+02  0.37420535276E+02 -0.14668719117E+03  0.15640265854E+03  0.00000000000E+00 0. -1.
        -14    1    6    6    0    0 -0.15043539169E+02 -0.22171909313E+02 -0.31274061782E+02  0.41182139013E+02  0.00000000000E+00 0.  1.
</event>
<event>
12    1  0.8633375E-002  0.2566380E+03  0.7818608E-02  0.1110412E+00
         21   -1    0    0  503  502  0.00000000000E+00  0.00000000000E+00  0.51492563425E+03  0.51492563425E+03  0.00000000000E+00 0.  1.
         21   -1    0    0  501  503 -0.00000000000E+00 -0.00000000000E+00 -0.14524673503E+03  0.14524673503E+03  0.00000000000E+00 0.  1.
          6    2    1    2  501    0 -0.17926196305E+03 -0.21531695081E+02  0.56085654950E+02  0.25495168360E+03  0.17104471635E+03 0.  0.
         24    2    3    3    0    0 -0.19530348182E+03  0.10187209311E+02  0.36509627737E+02  0.21410159104E+03  0.79115795682E+02 0.  0.
         -6    2    1    2    0  502  0.17926196305E+03  0.21531695081E+02  0.31359324427E+03  0.40522068569E+03  0.18238589849E+03 0.  0.
        -24    2    5    5    0    0  0.91969431548E+02 -0.58954075231E+02  0.18846407078E+03  0.23265955062E+03  0.81717814422E+02 0.  0.
          5    1    3    3  501    0  0.16041518771E+02 -0.31718904392E+02  0.19576027213E+02  0.40850092555E+02  0.47000000000E+01 0. -1.
        -11    1    4    4    0    0 -0.41331896311E+02 -0.30735141701E+02  0.55596941170E+01  0.51806223436E+02  0.00000000000E+00 0.  1.
         12    1    4    4    0    0 -0.15397158551E+03  0.40922351012E+02  0.30949933620E+02  0.16229536761E+03  0.00000000000E+00 0. -1.
         -5    1    5    5    0  502  0.87292531497E+02  0.80485770312E+02  0.12512917349E+03  0.17256113507E+03  0.47000000000E+01 0.  1.
         13    1    6    6    0    0 -0.77738972894E+01 -0.23995015851E+02  0.14467744106E+02  0.29077652661E+02  0.00000000000E+00 0. -1.
        -14    1    6    6    0    0  0.99743328838E+02 -0.34959059380E+02  0.17399632667E+03  0.20358189796E+03  0.00000000000E+00 0.  1.
</event>
<event>
12    1  0.8633375E-002  0.2194280E+03  0.7818608E-02  0.1134643E+00
         21   -1    0    0  501  502  0.00000000000E+00  0.00000000000E+00  0.26751884485E+03  0.26751884485E+03  0.00000000000E+00 0.  1.
         21   -1    0    0  502  503 -0.00000000000E+00 -0.00000000000E+00 -0.34071330090E+03  0.34071330090E+03  0.00000000000E+00 0.  1.
         -6    2    1    2    0  503  0.10315306315E+03 -0.88633709500E+02 -0.24633852148E+03  0.32871911116E+03  0.16993262778E+03 0.  0.
        -24    2    3    3    0    0  0.89814597716E+01 -0.87829885253E+02 -0.10376937952E+03  0.15778933829E+03  0.79590425228E+02 0.  0.
          6    2    1    2  501    0 -0.10315306315E+03  0.88633709500E+02  0.17314406543E+03  0.27951303459E+03  0.17219808423E+03 0.  0.
         24    2    5    5    0    0 -0.75587496503E+02 -0.11529006207E+02  0.11516512848E+03  0.16044970181E+03  0.81453743813E+02 0.  0.
          5    1    5    5  501    0 -0.27565566649E+02  0.10016271571E+03  0.57978936949E+02  0.11906333278E+03  0.47000000000E+01 0. -1.
        -11    1    6    6    0    0 -0.28605876123E+02  0.33929431594E+02  0.61668626936E+02  0.75977115141E+02  0.00000000000E+00 0.  1.
         12    1    6    6    0    0 -0.46981620380E+02 -0.45458437801E+02  0.53496501541E+02  0.84472586666E+02  0.00000000000E+00 0. -1.
         -5    1    3    3    0  503  0.94171603380E+02 -0.80382424646E+00 -0.14256914196E+03  0.17092977288E+03  0.47000000000E+01 0.  1.
         13    1    4    4    0    0 -0.96884415964E+01 -0.43480649982E+02 -0.10005942738E+03  0.10952772175E+03  0.00000000000E+00 0. -1.
        -14    1    4    4    0    0  0.18669901368E+02 -0.44349235271E+02 -0.37099521395E+01  0.48261616540E+02  0.00000000000E+00 0.  1.
</event>
<event>
12    1  0.8633375E-002  0.3160440E+03  0.7818608E-02  0.1077590E+00
         21   -1    0    0  501  502  0.00000000000E+00  0.00000000000E+00  0.10486706779E+03  0.10486706779E+03  0.00000000000E+00 0. -1.
         21   -1    0    0  502  503 -0.00000000000E+00 -0.00000000000E+00 -0.19743934392E+04  0.19743934392E+04  0.00000000000E+00 0. -1.
         -6    2    1    2    0  503  0.17067110080E+03 -0.20275262024E+03 -0.16830584721E+04  0.17123080753E+04  0.17051649372E+03 0.  0.
        -24    2    3    3    0    0  0.50341784579E+02 -0.10711332992E+03 -0.50362453179E+03  0.52289118972E+03  0.75960295831E+02 0.  0.
          6    2    1    2  501    0 -0.17067110080E+03  0.20275262024E+03 -0.18646789926E+03  0.36695243163E+03  0.17218176431E+03 0.  0.
         24    2    5    5    0    0 -0.48820854830E+02  0.39449103405E+02 -0.18675153800E+02  0.10295997628E+03  0.79449906983E+02 0.  0.
          5    1    5    5  501    0 -0.12185024597E+03  0.16330351683E+03 -0.16779274546E+03  0.26399245535E+03  0.47000000000E+01 0. -1.
        -13    1    6    6    0    0 -0.43770743406E+02  0.18197071639E+02 -0.47291759875E+02  0.66959106525E+02  0.00000000000E+00 0.  1.
         14    1    6    6    0    0 -0.50501114239E+01  0.21252031765E+02  0.28616606075E+02  0.36000869751E+02  0.00000000000E+00 0. -1.
         -5    1    3    3    0  503  0.12032931622E+03 -0.95639290315E+02 -0.11794339403E+04  0.11894168856E+04  0.47000000000E+01 0.  1.
         13    1    4    4    0    0  0.66254026181E+02 -0.84526106191E+02 -0.32876395595E+03  0.34586124001E+03  0.00000000000E+00 0. -1.
        -14    1    4    4    0    0 -0.15912241602E+02 -0.22587223731E+02 -0.17486057585E+03  0.17702994971E+03  0.00000000000E+00 0.  1.
</event>
<event>
12    1  0.8633375E-002  0.2073222E+03  0.7818608E-02  0.1144393E+00
         21   -1    0    0  503  502  0.00000000000E+00  0.00000000000E+00  0.47934938515E+02  0.47934938515E+02  0.00000000000E+00 0.  1.
         21   -1    0    0  501  503 -0.00000000000E+00 -0.00000000000E+00 -0.88209153857E+03  0.88209153857E+03  0.00000000000E+00 0.  1.
          6    2    1    2  501    0 -0.24803526315E+02 -0.10533592857E+03 -0.42260584363E+03  0.47072091686E+03  0.17683780630E+03 0.  0.
         24    2    3    3    0    0  0.47796183267E+02 -0.62856599052E+02 -0.31479024546E+03  0.33389436799E+03  0.78467338174E+02 0.  0.
         -6    2    1    2    0  502  0.24803526315E+02  0.10533592857E+03 -0.41155075642E+03  0.45930556022E+03  0.17284877717E+03 0.  0.
        -24    2    5    5    0    0 -0.19452787869E+02  0.86014583368E+02 -0.38721669388E+03  0.40502690580E+03  0.79580819883E+02 0.  0.
          5    1    3    3  501    0 -0.72599709582E+02 -0.42479329517E+02 -0.10781559818E+03  0.13682654888E+03  0.47000000000E+01 0. -1.
        -13    1    4    4    0    0 -0.74102291174E+01 -0.13807370155E+02 -0.17585804479E+03  0.17655482685E+03  0.00000000000E+00 0.  1.
         14    1    4    4    0    0  0.55206412384E+02 -0.49049228897E+02 -0.13893220066E+03  0.15733954114E+03  0.00000000000E+00 0. -1.
         -5    1    5    5    0  502  0.44256314184E+02  0.19321345201E+02 -0.24334062536E+02  0.54278654414E+02  0.47000000000E+01 0.  1.
         13    1    6    6    0    0 -0.21024029352E+02 -0.78727356691E+01 -0.46946588460E+02  0.52038177765E+02  0.00000000000E+00 0. -1.
        -14    1    6    6    0    0  0.15712414831E+01  0.93887319037E+02 -0.34027010542E+03  0.35298872804E+03  0.00000000000E+00 0.  1.
</event>
<event>
12    1  0.8633375E-002  0.2443827E+03  0.7818608E-02  0.1116959E+00
         21   -1    0    0  501  502  0.00000000000E+00  0.00000000000E+00  0.62633441880E+03  0.62633441880E+03  0.00000000000E+00 0.  1.
         21   -1    0    0  502  503 -0.00000000000E+00 -0.00000000000E+00 -0.95428931285E+02  0.95428931285E+02  0.00000000000E+00 0. -1.
         -6    2    1    2    0  503 -0.11424124615E+03  0.13093234272E+03  0.28210762661E+03  0.37323935495E+03  0.17183876863E+03 0.  0.
        -24    2    3    3    0    0 -0.19865648451E+02  0.11265863756E+03  0.12187102089E+03  0.18632081239E+03  0.82318204504E+02 0.  0.
          6    2    1    2  501    0  0.11424124615E+03 -0.13093234272E+03  0.24879786091E+03  0.34852399513E+03  0.17138920298E+03 0.  0.
         24    2    5    5    0    0  0.18184992109E+02 -0.34077975864E+02  0.16874288101E+03  0.19028853094E+03  0.79016218209E+02 0.  0.
          5    1    5    5  501    0  0.96056254042E+02 -0.96854366858E+02  0.80054979894E+02  0.15823546418E+03  0.47000000000E+01 0. -1.
        -13    1    6    6    0    0  0.39208303290E+02  0.49238914839E+01  0.10875698607E+03  0.11571351595E+03  0.00000000000E+00 0.  1.
         14    1    6    6    0    0 -0.21023311181E+02 -0.39001867348E+02  0.59985894939E+02  0.74575014993E+02  0.00000000000E+00 0. -1.
         -5    1    3    3    0  503 -0.94375597700E+02  0.18273705166E+02  0.16023660572E+03  0.18691854257E+03  0.47000000000E+01 0.  1.
         13    1    4    4    0    0 -0.11594840333E+02  0.82029098404E+02  0.28344019035E+02  0.87559104167E+02  0.00000000000E+00 0. -1.
        -14    1    4    4    0    0 -0.82708081183E+01  0.30629539151E+02  0.93527001850E+02  0.98761708220E+02  0.00000000000E+00 0.  1.
</event>
<event>
12    1  0.8633375E-002  0.2009091E+03  0.7818608E-02  0.1149144E+00
         21   -1    0    0  501  502  0.00000000000E+00  0.00000000000E+00  0.71785386376E+03  0.71785386376E+03  0.00000000000E+00 0. -1.
         21   -1    0    0  502  503 -0.00000000000E+00 -0.00000000000E+00 -0.42266649791E+03  0.42266649791E+03  0.00000000000E+00 0. -1.
         -6    2    1    2    0  503 -0.99327131176E+02 -0.33776820345E+02 -0.38350511424E+03  0.43294414779E+03  0.17134091712E+03 0.  0.
        -24    2    3    3    0    0 -0.39216407524E+02 -0.83584263092E+02 -0.23922692069E+03  0.26883330846E+03  0.80731483961E+02 0.  0.
          6    2    1    2  501    0  0.99327131176E+02  0.33776820345E+02  0.67869248008E+03  0.70757621388E+03  0.17039326088E+03 0.  0.
         24    2    5    5    0    0 -0.33189581527E+01  0.75358910722E+01  0.42188584317E+03  0.42973355195E+03  0.81335452748E+02 0.  0.
          5    1    5    5  501    0  0.10264608933E+03  0.26240929273E+02  0.25680663692E+03  0.27784266193E+03  0.47000000000E+01 0. -1.
        -11    1    6    6    0    0  0.21413792354E+02 -0.20197655911E+02  0.70644033664E+02  0.76531531408E+02  0.00000000000E+00 0.  1.
         12    1    6    6    0    0 -0.24732750507E+02  0.27733546983E+02  0.35124180950E+03  0.35320202055E+03  0.00000000000E+00 0. -1.
         -5    1    3    3    0  503 -0.60110723652E+02  0.49807442746E+02 -0.14427819355E+03  0.16411083933E+03  0.47000000000E+01 0.  1.
         13    1    4    4    0    0 -0.31406082553E+02 -0.70894359522E+02 -0.24160613844E+03  0.25374372577E+03  0.00000000000E+00 0. -1.
        -14    1    4    4    0    0 -0.78103249703E+01 -0.12689903569E+02  0.23792177578E+01  0.15089582694E+02  0.00000000000E+00 0.  1.
</event>
<event>
12    1  0.8633375E-002  0.1835923E+03  0.7818608E-02  0.1164646E+00
         21   -1    0    0  501  502  0.00000000000E+00  0.00000000000E+00  0.56174223077E+02  0.56174223077E+02  0.00000000000E+00 0.  1.
         21   -1    0    0  502  503 -0.00000000000E+00 -0.00000000000E+00 -0.11062133360E+04  0.11062133360E+04  0.00000000000E+00 0.  1.
         -6    2    1    2    0  503  0.22774256660E+02 -0.53113655463E+02 -0.92053404177E+03  0.93866344872E+03  0.17425963599E+03 0.  0.
        -24    2    3    3    0    0  0.39060547283E+02 -0.14766509439E+02 -0.22513274937E+03  0.24199940174E+03  0.78327386338E+02 0.  0.
          6    2    1    2  501    0 -0.22774256660E+02  0.53113655463E+02 -0.12950507111E+03  0.22372411032E+03  0.17303521876E+03 0.  0.
         24    2    5    5    0    0 -0.14701130549E+02  0.34211891160E+02  0.50528724009E+01  0.87524322431E+02  0.79046813733E+02 0.  0.
          5    1    5    5  501    0 -0.80731261106E+01  0.18901764303E+02 -0.13455794352E+03  0.13619978789E+03  0.47000000000E+01 0. -1.
        -11    1    6    6    0    0 -0.28900889024E+01  0.39750977624E+02 -0.30154460455E+02  0.49977838301E+02  0.00000000000E+00 0.  1.
         12    1    6    6    0    0 -0.11811041647E+02 -0.55390864644E+01  0.35207332856E+02  0.37546484129E+02  0.00000000000E+00 0. -1.
         -5    1    3    3    0  503 -0.16286290624E+02 -0.38347146024E+02 -0.69540129241E+03  0.69666404698E+03  0.47000000000E+01 0.  1.
         13    1    4    4    0    0  0.14852394035E+02  0.17176104481E+02 -0.18085935307E+03  0.18227923021E+03  0.00000000000E+00 0. -1.
        -14    1    4    4    0    0  0.24208153249E+02 -0.31942613920E+02 -0.44273396293E+02  0.59720171526E+02  0.00000000000E+00 0.  1.
</event>
<event>
12    1  0.8633375E-002  0.1831586E+03  0.7818608E-02  0.1166781E+00
         21   -1    0    0  503  502  0.00000000000E+00  0.00000000000E+00  0.91090694290E+03  0.91090694290E+03  0.00000000000E+00 0.  1.
         21   -1    0    0  501  503 -0.00000000000E+00 -0.00000000000E+00 -0.23004130533E+03  0.23004130533E+03  0.00000000000E+00 0.  1.
          6    2    1    2  501    0 -0.28295234294E+02  0.15687517585E+02 -0.18577911719E+03  0.25516033924E+03  0.17189008070E+03 0.  0.
         24    2    3    3    0    0 -0.77784579942E+02  0.39310110495E+02 -0.11753100609E+03  0.16748413439E+03  0.81496455226E+02 0.  0.
         -6    2    1    2    0  502  0.28295234294E+02 -0.15687517585E+02  0.86664475476E+03  0.88578790899E+03  0.18027859074E+03 0.  0.
        -24    2    5    5    0    0  0.78601485085E+02  0.97281744423E+01  0.38034720842E+03  0.39621251149E+03  0.77765830993E+02 0.  0.
          5    1    3    3  501    0  0.49489345648E+02 -0.23622592910E+02 -0.68248111096E+02  0.87676204848E+02  0.47000000000E+01 0. -1.
        -11    1    4    4    0    0 -0.62874997515E-01 -0.17462698297E+02 -0.27315524190E+01  0.17675156681E+02  0.00000000000E+00 0.  1.
         12    1    4    4    0    0 -0.77721704944E+02  0.56772808792E+02 -0.11479945367E+03  0.14980897771E+03  0.00000000000E+00 0. -1.
         -5    1    5    5    0  502 -0.50306250791E+02 -0.25415692027E+02  0.48629754634E+03  0.48957539750E+03  0.47000000000E+01 0.  1.
         13    1    6    6    0    0 -0.41785806290E-01 -0.20374009707E+02  0.14142856085E+03  0.14288855742E+03  0.00000000000E+00 0. -1.
        -14    1    6    6    0    0  0.78643270892E+02  0.30102184149E+02  0.23891864757E+03  0.25332395407E+03  0.00000000000E+00 0.  1.
</event>
<event>
12    1  0.8633375E-002  0.2093206E+03  0.7818608E-02  0.1142160E+00
         21   -1    0    0  503  502  0.00000000000E+00  0.00000000000E+00  0.99264675122E+02  0.99264675122E+02  0.00000000000E+00 0.  1.
         21   -1    0    0  501  503 -0.00000000000E+00 -0.00000000000E+00 -0.57543905346E+03  0.57543905346E+03  0.00000000000E+00 0.  1.
          6    2    1    2  501    0  0.44675523206E+02  0.10987954842E+03 -0.74797216026E+02  0.22202422914E+03  0.17213575243E+03 0.  0.
         24    2    3    3    0    0  0.23560897658E+01  0.35798458550E+02 -0.99847356359E+02  0.13298186926E+03  0.80172328056E+02 0.  0.
         -6    2    1    2    0  502 -0.44675523206E+02 -0.10987954842E+03 -0.40137716231E+03  0.45267949943E+03  0.17246937482E+03 0.  0.
        -24    2    5    5    0    0 -0.74567584955E+01  0.10128227895E+02 -0.11851417238E+03  0.14313036942E+03  0.79262281997E+02 0.  0.
          5    1    3    3  501    0  0.42319433440E+02  0.74081089872E+02  0.25050140332E+02  0.89042359886E+02  0.47000000000E+01 0. -1.
        -13    1    4    4    0    0 -0.15066099417E+02  0.57304978232E+02 -0.58811691689E+02  0.83484507312E+02  0.00000000000E+00 0.  1.
         14    1    4    4    0    0  0.17422189183E+02 -0.21506519682E+02 -0.41035664669E+02  0.49497361946E+02  0.00000000000E+00 0. -1.
         -5    1    5    5    0  502 -0.37218764711E+02 -0.12000777632E+03 -0.28286298993E+03  0.30954913002E+03  0.47000000000E+01 0.  1.
         11    1    6    6    0    0 -0.13675194394E+02 -0.91205181418E+01 -0.12156678863E+03  0.12267305691E+03  0.00000000000E+00 0. -1.
        -12    1    6    6    0    0  0.62184358986E+01  0.19248746037E+02  0.30526162554E+01  0.20457312507E+02  0.00000000000E+00 0.  1.
</event>
<event>
12    1  0.8633375E-002  0.1850277E+03  0.7818608E-02  0.1166396E+00
         21   -1    0    0  501  502  0.00000000000E+00  0.00000000000E+00  0.18838062444E+03  0.18838062444E+03  0.00000000000E+00 0.  1.
         21   -1    0    0  502  503 -0.00000000000E+00 -0.00000000000E+00 -0.17785379636E+03  0.17785379636E+03  0.00000000000E+00 0.  1.
         -6    2    1    2    0  503  0.13112808018E+02  0.73090220744E+02 -0.37167888081E+02  0.17515846654E+03  0.15422357276E+03 0.  0.
        -24    2    3    3    0    0 -0.35059207614E+02  0.10016396391E+02 -0.28226963986E+02  0.95152963402E+02  0.83233699384E+02 0.  0.
          6    2    1    2  501    0 -0.13112808018E+02 -0.73090220744E+02  0.47694716156E+02  0.19107595426E+03  0.16947303102E+03 0.  0.
         24    2    5    5    0    0 -0.61990246866E+02 -0.17445320565E+02  0.55034816376E+00  0.10315530607E+03  0.80582779618E+02 0.  0.
          5    1    5    5  501    0  0.48877438848E+02 -0.55644900179E+02  0.47144367992E+02  0.87920648187E+02  0.47000000000E+01 0. -1.
        -11    1    6    6    0    0 -0.72738068994E+02 -0.19452348199E+02 -0.21704155823E+02  0.78360008368E+02  0.00000000000E+00 0.  1.
         12    1    6    6    0    0  0.10747822128E+02  0.20070276334E+01  0.22254503986E+02  0.24795297701E+02  0.00000000000E+00 0. -1.
         -5    1    3    3    0  503  0.48172015632E+02  0.63073824353E+02 -0.89409240953E+01  0.80005503137E+02  0.47000000000E+01 0.  1.
         13    1    4    4    0    0  0.70317531686E+01 -0.24038234311E+02 -0.32282939273E+02  0.40859153558E+02  0.00000000000E+00 0. -1.
        -14    1    4    4    0    0 -0.42090960782E+02  0.34054630702E+02  0.40559752876E+01  0.54293809844E+02  0.00000000000E+00 0.  1.
</event>
<event>
12    1  0.8633375E-002  0.2172738E+03  0.7818608E-02  0.1136028E+00
         21   -1    0    0  503  502  0.00000000000E+00  0.00000000000E+00  0.43628055525E+03  0.43628055525E+03  0.00000000000E+00 0. -1.
         21   -1    0    0  501  503 -0.00000000000E+00 -0.00000000000E+00 -0.12477427166E+03  0.12477427166E+03  0.00000000000E+00 0. -1.
          6    2    1    2  501    0 -0.28450172189E+02  0.12987406479E+03  0.25859644717E+03  0.33743160503E+03  0.17120537544E+03 0.  0.
         24    2    3    3    0    0 -0.61892616516E+02  0.59289335052E+02  0.74927461416E+02  0.13778945647E+03  0.77626597303E+02 0.  0.
         -6    2    1    2    0  502  0.28450172189E+02 -0.12987406479E+03  0.52909836409E+02  0.22362322188E+03  0.17184647093E+03 0.  0.
        -24    2    5    5    0    0 -0.99824058695E+01 -0.15642772598E+02 -0.15343246343E+02  0.85035976879E+02  0.81555854443E+02 0.  0.
          5    1    3    3  501    0  0.33442444327E+02  0.70584729735E+02  0.18366898576E+03  0.19964214857E+03  0.47000000000E+01 0. -1.
        -11    1    4    4    0    0 -0.17615756790E+02 -0.18544740245E+02  0.11434959972E+02  0.28017505021E+02  0.00000000000E+00 0.  1.
         12    1    4    4    0    0 -0.44276859725E+02  0.77834075296E+02  0.63492501444E+02  0.10977195144E+03  0.00000000000E+00 0. -1.
         -5    1    5    5    0  502  0.38432578058E+02 -0.11423129219E+03  0.68253082752E+02  0.13858724500E+03  0.47000000000E+01 0.  1.
         11    1    6    6    0    0 -0.71865417318E+01 -0.40581453438E+02 -0.34273323759E+02  0.53601879321E+02  0.00000000000E+00 0. -1.
        -12    1    6    6    0    0 -0.27958641377E+01  0.24938680840E+02  0.18930077416E+02  0.31434097558E+02  0.00000000000E+00 0.  1.
</event>
<event>
12    1  0.8633375E-002  0.1964522E+03  0.7818608E-02  0.1153854E+00
         21   -1    0    0  503  502  0.00000000000E+00  0.00000000000E+00  0.20804824444E+03  0.20804824444E+03  0.00000000000E+00 0. -1.
         21   -1    0    0  501  503 -0.00000000000E+00 -0.00000000000E+00 -0.41508355788E+03  0.41508355788E+03  0.00000000000E+00 0. -1.
          6    2    1    2  501    0  0.81155337023E+02 -0.31007931238E+02 -0.33813759930E+03  0.39106327747E+03  0.17619809988E+03 0.  0.
         24    2    3    3    0    0  0.51101232062E+02  0.48115906337E+02 -0.12701366991E+03  0.16355671832E+03  0.75444359644E+02 0.  0.
         -6    2    1    2    0  502 -0.81155337023E+02  0.31007931238E+02  0.13110228586E+03  0.23206852485E+03  0.17064674137E+03 0.  0.
        -24    2    5    5    0    0  0.11386693424E+02 -0.19451987677E+02  0.35558601242E+02  0.89727678685E+02  0.79237652592E+02 0.  0.
          5    1    3    3  501    0  0.30054104961E+02 -0.79123837575E+02 -0.21112392939E+03  0.22750655916E+03  0.47000000000E+01 0. -1.
        -13    1    4    4    0    0  0.35913776276E+02 -0.48738113193E+01 -0.16013917489E+02  0.39623211840E+02  0.00000000000E+00 0.  1.
         14    1    4    4    0    0  0.15187455786E+02  0.52989717656E+02 -0.11099975242E+03  0.12393350648E+03  0.00000000000E+00 0. -1.
         -5    1    5    5    0  502 -0.92542030447E+02  0.50459918915E+02  0.95543684614E+02  0.14234084616E+03  0.47000000000E+01 0.  1.
         11    1    6    6    0    0 -0.14112696305E+02  0.15830159383E+02  0.40699038977E+02  0.45893070465E+02  0.00000000000E+00 0. -1.
        -12    1    6    6    0    0  0.25499389729E+02 -0.35282147060E+02 -0.51404377347E+01  0.43834608220E+02  0.00000000000E+00 0.  1.
</event>
<event>
12    1  0.8633375E-002  0.2303594E+03  0.7818608E-02  0.1126429E+00
         21   -1    0    0  503  502  0.00000000000E+00  0.00000000000E+00  0.15556506437E+04  0.15556506437E+04  0.00000000000E+00 0.  1.
         21   -1    0    0  501  503 -0.00000000000E+00 -0.00000000000E+00 -0.41042777474E+02  0.41042777474E+02  0.00000000000E+00 0. -1.
          6    2    1    2  501    0 -0.71839415644E+02 -0.13470703323E+03  0.10865583603E+04  0.11107090143E+04  0.17250668911E+03 0.  0.
         24    2    3    3    0    0 -0.76488281893E+02 -0.10424806248E+03  0.10569406500E+04  0.10677129725E+04  0.78545133997E+02 0.  0.
         -6    2    1    2    0  502  0.71839415644E+02  0.13470703323E+03  0.42804950590E+03  0.48598440679E+03  0.17218471972E+03 0.  0.
        -24    2    5    5    0    0  0.30352701326E+02  0.21084467632E+02  0.28723893665E+03  0.30029396200E+03  0.79400350305E+02 0.  0.
          5    1    3    3  501    0  0.46488662493E+01 -0.30458970749E+02  0.29617710251E+02  0.42996041876E+02  0.47000000000E+01 0. -1.
        -13    1    4    4    0    0 -0.71945402232E+02 -0.10240393409E+03  0.72406511234E+03  0.73480132929E+03  0.00000000000E+00 0.  1.
         14    1    4    4    0    0 -0.45428796610E+01 -0.18441283926E+01  0.33287553770E+03  0.33291164318E+03  0.00000000000E+00 0. -1.
         -5    1    5    5    0  502  0.41486714318E+02  0.11362256559E+03  0.14081056925E+03  0.18569044480E+03  0.47000000000E+01 0.  1.
         13    1    6    6    0    0  0.20853008615E+02  0.43906409435E+02  0.97426369290E+02  0.10887845605E+03  0.00000000000E+00 0. -1.
        -14    1    6    6    0    0  0.94996927102E+01 -0.22821941803E+02  0.18981256736E+03  0.19141550595E+03  0.00000000000E+00 0.  1.
</event>
<event>
12    1  0.8633375E-002  0.1954806E+03  0.7818608E-02  0.1154129E+00
         21   -1    0    0  503  502  0.00000000000E+00  0.00000000000E+00  0.41671826018E+02  0.41671826018E+02  0.00000000000E+00 0.  1.
         21   -1    0    0  501  503 -0.00000000000E+00 -0.00000000000E+00 -0.11859630604E+04  0.11859630604E+04  0.00000000000E+00 0. -1.
          6    2    1    2  501    0 -0.63197970651E+02  0.68142200077E+02 -0.87311317850E+03  0.89472860760E+03  0.17197475353E+03 0.  0.
         24    2    3    3    0    0 -0.67940766817E+02  0.85279541583E+02 -0.42779938453E+03  0.44903516173E+03  0.82047029532E+02 0.  0.
         -6    2    1    2    0  502  0.63197970651E+02 -0.68142200077E+02 -0.27117805586E+03  0.33290627880E+03  0.16926815873E+03 0.  0.
        -24    2    5    5    0    0 -0.14423365530E+02 -0.22877483630E+02 -0.20535295157E+03  0.22142085043E+03  0.78268419896E+02 0.  0.
          5    1    3    3  501    0  0.47427961662E+01 -0.17137341506E+02 -0.44531379397E+03  0.44569344587E+03  0.47000000000E+01 0. -1.
        -11    1    4    4    0    0 -0.35477458392E+02  0.36047755895E+02 -0.69726371698E+02  0.86138595700E+02  0.00000000000E+00 0.  1.
         12    1    4    4    0    0 -0.32463308425E+02  0.49231785688E+02 -0.35807301283E+03  0.36289656603E+03  0.00000000000E+00 0. -1.
         -5    1    5    5    0  502  0.77621336180E+02 -0.45264716447E+02 -0.65825104282E+02  0.11148542837E+03  0.47000000000E+01 0.  1.
         13    1    6    6    0    0 -0.30950221767E+01  0.21242879932E+02 -0.16290764534E+02  0.26948619986E+02  0.00000000000E+00 0. -1.
        -14    1    6    6    0    0 -0.11328343353E+02 -0.44120363562E+02 -0.18906218704E+03  0.19447223044E+03  0.00000000000E+00 0.  1.
</event>
<event>
12    1  0.8633375E-002  0.2017276E+03  0.7818608E-02  0.1148487E+00
         21   -1    0    0  501  502  0.00000000000E+00  0.00000000000E+00  0.15045020079E+03  0.15045020079E+03  0.00000000000E+00 0.  1.
         21   -1    0    0  502  503 -0.00000000000E+00 -0.00000000000E+00 -0.35517663590E+03  0.35517663590E+03  0.00000000000E+00 0. -1.
         -6    2    1    2    0  503  0.99219055892E+02  0.37055249367E+02 -0.22691500126E+03  0.30361889002E+03  0.17168721567E+03 0.  0.
        -24    2    3    3    0    0  0.61926710585E+02 -0.28849258357E+02 -0.58799929002E+02  0.11917678345E+03  0.77964587287E+02 0.  0.
          6    2    1    2  501    0 -0.99219055892E+02 -0.37055249367E+02  0.22188566152E+02  0.20200794666E+03  0.17057949903E+03 0.  0.
         24    2    5    5    0    0 -0.27203564266E+01 -0.58271237516E+02  0.23463551364E+02  0.10308457865E+03  0.81688154903E+02 0.  0.
          5    1    5    5  501    0 -0.96498699466E+02  0.21215988149E+02 -0.12749852125E+01  0.98923368013E+02  0.47000000000E+01 0. -1.
        -13    1    6    6    0    0 -0.27880129815E+02 -0.47753448154E+02 -0.13720162792E+02  0.56973119242E+02  0.00000000000E+00 0.  1.
         14    1    6    6    0    0  0.25159773388E+02 -0.10517789362E+02  0.37183714156E+02  0.46111459405E+02  0.00000000000E+00 0. -1.
         -5    1    3    3    0  503  0.37292345307E+02  0.65904507724E+02 -0.16811507226E+03  0.18444210658E+03  0.47000000000E+01 0.  1.
         13    1    4    4    0    0 -0.19025707777E+01 -0.29464532222E+01 -0.49549555794E+02  0.49673532606E+02  0.00000000000E+00 0. -1.
        -14    1    4    4    0    0  0.63829281363E+02 -0.25902805135E+02 -0.92503732073E+01  0.69503250842E+02  0.00000000000E+00 0.  1.
</event>
<event>
12    1  0.8633375E-002  0.2213453E+03  0.7818608E-02  0.1132907E+00
         21   -1    0    0  501  502  0.00000000000E+00  0.00000000000E+00  0.15547799156E+03  0.15547799156E+03  0.00000000000E+00 0.  1.
         21   -1    0    0  502  503 -0.00000000000E+00 -0.00000000000E+00 -0.31894680464E+03  0.31894680464E+03  0.00000000000E+00 0. -1.
         -6    2    1    2    0  503 -0.41537666235E+02 -0.13288665303E+03 -0.10834404776E+03  0.24643901663E+03  0.17207415833E+03 0.  0.
        -24    2    3    3    0    0 -0.21603679162E+02 -0.24209965026E+02 -0.10823774621E+03  0.13584928991E+03  0.75410732031E+02 0.  0.
          6    2    1    2  501    0  0.41537666235E+02  0.13288665303E+03 -0.55124765325E+02  0.22798577957E+03  0.17191432652E+03 0.  0.
         24    2    5    5    0    0  0.63763191751E+02  0.15729691676E+03 -0.42328904737E+02  0.19226941066E+03  0.79798029153E+02 0.  0.
          5    1    5    5  501    0 -0.22225525516E+02 -0.24410263728E+02 -0.12795860588E+02  0.35716368907E+02  0.47000000000E+01 0. -1.
        -11    1    6    6    0    0 -0.95190912212E+01  0.48086179736E+02  0.11186196784E+02  0.50279466761E+02  0.00000000000E+00 0.  1.
         12    1    6    6    0    0  0.73282282972E+02  0.10921073702E+03 -0.53515101521E+02  0.14198994390E+03  0.00000000000E+00 0. -1.
         -5    1    3    3    0  503 -0.19933987072E+02 -0.10867668800E+03 -0.10630154786E+00  0.11058972672E+03  0.47000000000E+01 0.  1.
         11    1    4    4    0    0 -0.43267840332E+02 -0.12082478106E+02 -0.30642423079E+02  0.54378767698E+02  0.00000000000E+00 0. -1.
        -12    1    4    4    0    0  0.21664161170E+02 -0.12127486919E+02 -0.77595323133E+02  0.81470522217E+02  0.00000000000E+00 0.  1.
</event>
<event>
12    1  0.8633375E-002  0.2330268E+03  0.7818608E-02  0.1124531E+00
         21   -1    0    0  503  502  0.00000000000E+00  0.00000000000E+00  0.31718099963E+03  0.31718099963E+03  0.00000000000E+00 0. -1.
         21   -1    0    0  501  503 -0.00000000000E+00 -0.00000000000E+00 -0.30145921617E+03  0.30145921617E+03  0.00000000000E+00 0.  1.
          6    2    1    2  501    0 -0.13662091511E+03  0.77395641985E+02 -0.19547806800E+03  0.30415974985E+03  0.17218048239E+03 0.  0.
         24    2    3    3    0    0 -0.34043724704E+02  0.23863362595E+02 -0.17756546040E+02  0.92039938668E+02  0.80172439882E+02 0.  0.
         -6    2    1    2    0  502  0.13662091511E+03 -0.77395641985E+02  0.21119985146E+03  0.31448046595E+03  0.17215465827E+03 0.  0.
        -24    2    5    5    0    0  0.15106350153E+03 -0.18496854998E+02  0.14509874958E+03  0.22465229063E+03  0.79073949040E+02 0.  0.
          5    1    3    3  501    0 -0.10257719040E+03  0.53532279390E+02 -0.17772152196E+03  0.21211981118E+03  0.47000000000E+01 0. -1.
        -13    1    4    4    0    0 -0.20409614073E+02  0.50842426738E+02 -0.26093965212E+02  0.60682779466E+02  0.00000000000E+00 0.  1.
         14    1    4    4    0    0 -0.13634110632E+02 -0.26979064144E+02  0.83374191722E+01  0.31357159202E+02  0.00000000000E+00 0. -1.
         -5    1    5    5    0  502 -0.14442586425E+02 -0.58898786987E+02  0.66101101873E+02  0.89828175313E+02  0.47000000000E+01 0.  1.
         13    1    6    6    0    0  0.20954661686E+01 -0.27872074832E+01  0.43531972638E+02  0.43671411081E+02  0.00000000000E+00 0. -1.
        -14    1    6    6    0    0  0.14896803536E+03 -0.15709647515E+02  0.10156677694E+03  0.18098087955E+03  0.00000000000E+00 0.  1.
</event>
<event>
12    1  0.8633375E-002  0.1763058E+03  0.7818608E-02  0.1171455E+00
         21   -1    0    0  501  502  0.00000000000E+00  0.00000000000E+00  0.37964857784E+03  0.37964857784E+03  0.00000000000E+00 0.  1.
         21   -1    0    0  502  503 -0.00000000000E+00 -0.00000000000E+00 -0.88206905200E+02  0.88206905200E+02  0.00000000000E+00 0.  1.
         -6    2    1    2    0  503 -0.70728006824E+01  0.37293108587E+02  0.82830177664E+02  0.19479371156E+03  0.17217128470E+03 0.  0.
        -24    2    3    3    0    0 -0.13312709950E+02  0.57121610428E+02 -0.94317360146E+01  0.10010233567E+03  0.80569307670E+02 0.  0.
          6    2    1    2  501    0  0.70728006824E+01 -0.37293108587E+02  0.20861149498E+03  0.27306177148E+03  0.17205573152E+03 0.  0.
         24    2    5    5    0    0  0.71547322277E+02 -0.21550937438E+02  0.13149338724E+03  0.17120858091E+03  0.80239672610E+02 0.  0.
          5    1    5    5  501    0 -0.64474521594E+02 -0.15742171149E+02  0.77118107737E+02  0.10185319056E+03  0.47000000000E+01 0. -1.
        -11    1    6    6    0    0  0.16071204897E+01 -0.56644038943E+01 -0.10551748590E+02  0.12083364848E+02  0.00000000000E+00 0.  1.
         12    1    6    6    0    0  0.69940201787E+02 -0.15886533544E+02  0.14204513583E+03  0.15912521607E+03  0.00000000000E+00 0. -1.
         -5    1    3    3    0  503  0.62399092673E+01 -0.19828501841E+02  0.92261913678E+02  0.94691375893E+02  0.47000000000E+01 0.  1.
         13    1    4    4    0    0  0.25467486156E+02  0.84073248907E+01 -0.24184285363E+02  0.36113094875E+02  0.00000000000E+00 0. -1.
        -14    1    4    4    0    0 -0.38780196106E+02  0.48714285537E+02  0.14752549348E+02  0.63989240796E+02  0.00000000000E+00 0.  1.
</event>
<event>
12    1  0.8633375E-002  0.2166638E+03  0.7818608E-02  0.1136471E+00
         21   -1    0    0  503  502  0.00000000000E+00  0.00000000000E+00  0.78876141628E+03  0.78876141628E+03  0.00000000000E+00 0. -1.
         21   -1    0    0  501  503 -0.00000000000E+00 -0.00000000000E+00 -0.11745027794E+03  0.11745027794E+03  0.00000000000E+00 0.  1.
          6    2    1    2  501    0  0.10724910208E+03  0.76823924118E+02  0.16968294122E+02  0.21693107965E+03  0.17136768977E+03 0.  0.
         24    2    3    3    0    0  0.51753268955E+01  0.15387286617E+02 -0.32450647827E+02  0.87865833237E+02  0.80023793387E+02 0.  0.
         -6    2    1    2    0  502 -0.10724910208E+03 -0.76823924118E+02  0.65434284423E+03  0.68928061457E+03  0.17186891114E+03 0.  0.
        -24    2    5    5    0    0 -0.13771379092E+03 -0.84483270069E+02  0.49140763720E+03  0.52327840213E+03  0.78970305201E+02 0.  0.
          5    1    3    3  501    0  0.10207377519E+03  0.61436637501E+02  0.49418941949E+02  0.12906524641E+03  0.47000000000E+01 0. -1.
        -13    1    4    4    0    0  0.26661897546E+02  0.11795638068E+02  0.17056628742E+02  0.33777543461E+02  0.00000000000E+00 0.  1.
         14    1    4    4    0    0 -0.21486570651E+02  0.35916485492E+01 -0.49507276569E+02  0.54088289776E+02  0.00000000000E+00 0. -1.
         -5    1    5    5    0  502  0.30464688841E+02  0.76593459508E+01  0.16293520702E+03  0.16600221244E+03  0.47000000000E+01 0.  1.
         13    1    6    6    0    0 -0.13222948523E+03 -0.72104487569E+02  0.48582201079E+03  0.50863220510E+03  0.00000000000E+00 0. -1.
        -14    1    6    6    0    0 -0.54843056970E+01 -0.12378782500E+02  0.55856264095E+01  0.14646197034E+02  0.00000000000E+00 0.  1.
</event>
<event>
12    1  0.8633375E-002  0.2627572E+03  0.7818608E-02  0.1105610E+00
         21   -1    0    0  503  502  0.00000000000E+00  0.00000000000E+00  0.31806077828E+03  0.31806077828E+03  0.00000000000E+00 0.  1.
         21   -1    0    0  501  503 -0.00000000000E+00 -0.00000000000E+00 -0.21716230122E+03  0.21716230122E+03  0.00000000000E+00 0.  1.
          6    2    1    2  501    0  0.16193857748E+02 -0.19684752733E+03  0.35024658175E+02  0.26433438169E+03  0.17214746184E+03 0.  0.
         24    2    3    3    0    0 -0.32372277069E+02 -0.19375793992E+03  0.37134008678E+02  0.21539815420E+03  0.80170609511E+02 0.  0.
         -6    2    1    2    0  502 -0.16193857748E+02  0.19684752733E+03  0.65873818879E+02  0.27088869781E+03  0.17329205563E+03 0.  0.
        -24    2    5    5    0    0  0.35197491462E+02  0.12541762549E+03  0.91775541350E+02  0.17903941433E+03  0.81632822463E+02 0.  0.
          5    1    3    3  501    0  0.48566134816E+02 -0.30895874118E+01 -0.21093505028E+01  0.48936227490E+02  0.47000000000E+01 0. -1.
        -13    1    4    4    0    0  0.19245838055E+02 -0.26606537696E+02 -0.98051822810E+01  0.34270274731E+02  0.00000000000E+00 0.  1.
         14    1    4    4    0    0 -0.51618115124E+02 -0.16715140222E+03  0.46939190959E+02  0.18112787947E+03  0.00000000000E+00 0. -1.
         -5    1    5    5    0  502 -0.51391349210E+02  0.71429901834E+02 -0.25901722472E+02  0.91849283484E+02  0.47000000000E+01 0.  1.
         11    1    6    6    0    0 -0.19056887276E+02  0.30653336896E+02 -0.46685790623E+00  0.36097229420E+02  0.00000000000E+00 0. -1.
        -12    1    6    6    0    0  0.54254378738E+02  0.94764288597E+02  0.92242399256E+02  0.14294218491E+03  0.00000000000E+00 0.  1.
</event>
<event>
12    1  0.8633375E-002  0.2165318E+03  0.7818608E-02  0.1137254E+00
         21   -1    0    0  501  502  0.00000000000E+00  0.00000000000E+00  0.88946078337E+02  0.88946078337E+02  0.00000000000E+00 0.  1.
         21   -1    0    0  502  503 -0.00000000000E+00 -0.00000000000E+00 -0.56054404032E+03  0.56054404032E+03  0.00000000000E+00 0.  1.
         -6    2    1    2    0  503 -0.99052467996E+02 -0.76257181337E+02 -0.14387566623E+03  0.25669511543E+03  0.17194657843E+03 0.  0.
        -24    2    3    3    0    0 -0.11323945807E+03 -0.68523472751E+02 -0.51224698932E+02  0.16252838736E+03  0.79201425078E+02 0.  0.
          6    2    1    2  501    0  0.99052467996E+02  0.76257181337E+02 -0.32772229576E+03  0.39279500323E+03  0.17680345670E+03 0.  0.
         24    2    5    5    0    0  0.86960144522E+02  0.10247300551E+03 -0.33161124855E+03  0.36328724699E+03  0.62839637713E+02 0.  0.
          5    1    5    5  501    0  0.12092323474E+02 -0.26215824176E+02  0.38889527919E+01  0.29507756236E+02  0.47000000000E+01 0. -1.
        -11    1    6    6    0    0  0.61089677999E+02  0.70746337895E+02 -0.14707135448E+03  0.17426123032E+03  0.00000000000E+00 0.  1.
         12    1    6    6    0    0  0.25870466523E+02  0.31726667619E+02 -0.18453989406E+03  0.18902601667E+03  0.00000000000E+00 0. -1.
         -5    1    3    3    0  503  0.14186990072E+02 -0.77337085862E+01 -0.92650967296E+02  0.94166728077E+02  0.47000000000E+01 0.  1.
         11    1    4    4    0    0 -0.45310922895E+02 -0.14269496328E+02 -0.58418752494E+02  0.75295742921E+02  0.00000000000E+00 0. -1.
        -12    1    4    4    0    0 -0.67928535173E+02 -0.54253976423E+02  0.71940535621E+01  0.87232644435E+02  0.00000000000E+00 0.  1.
</event>
<event>
12    1  0.8633375E-002  0.2122920E+03  0.7818608E-02  0.1139920E+00
         21   -1    0    0  503  502  0.00000000000E+00  0.00000000000E+00  0.89309455628E+02  0.89309455628E+02  0.00000000000E+00 0.  1.
         21   -1    0    0  501  503 -0.00000000000E+00 -0.00000000000E+00 -0.50315402614E+03  0.50315402614E+03  0.00000000000E+00 0. -1.
          6    2    1    2  501    0  0.95435653101E+02  0.78952750648E+02 -0.19792325635E+03  0.28966004121E+03  0.17142877049E+03 0.  0.
         24    2    3    3    0    0  0.11160901864E+03  0.13224027672E+02 -0.86812831290E+02  0.15946995198E+03  0.72544813436E+02 0.  0.
         -6    2    1    2    0  502 -0.95435653101E+02 -0.78952750648E+02 -0.21592131416E+03  0.30280344056E+03  0.17241348262E+03 0.  0.
        -24    2    5    5    0    0 -0.10802304239E+03 -0.98932683531E+02 -0.22237143606E+03  0.27787686519E+03  0.79434520678E+02 0.  0.
          5    1    3    3  501    0 -0.16173365543E+02  0.65728722976E+02 -0.11111042506E+03  0.13019008923E+03  0.47000000000E+01 0. -1.
        -13    1    4    4    0    0  0.79286557204E+02 -0.23309478683E+02 -0.68590112630E+02  0.10739782819E+03  0.00000000000E+00 0.  1.
         14    1    4    4    0    0  0.32322461440E+02  0.36533506355E+02 -0.18222718661E+02  0.52072123785E+02  0.00000000000E+00 0. -1.
         -5    1    5    5    0  502  0.12587389290E+02  0.19979932883E+02  0.64501218967E+01  0.24926575369E+02  0.47000000000E+01 0.  1.
         13    1    6    6    0    0 -0.69610385545E+02 -0.10199290691E+03 -0.19423402692E+03  0.23016302059E+03  0.00000000000E+00 0. -1.
        -14    1    6    6    0    0 -0.38412656846E+02  0.30602233817E+01 -0.28137409144E+02  0.47713844599E+02  0.00000000000E+00 0.  1.
</event>
<event>
12    1  0.8633375E-002  0.2069467E+03  0.7818608E-02  0.1144113E+00
         21   -1    0    0  503  502  0.00000000000E+00  0.00000000000E+00  0.29071773435E+03  0.29071773435E+03  0.00000000000E+00 0.  1.
         21   -1    0    0  501  503 -0.00000000000E+00 -0.00000000000E+00 -0.74370061885E+03  0.74370061885E+03  0.00000000000E+00 0.  1.
          6    2    1    2  501    0  0.99906225338E+02  0.55258882513E+02 -0.68973902015E+03  0.71996579609E+03  0.17197684046E+03 0.  0.
         24    2    3    3    0    0  0.54210697313E+02  0.68819603019E+02 -0.23724995704E+03  0.26494885502E+03  0.78964651565E+02 0.  0.
         -6    2    1    2    0  502 -0.99906225338E+02 -0.55258882513E+02  0.23675613565E+03  0.31445255711E+03  0.17260401197E+03 0.  0.
        -24    2    5    5    0    0 -0.55344033112E+02 -0.17246138801E+02  0.23596957694E+03  0.25568635649E+03  0.79583166247E+02 0.  0.
          5    1    3    3  501    0  0.45695528025E+02 -0.13560720505E+02 -0.45248906311E+03  0.45501694106E+03  0.47000000000E+01 0. -1.
        -13    1    4    4    0    0  0.53073547442E+02  0.57368504366E+01 -0.12973459278E+03  0.14028819428E+03  0.00000000000E+00 0.  1.
         14    1    4    4    0    0  0.11371498712E+01  0.63082752582E+02 -0.10751536426E+03  0.12466066074E+03  0.00000000000E+00 0. -1.
         -5    1    5    5    0  502 -0.44562192227E+02 -0.38012743712E+02  0.78655870532E+00  0.58766200619E+02  0.47000000000E+01 0.  1.
         13    1    6    6    0    0  0.19794898950E+02 -0.10626471509E+02  0.66363286122E+02  0.70063154839E+02  0.00000000000E+00 0. -1.
        -14    1    6    6    0    0 -0.75138932061E+02 -0.66196672921E+01  0.16960629082E+03  0.18562320165E+03  0.00000000000E+00 0.  1.
</event>
<event>
12    1  0.8633375E-002  0.2645939E+03  0.7818608E-02  0.1104505E+00
         21   -1    0    0  501  502  0.00000000000E+00  0.00000000000E+00  0.27546253868E+03  0.27546253868E+03  0.00000000000E+00 0.  1.
         21   -1    0    0  502  503 -0.00000000000E+00 -0.00000000000E+00 -0.32049506108E+03  0.32049506108E+03  0.00000000000E+00 0. -1.
         -6    2    1    2    0  503  0.44585468510E+02  0.19507392479E+03 -0.15866784863E+03  0.30799417389E+03  0.17217207911E+03 0.  0.
        -24    2    3    3    0    0 -0.23609045044E+02  0.12059103609E+03 -0.14423688137E+03  0.20587397410E+03  0.80499877457E+02 0.  0.
          6    2    1    2  501    0 -0.44585468510E+02 -0.19507392479E+03  0.11363532622E+03  0.28796342587E+03  0.17311339387E+03 0.  0.
         24    2    5    5    0    0 -0.55331097654E+02 -0.20164958471E+03  0.13565674509E+03  0.26216147366E+03  0.81251463986E+02 0.  0.
          5    1    5    5  501    0  0.10745629144E+02  0.65756599149E+01 -0.22021418872E+02  0.25801952216E+02  0.47000000000E+01 0. -1.
        -13    1    6    6    0    0  0.99384212462E+01 -0.11050745406E+03  0.81455795376E+02  0.13764343871E+03  0.00000000000E+00 0.  1.
         14    1    6    6    0    0 -0.65269518900E+02 -0.91142130647E+02  0.54200949716E+02  0.12451803494E+03  0.00000000000E+00 0. -1.
         -5    1    3    3    0  503  0.68194513553E+02  0.74482888701E+02 -0.14430967252E+02  0.10212019978E+03  0.47000000000E+01 0.  1.
         13    1    4    4    0    0  0.23985312154E+02  0.81194890906E+02 -0.75336170566E+02  0.11332891998E+03  0.00000000000E+00 0. -1.
        -14    1    4    4    0    0 -0.47594357198E+02  0.39396145186E+02 -0.68900710808E+02  0.92545054122E+02  0.00000000000E+00 0.  1.
</event>
<event>
12    1  0.8633375E-002  0.3030559E+03  0.7818608E-02  0.1084255E+00
         21   -1    0    0  503  502  0.00000000000E+00  0.00000000000E+00  0.90570434440E+03  0.90570434440E+03  0.00000000000E+00 0.  1.
         21   -1    0    0  501  503 -0.00000000000E+00 -0.00000000000E+00 -0.10665663579E+03  0.10665663579E+03  0.00000000000E+00 0.  1.
          6    2    1    2  501    0  0.12889069013E+03  0.21331397160E+03  0.27551794456E+03  0.40957663172E+03  0.17241583161E+03 0.  0.
         24    2    3    3    0    0  0.72127182478E+01  0.13566159648E+03  0.12834780652E+03  0.20338119109E+03  0.80216316218E+02 0.  0.
         -6    2    1    2    0  502 -0.12889069013E+03 -0.21331397160E+03  0.52352976404E+03  0.60278434847E+03  0.16477225628E+03 0.  0.
        -24    2    5    5    0    0 -0.44520253121E+02 -0.12066008354E+03  0.16621301023E+03  0.22410180839E+03  0.77807114403E+02 0.  0.
          5    1    3    3  501    0  0.12167797188E+03  0.77652375127E+02  0.14717013804E+03  0.20619544063E+03  0.47000000000E+01 0. -1.
        -13    1    4    4    0    0  0.42830573632E+01  0.13597928747E+03  0.13770241398E+03  0.19357341248E+03  0.00000000000E+00 0.  1.
         14    1    4    4    0    0  0.29296608845E+01 -0.31769099274E+00 -0.93546074656E+01  0.98077786120E+01  0.00000000000E+00 0. -1.
         -5    1    5    5    0  502 -0.84370437008E+02 -0.92653888058E+02  0.35731675381E+03  0.37868254008E+03  0.47000000000E+01 0.  1.
         13    1    6    6    0    0  0.13861326389E+02 -0.15308811048E+02  0.24236165169E+01  0.20793508169E+02  0.00000000000E+00 0. -1.
        -14    1    6    6    0    0 -0.58381579510E+02 -0.10535127250E+03  0.16378939372E+03  0.20330830022E+03  0.00000000000E+00 0.  1.
</event>
<event>
12    1  0.8633375E-002  0.2417268E+03  0.7818608E-02  0.1118827E+00
         21   -1    0    0  501  502  0.00000000000E+00  0.00000000000E+00  0.52963570732E+02  0.52963570732E+02  0.00000000000E+00 0.  1.
         21   -1    0    0  502  503 -0.00000000000E+00 -0.00000000000E+00 -0.11217806911E+04  0.11217806911E+04  0.00000000000E+00 0.  1.
         -6    2    1    2    0  503  0.16458139266E+03  0.40641560332E+02 -0.45063566399E+03  0.51137495272E+03  0.17231677041E+03 0.  0.
        -24    2    3    3    0    0  0.14417660652E+03  0.55441079952E+02 -0.45391738503E+03  0.48552459930E+03  0.76371047446E+02 0.  0.
          6    2    1    2  501    0 -0.16458139266E+03 -0.40641560332E+02 -0.61818145635E+03  0.66336930909E+03  0.17079741226E+03 0.  0.
         24    2    5    5    0    0 -0.14400567529E+03 -0.88735016312E+02 -0.47295954822E+03  0.50894187224E+03  0.81972906661E+02 0.  0.
          5    1    5    5  501    0 -0.20575717375E+02  0.48093455980E+02 -0.14522190813E+03  0.15442743686E+03  0.47000000000E+01 0. -1.
        -13    1    6    6    0    0 -0.10031414252E+03 -0.42491816985E+02 -0.38674103355E+03  0.40179237017E+03  0.00000000000E+00 0.  1.
         14    1    6    6    0    0 -0.43691532770E+02 -0.46243199327E+02 -0.86218514672E+02  0.10714950206E+03  0.00000000000E+00 0. -1.
         -5    1    3    3    0  503  0.20404786146E+02 -0.14799519620E+02  0.32817210302E+01  0.25850353413E+02  0.47000000000E+01 0.  1.
         11    1    4    4    0    0  0.45158212059E+02  0.44533738204E+02 -0.25867795555E+03  0.26633963776E+03  0.00000000000E+00 0. -1.
        -12    1    4    4    0    0  0.99018394459E+02  0.10907341747E+02 -0.19523942948E+03  0.21918496155E+03  0.00000000000E+00 0.  1.
</event>
<event>
12    1  0.8633375E-002  0.1929188E+03  0.7818608E-02  0.1155882E+00
         21   -1    0    0  503  502  0.00000000000E+00  0.00000000000E+00  0.11579370568E+04  0.11579370568E+04  0.00000000000E+00 0. -1.
         21   -1    0    0  501  503 -0.00000000000E+00 -0.00000000000E+00 -0.39539259395E+02  0.39539259395E+02  0.00000000000E+00 0. -1.
          6    2    1    2  501    0 -0.87779961381E+02  0.75190291740E+00  0.81869457126E+03  0.84111737905E+03  0.17178986393E+03 0.  0.
         24    2    3    3    0    0  0.13790235562E+02  0.15358506202E+02  0.23659990535E+03  0.25002842818E+03  0.78157823493E+02 0.  0.
         -6    2    1    2    0  502  0.87779961381E+02 -0.75190291740E+00  0.29970322615E+03  0.35635893715E+03  0.17165017141E+03 0.  0.
        -24    2    5    5    0    0  0.73314663332E+02 -0.11323245016E+02  0.73437808893E+02  0.12933663171E+03  0.76364892391E+02 0.  0.
          5    1    3    3  501    0 -0.10157019694E+03 -0.14606603284E+02  0.58209466590E+03  0.59108895087E+03  0.47000000000E+01 0. -1.
        -11    1    4    4    0    0 -0.23656222464E+02  0.14543487011E+02  0.33543635843E+02  0.43546588630E+02  0.00000000000E+00 0.  1.
         12    1    4    4    0    0  0.37446458026E+02  0.81501919058E+00  0.20305626951E+03  0.20648183955E+03  0.00000000000E+00 0. -1.
         -5    1    5    5    0  502  0.14465298050E+02  0.10571342099E+02  0.22626541725E+03  0.22702230544E+03  0.47000000000E+01 0.  1.
         13    1    6    6    0    0  0.16161745283E+02  0.28704519147E+02  0.40419081803E+02  0.52142627512E+02  0.00000000000E+00 0. -1.
        -14    1    6    6    0    0  0.57152918048E+02 -0.40027764164E+02  0.33018727091E+02  0.77194004198E+02  0.00000000000E+00 0.  1.
</event>
<event>
12    1  0.8633375E-002  0.1819368E+03  0.7818608E-02  0.1165943E+00
         21   -1    0    0  503  502  0.00000000000E+00  0.00000000000E+00  0.20508536336E+02  0.20508536336E+02  0.00000000000E+00 0.  1.
         21   -1    0    0  501  503 -0.00000000000E+00 -0.00000000000E+00 -0.16440943183E+04  0.16440943183E+04  0.00000000000E+00 0.  1.
          6    2    1    2  501    0 -0.55502046460E+02  0.26961072114E+02 -0.92447200904E+03  0.94220334204E+03  0.17114691254E+03 0.  0.
         24    2    3    3    0    0 -0.21933141715E+02  0.74932656790E+02 -0.42575225731E+03  0.44003641255E+03  0.79190239334E+02 0.  0.
         -6    2    1    2    0  502  0.55502046460E+02 -0.26961072114E+02 -0.69911377289E+03  0.72239951257E+03  0.17115376637E+03 0.  0.
        -24    2    5    5    0    0 -0.24340426521E+02  0.23083952766E+02 -0.34317369501E+03  0.35416758287E+03  0.80877478763E+02 0.  0.
          5    1    3    3  501    0 -0.33568904745E+02 -0.47971584677E+02 -0.49871975173E+03  0.50216692949E+03  0.47000000000E+01 0. -1.
        -11    1    4    4    0    0 -0.20329862702E+02  0.22328513369E+02 -0.32469678883E+03  0.32609794619E+03  0.00000000000E+00 0.  1.
         12    1    4    4    0    0 -0.16032790131E+01  0.52604143421E+02 -0.10105546848E+03  0.11393846636E+03  0.00000000000E+00 0. -1.
         -5    1    5    5    0  502  0.79842472982E+02 -0.50045024880E+02 -0.35594007788E+03  0.36823192970E+03  0.47000000000E+01 0.  1.
         11    1    6    6    0    0 -0.44237504889E+02 -0.12846040408E+02 -0.16398454161E+03  0.17033175711E+03  0.00000000000E+00 0. -1.
        -12    1    6    6    0    0  0.19897078367E+02  0.35929993174E+02 -0.17918915340E+03  0.18383582576E+03  0.00000000000E+00 0.  1.
</event>
<event>
12    1  0.8633375E-002  0.1904296E+03  0.7818608E-02  0.1158227E+00
         21   -1    0    0  503  502  0.00000000000E+00  0.00000000000E+00  0.88172307518E+03  0.88172307518E+03  0.00000000000E+00 0.  1.
         21   -1    0    0  501  503 -0.00000000000E+00 -0.00000000000E+00 -0.78442146616E+02  0.78442146616E+02  0.00000000000E+00 0.  1.
          6    2    1    2  501    0  0.77855577981E+02  0.57302634664E+01  0.70251998073E+02  0.20297481003E+03  0.17369255405E+03 0.  0.
         24    2    3    3    0    0  0.75346898962E+02  0.58635052647E+02  0.14024500641E+02  0.12558726804E+03  0.80375684708E+02 0.  0.
         -6    2    1    2    0  502 -0.77855577981E+02 -0.57302634664E+01  0.73302893049E+03  0.75719041176E+03  0.17294964524E+03 0.  0.
        -24    2    5    5    0    0 -0.11908552783E+03 -0.21557766953E+02  0.58037189013E+03  0.59820399535E+03  0.79814716358E+02 0.  0.
          5    1    3    3  501    0  0.25086790192E+01 -0.52904789181E+02  0.56227497432E+02  0.77387541996E+02  0.47000000000E+01 0. -1.
        -13    1    4    4    0    0  0.74894973367E+02  0.11426531959E+02 -0.18352741675E+01  0.75783843261E+02  0.00000000000E+00 0.  1.
         14    1    4    4    0    0  0.45192559567E+00  0.47208520688E+02  0.15859774809E+02  0.49803424774E+02  0.00000000000E+00 0. -1.
         -5    1    5    5    0  502  0.41229949853E+02  0.15827503487E+02  0.15265704036E+03  0.15898641641E+03  0.47000000000E+01 0.  1.
         13    1    6    6    0    0 -0.61614748160E+00  0.83779807725E+01  0.45378150907E+01  0.95478775306E+01  0.00000000000E+00 0. -1.
        -14    1    6    6    0    0 -0.11846938035E+03 -0.29935747726E+02  0.57583407504E+03  0.58865611782E+03  0.00000000000E+00 0.  1.
</event>
<event>
12    1  0.8633375E-002  0.1963541E+03  0.7818608E-02  0.1153152E+00
         21   -1    0    0  501  502  0.00000000000E+00  0.00000000000E+00  0.23476685827E+03  0.23476685827E+03  0.00000000000E+00 0.  1.
         21   -1    0    0  502  503 -0.00000000000E+00 -0.00000000000E+00 -0.19999927817E+03  0.19999927817E+03  0.00000000000E+00 0.  1.
         -6    2    1    2    0  503  0.61995178845E+02 -0.67745337294E+02  0.11074402547E+03  0.22422548778E+03  0.17198836376E+03 0.  0.
        -24    2    3    3    0    0  0.42246095028E+02 -0.41905647587E+02  0.14683699403E+03  0.17541454376E+03  0.75288402175E+02 0.  0.
          6    2    1    2  501    0 -0.61995178845E+02  0.67745337294E+02 -0.75976445366E+02  0.21054064866E+03  0.17355722849E+03 0.  0.
         24    2    5    5    0    0  0.12796325750E+02  0.43239516482E+02 -0.93429927469E+02  0.12978782548E+03  0.77989272070E+02 0.  0.
          5    1    5    5  501    0 -0.74791504595E+02  0.24505820812E+02  0.17453482103E+02  0.80752823175E+02  0.47000000000E+01 0. -1.
        -11    1    6    6    0    0  0.10777204976E+02  0.51079705043E+02 -0.19986343055E+02  0.55899358879E+02  0.00000000000E+00 0.  1.
         12    1    6    6    0    0  0.20191207733E+01 -0.78401885602E+01 -0.73443584413E+02  0.73888466602E+02  0.00000000000E+00 0. -1.
         -5    1    3    3    0  503  0.19749083818E+02 -0.25839689707E+02 -0.36092968566E+02  0.48810944015E+02  0.47000000000E+01 0.  1.
         13    1    4    4    0    0  0.15299929251E+01  0.11120553536E+02 -0.27589166784E+01  0.11559377602E+02  0.00000000000E+00 0. -1.
        -14    1    4    4    0    0  0.40716102103E+02 -0.53026201124E+02  0.14959591071E+03  0.16385516616E+03  0.00000000000E+00 0.  1.
</event>
<event>
12    1  0.8633375E-002  0.3137140E+03  0.7818608E-02  0.1078725E+00
         21   -1    0    0  503  502  0.00000000000E+00  0.00000000000E+00  0.81467829609E+02  0.81467829609E+02  0.00000000000E+00 0. -1.
         21   -1    0    0  501  503 -0.00000000000E+00 -0.00000000000E+00 -0.13084138287E+04  0.13084138287E+04  0.00000000000E+00 0.  1.
          6    2    1    2  501    0 -0.50969957111E+02  0.25570546492E+03 -0.80933084968E+03  0.86756099999E+03  0.17222788141E+03 0.  0.
         24    2    3    3    0    0 -0.78671411462E+02  0.25024094190E+03 -0.77877343716E+03  0.82569123709E+03  0.80425323112E+02 0.  0.
         -6    2    1    2    0  502  0.50969957111E+02 -0.25570546492E+03 -0.41761514937E+03  0.52232065828E+03  0.17445124181E+03 0.  0.
        -24    2    5    5    0    0  0.39518261019E+02 -0.14066863796E+03 -0.12623572349E+03  0.20881041487E+03  0.79479386092E+02 0.  0.
          5    1    3    3  501    0  0.27701454351E+02  0.54645230188E+01 -0.30557412525E+02  0.41869762899E+02  0.47000000000E+01 0. -1.
        -11    1    4    4    0    0 -0.23467431771E+02  0.23164557126E+02 -0.17875630798E+03  0.18177220553E+03  0.00000000000E+00 0.  1.
         12    1    4    4    0    0 -0.55203979691E+02  0.22707638477E+03 -0.60001712917E+03  0.64391903155E+03  0.00000000000E+00 0. -1.
         -5    1    5    5    0  502  0.11451696093E+02 -0.11503682696E+03 -0.29137942588E+03  0.31351024341E+03  0.47000000000E+01 0.  1.
         13    1    6    6    0    0  0.34164416959E+02 -0.14721456997E+03 -0.13019353847E+03  0.19947354325E+03  0.00000000000E+00 0. -1.
        -14    1    6    6    0    0  0.53538440598E+01  0.65459320149E+01  0.39578149797E+01  0.93368716160E+01  0.00000000000E+00 0.  1.
</event>
<event>
12    1  0.8633375E-002  0.2255572E+03  0.7818608E-02  0.1129877E+00
         21   -1    0    0  501  502  0.00000000000E+00  0.00000000000E+00  0.24446953452E+03  0.24446953452E+03  0.00000000000E+00 0.  1.
         21   -1    0    0  502  503 -0.00000000000E+00 -0.00000000000E+00 -0.29277370579E+03  0.29277370579E+03  0.00000000000E+00 0.  1.
         -6    2    1    2    0  503 -0.14041353033E+03  0.38042188014E+02  0.12062191250E+03  0.25544176054E+03  0.17186529517E+03 0.  0.
        -24    2    3    3    0    0 -0.66205407171E+02  0.67446152038E+02  0.12368788660E+03  0.17542345738E+03  0.80886072612E+02 0.  0.
          6    2    1    2  501    0  0.14041353033E+03 -0.38042188014E+02 -0.16892608377E+03  0.28180147977E+03  0.17237425751E+03 0.  0.
         24    2    5    5    0    0  0.97989609717E+02 -0.87564182818E+02 -0.86022517825E+02  0.17622066590E+03  0.79902439216E+02 0.  0.
          5    1    5    5  501    0  0.42423920615E+02  0.49521994805E+02 -0.82903565946E+02  0.10558081386E+03  0.47000000000E+01 0. -1.
        -13    1    6    6    0    0  0.10017271490E+02 -0.53210260312E+01 -0.48902842928E+02  0.50201066648E+02  0.00000000000E+00 0.  1.
         14    1    6    6    0    0  0.87972338228E+02 -0.82243156787E+02 -0.37119674897E+02  0.12601959925E+03  0.00000000000E+00 0. -1.
         -5    1    3    3    0  503 -0.74208123162E+02 -0.29403964025E+02 -0.30659741027E+01  0.80018303161E+02  0.47000000000E+01 0.  1.
         11    1    4    4    0    0 -0.37350499308E+02  0.22860585285E+02  0.33876175166E+01  0.43922000303E+02  0.00000000000E+00 0. -1.
        -12    1    4    4    0    0 -0.28854907862E+02  0.44585566753E+02  0.12030026909E+03  0.13150145708E+03  0.00000000000E+00 0.  1.
</event>
<event>
12    1  0.8633375E-002  0.2614153E+03  0.7818608E-02  0.1106398E+00
         21   -1    0    0  503  502  0.00000000000E+00  0.00000000000E+00  0.51864956181E+02  0.51864956181E+02  0.00000000000E+00 0.  1.
         21   -1    0    0  501  503 -0.00000000000E+00 -0.00000000000E+00 -0.13559440105E+04  0.13559440105E+04  0.00000000000E+00 0.  1.
          6    2    1    2  501    0 -0.88892558737E+02 -0.17480666267E+03 -0.77477473624E+03  0.81746919692E+03  0.17181600532E+03 0.  0.
         24    2    3    3    0    0 -0.11497050040E+03 -0.13637018483E+03 -0.72072176701E+03  0.74604626396E+03  0.73007665688E+02 0.  0.
         -6    2    1    2    0  502  0.88892558737E+02  0.17480666267E+03 -0.52930431806E+03  0.59033976974E+03  0.17285463925E+03 0.  0.
        -24    2    5    5    0    0  0.63719735026E+01  0.46586880146E+02 -0.10886023785E+03  0.14307555901E+03  0.80057009395E+02 0.  0.
          5    1    3    3  501    0  0.26077941666E+02 -0.38436477839E+02 -0.54052969227E+02  0.71422932959E+02  0.47000000000E+01 0. -1.
        -11    1    4    4    0    0 -0.42387295854E+02 -0.52883090530E+02 -0.42380385941E+03  0.42918878756E+03  0.00000000000E+00 0.  1.
         12    1    4    4    0    0 -0.72583204549E+02 -0.83487094300E+02 -0.29691790760E+03  0.31685747640E+03  0.00000000000E+00 0. -1.
         -5    1    5    5    0  502  0.82520585234E+02  0.12821978252E+03 -0.42044408021E+03  0.44726421073E+03  0.47000000000E+01 0.  1.
         11    1    6    6    0    0  0.27823257906E+02  0.70846199885E+01 -0.40020684638E+01  0.28988654210E+02  0.00000000000E+00 0. -1.
        -12    1    6    6    0    0 -0.21451284404E+02  0.39502260158E+02 -0.10485816938E+03  0.11408690480E+03  0.00000000000E+00 0.  1.
</event>
<event>
12    1  0.8633375E-002  0.4254721E+03  0.7818608E-02  0.1035334E+00
         21   -1    0    0  501  502  0.00000000000E+00  0.00000000000E+00  0.10636302682E+04  0.10636302682E+04  0.00000000000E+00 0.  1.
         21   -1    0    0  502  503 -0.00000000000E+00 -0.00000000000E+00 -0.28790075087E+03  0.28790075087E+03  0.00000000000E+00 0. -1.
         -6    2    1    2    0  503 -0.67383468191E+02 -0.38290914416E+03 -0.44418922834E+02  0.42778447091E+03  0.17281946760E+03 0.  0.
        -24    2    3    3    0    0 -0.68724193420E+02 -0.14748624871E+03  0.21702214620E+02  0.18320353939E+03  0.81347049152E+02 0.  0.
          6    2    1    2  501    0  0.67383468191E+02  0.38290914416E+03  0.82014844017E+03  0.92374654816E+03  0.17176809029E+03 0.  0.
         24    2    5    5    0    0  0.82097775479E+02  0.38502371136E+03  0.81206209512E+03  0.90618348437E+03  0.82099683039E+02 0.  0.
          5    1    5    5  501    0 -0.14714307288E+02 -0.21145671981E+01  0.80863450512E+01  0.17563063790E+02  0.47000000000E+01 0. -1.
        -11    1    6    6    0    0  0.22312749670E+02  0.13515517236E+03  0.37453182477E+03  0.39879677429E+03  0.00000000000E+00 0.  1.
         12    1    6    6    0    0  0.59785025809E+02  0.24986853900E+03  0.43753027035E+03  0.50738671008E+03  0.00000000000E+00 0. -1.
         -5    1    3    3    0  503  0.13407252286E+01 -0.23542289545E+03 -0.66121137454E+02  0.24458093153E+03  0.47000000000E+01 0.  1.
         11    1    4    4    0    0 -0.75549503951E+01 -0.10810265881E+03  0.45720051967E+01  0.10846273714E+03  0.00000000000E+00 0. -1.
        -12    1    4    4    0    0 -0.61169243025E+02 -0.39383589902E+02  0.17130209423E+02  0.74740802248E+02  0.00000000000E+00 0.  1.
</event>
<event>
12    1  0.8633375E-002  0.1752607E+03  0.7818608E-02  0.1172535E+00
         21   -1    0    0  501  502  0.00000000000E+00  0.00000000000E+00  0.76136854436E+02  0.76136854436E+02  0.00000000000E+00 0.  1.
         21   -1    0    0  502  503 -0.00000000000E+00 -0.00000000000E+00 -0.61008305260E+03  0.61008305260E+03  0.00000000000E+00 0.  1.
         -6    2    1    2    0  503 -0.29714133864E+02  0.15266027306E+02 -0.46707995847E+03  0.49887875755E+03  0.17204751028E+03 0.  0.
        -24    2    3    3    0    0 -0.49910767998E+02  0.65096639336E+02 -0.25002651799E+03  0.27521543926E+03  0.80632630455E+02 0.  0.
          6    2    1    2  501    0  0.29714133864E+02 -0.15266027306E+02 -0.66866239695E+02  0.18734114948E+03  0.17178367483E+03 0.  0.
         24    2    5    5    0    0 -0.49282416476E+02 -0.58460464119E+01 -0.21945294740E+02  0.95857969056E+02  0.79020386217E+02 0.  0.
          5    1    5    5  501    0  0.78996550340E+02 -0.94199808937E+01 -0.44920944955E+02  0.91483180428E+02  0.47000000000E+01 0. -1.
        -13    1    6    6    0    0 -0.55855782447E+02 -0.12623399507E+02 -0.43771318782E+02  0.72077368125E+02  0.00000000000E+00 0.  1.
         14    1    6    6    0    0  0.65733659703E+01  0.67773530946E+01  0.21826024042E+02  0.23780600931E+02  0.00000000000E+00 0. -1.
         -5    1    3    3    0  503  0.20196634135E+02 -0.49830612031E+02 -0.21705344047E+03  0.22366331829E+03  0.47000000000E+01 0.  1.
         13    1    4    4    0    0  0.36776116658E+01  0.59562016844E+02 -0.15317027067E+03  0.16438458108E+03  0.00000000000E+00 0. -1.
        -14    1    4    4    0    0 -0.53588379664E+02  0.55346224920E+01 -0.96856247321E+02  0.11083085819E+03  0.00000000000E+00 0.  1.
</event>
<event>
12    1  0.8633375E-002  0.1809864E+03  0.7818608E-02  0.1166870E+00
         21   -1    0    0  501  502  0.00000000000E+00  0.00000000000E+00  0.32882861841E+03  0.32882861841E+03  0.00000000000E+00 0.  1.
         21   -1    0    0  502  503 -0.00000000000E+00 -0.00000000000E+00 -0.13054418032E+03  0.13054418032E+03  0.00000000000E+00 0.  1.
         -6    2    1    2    0  503  0.35640251630E+02 -0.42006537547E+02 -0.12748411727E+02  0.18136032378E+03  0.17232024927E+03 0.  0.
        -24    2    3    3    0    0  0.35654195714E+02  0.45734804216E+01  0.49963044435E+02  0.10310104316E+03  0.82712640493E+02 0.  0.
          6    2    1    2  501    0 -0.35640251630E+02  0.42006537547E+02  0.21103284981E+03  0.27801247495E+03  0.17239865369E+03 0.  0.
         24    2    5    5    0    0 -0.10798987226E+01  0.31320874556E+02  0.28652055385E+02  0.92019341842E+02  0.81636117197E+02 0.  0.
          5    1    5    5  501    0 -0.34560352907E+02  0.10685662991E+02  0.18238079443E+03  0.18599313311E+03  0.47000000000E+01 0. -1.
        -11    1    6    6    0    0  0.27363470306E+02 -0.15794019881E+02  0.44817711700E+01  0.31910763764E+02  0.00000000000E+00 0.  1.
         12    1    6    6    0    0 -0.28443369028E+02  0.47114894437E+02  0.24170284215E+02  0.60108578078E+02  0.00000000000E+00 0. -1.
         -5    1    3    3    0  503 -0.13944084202E-01 -0.46580017969E+02 -0.62711456162E+02  0.78259280615E+02  0.47000000000E+01 0.  1.
         11    1    4    4    0    0  0.52958398635E+02 -0.14699347178E+02  0.10588717278E+02  0.55971275910E+02  0.00000000000E+00 0. -1.
        -12    1    4    4    0    0 -0.17304202921E+02  0.19272827600E+02  0.39374327157E+02  0.47129767255E+02  0.00000000000E+00 0.  1.
</event>
<event>
12    1  0.8633375E-002  0.1768767E+03  0.7818608E-02  0.1171092E+00
         21   -1    0    0  501  502  0.00000000000E+00  0.00000000000E+00  0.15772233351E+03  0.15772233351E+03  0.00000000000E+00 0.  1.
         21   -1    0    0  502  503 -0.00000000000E+00 -0.00000000000E+00 -0.24814296659E+03  0.24814296659E+03  0.00000000000E+00 0.  1.
         -6    2    1    2    0  503 -0.25927098244E+02 -0.27035764458E+02 -0.13696235161E+03  0.22296780201E+03  0.17190930164E+03 0.  0.
        -24    2    3    3    0    0  0.39092872418E+02  0.19682056903E+02 -0.97453609940E+02  0.13356320433E+03  0.80164128028E+02 0.  0.
          6    2    1    2  501    0  0.25927098244E+02  0.27035764458E+02  0.46541718537E+02  0.18289749810E+03  0.17286473400E+03 0.  0.
         24    2    5    5    0    0 -0.50549967511E+02  0.33597957246E+02  0.38230245855E+02  0.10554780812E+03  0.77425229448E+02 0.  0.
          5    1    5    5  501    0  0.76477065755E+02 -0.65621927883E+01  0.83114726816E+01  0.77349689973E+02  0.47000000000E+01 0. -1.
        -11    1    6    6    0    0  0.12205853200E+02  0.26041762171E+02 -0.46952795116E+01  0.29141068597E+02  0.00000000000E+00 0.  1.
         12    1    6    6    0    0 -0.62755820711E+02  0.75561950755E+01  0.42925525367E+02  0.76406739527E+02  0.00000000000E+00 0. -1.
         -5    1    3    3    0  503 -0.65019970662E+02 -0.46717821361E+02 -0.39508741672E+02  0.89404597678E+02  0.47000000000E+01 0.  1.
         13    1    4    4    0    0  0.33503807304E+02  0.13930313532E+02 -0.11157317864E+03  0.11732490328E+03  0.00000000000E+00 0. -1.
        -14    1    4    4    0    0  0.55890651137E+01  0.57517433712E+01  0.14119568698E+02  0.16238301046E+02  0.00000000000E+00 0.  1.
</event>
<event>
12    1  0.8633375E-002  0.1751431E+03  0.7818608E-02  0.1172602E+00
         21   -1    0    0  503  502  0.00000000000E+00  0.00000000000E+00  0.41290048088E+03  0.41290048088E+03  0.00000000000E+00 0.  1.
         21   -1    0    0  501  503 -0.00000000000E+00 -0.00000000000E+00 -0.76592537027E+02  0.76592537027E+02  0.00000000000E+00 0.  1.
          6    2    1    2  501    0  0.20826580783E+02  0.23789544943E+02  0.12549356071E+03  0.21541671770E+03  0.17220929002E+03 0.  0.
         24    2    3    3    0    0  0.30824534394E+02  0.16081530625E+02  0.15732412726E+03  0.18085304417E+03  0.82147276402E+02 0.  0.
         -6    2    1    2    0  502 -0.20826580783E+02 -0.23789544943E+02  0.21081438315E+03  0.27407630021E+03  0.17226556614E+03 0.  0.
        -24    2    5    5    0    0  0.44165846971E+02  0.19105104271E+02  0.14315077575E+03  0.17080761976E+03  0.79796436768E+02 0.  0.
          5    1    3    3  501    0 -0.99979536109E+01  0.77080143183E+01 -0.31830566549E+02  0.34563673531E+02  0.47000000000E+01 0. -1.
        -11    1    4    4    0    0 -0.17759033928E+02 -0.20896789622E+02  0.59883461662E+02  0.65864163877E+02  0.00000000000E+00 0.  1.
         12    1    4    4    0    0  0.48583568322E+02  0.36978320247E+02  0.97440665594E+02  0.11498888029E+03  0.00000000000E+00 0. -1.
         -5    1    5    5    0  502 -0.64992427754E+02 -0.42894649214E+02  0.67663607398E+02  0.10326868045E+03  0.47000000000E+01 0.  1.
         13    1    6    6    0    0  0.12428005119E+02  0.29736892318E+02  0.13146046422E+03  0.13535358041E+03  0.00000000000E+00 0. -1.
        -14    1    6    6    0    0  0.31737841852E+02 -0.10631788046E+02  0.11690311530E+02  0.35454039349E+02  0.00000000000E+00 0.  1.
</event>
<event>
12    1  0.8633375E-002  0.2264012E+03  0.7818608E-02  0.1129536E+00
         21   -1    0    0  501  502  0.00000000000E+00  0.00000000000E+00  0.12690475249E+03  0.12690475249E+03  0.00000000000E+00 0.  1.
         21   -1    0    0  502  503 -0.00000000000E+00 -0.00000000000E+00 -0.41097967576E+03  0.41097967576E+03  0.00000000000E+00 0.  1.
         -6    2    1    2    0  503 -0.12707037497E+03 -0.70963271286E+02 -0.18424599879E+03  0.29045092522E+03  0.17097510293E+03 0.  0.
        -24    2    3    3    0    0 -0.13489254053E+03 -0.69729999771E+02 -0.20518101685E+03  0.26758015317E+03  0.80259693103E+02 0.  0.
          6    2    1    2  501    0  0.12707037497E+03  0.70963271286E+02 -0.99828924480E+02  0.24743350303E+03  0.17342104311E+03 0.  0.
         24    2    5    5    0    0  0.52806946005E+02  0.68479667257E+02  0.60710727841E+01  0.11798032775E+03  0.80027879124E+02 0.  0.
          5    1    5    5  501    0  0.74263428967E+02  0.24836040282E+01 -0.10589999726E+03  0.12945317529E+03  0.47000000000E+01 0. -1.
        -11    1    6    6    0    0  0.69388301417E+02  0.49234969314E+02  0.22149103743E+02  0.87917014130E+02  0.00000000000E+00 0.  1.
         12    1    6    6    0    0 -0.16581355413E+02  0.19244697943E+02 -0.16078030959E+02  0.30063313619E+02  0.00000000000E+00 0. -1.
         -5    1    3    3    0  503  0.78221655604E+01 -0.12332715147E+01  0.20935018062E+02  0.22870772045E+02  0.47000000000E+01 0.  1.
         11    1    4    4    0    0 -0.11342633843E+03 -0.66978581051E+02 -0.11507368653E+03  0.17491031387E+03  0.00000000000E+00 0. -1.
        -12    1    4    4    0    0 -0.21466202106E+02 -0.27514187200E+01 -0.90107330323E+02  0.92669839300E+02  0.00000000000E+00 0.  1.
</event>
<event>
12    1  0.8633375E-002  0.1774583E+03  0.7818608E-02  0.1171382E+00
         21   -1    0    0  503  502  0.00000000000E+00  0.00000000000E+00  0.15220163047E+04  0.15220163047E+04  0.00000000000E+00 0. -1.
         21   -1    0    0  501  503 -0.00000000000E+00 -0.00000000000E+00 -0.22403851710E+02  0.22403851710E+02  0.00000000000E+00 0. -1.
          6    2    1    2  501    0 -0.62121987690E+01 -0.35442085582E+02  0.49820381979E+03  0.52740949705E+03  0.16928968866E+03 0.  0.
         24    2    3    3    0    0 -0.65443174155E+02 -0.31977375574E+02  0.25220189556E+03  0.27431001190E+03  0.79591613328E+02 0.  0.
         -6    2    1    2    0  502  0.62121987690E+01  0.35442085582E+02  0.10014086332E+04  0.10170106594E+04  0.17377197056E+03 0.  0.
        -24    2    5    5    0    0 -0.35226205101E+02  0.76836887753E+02  0.72045828712E+03  0.72998129165E+03  0.81656290858E+02 0.  0.
          5    1    3    3  501    0  0.59230975386E+02 -0.34647100088E+01  0.24600192423E+03  0.25309948515E+03  0.47000000000E+01 0. -1.
        -13    1    4    4    0    0 -0.77358027561E+02 -0.40485668838E+01  0.17694885338E+03  0.19316198393E+03  0.00000000000E+00 0.  1.
         14    1    4    4    0    0  0.11914853407E+02 -0.27928808690E+02  0.75253042179E+02  0.81148027972E+02  0.00000000000E+00 0. -1.
         -5    1    5    5    0  502  0.41438403870E+02 -0.41394802171E+02  0.28095034611E+03  0.28702936773E+03  0.47000000000E+01 0.  1.
         11    1    6    6    0    0 -0.31335659411E+02  0.70951636682E+02  0.31317849431E+03  0.32264039982E+03  0.00000000000E+00 0. -1.
        -12    1    6    6    0    0 -0.38905456900E+01  0.58852510709E+01  0.40727979281E+03  0.40734089183E+03  0.00000000000E+00 0.  1.
</event>
<event>
12    1  0.8633375E-002  0.2285475E+03  0.7818608E-02  0.1127947E+00
         21   -1    0    0  501  502  0.00000000000E+00  0.00000000000E+00  0.18033242510E+03  0.18033242510E+03  0.00000000000E+00 0. -1.
         21   -1    0    0  502  503 -0.00000000000E+00 -0.00000000000E+00 -0.29010721256E+03  0.29010721256E+03  0.00000000000E+00 0.  1.
         -6    2    1    2    0  503 -0.11548619748E+03 -0.93610009209E+02 -0.76670109387E+02  0.24106485950E+03  0.17359166218E+03 0.  0.
        -24    2    3    3    0    0  0.11896981898E+02 -0.40307676313E+02 -0.28987138406E+02  0.94902727596E+02  0.80000166026E+02 0.  0.
          6    2    1    2  501    0  0.11548619748E+03  0.93610009209E+02 -0.33104678074E+02  0.22937477816E+03  0.17151377061E+03 0.  0.
         24    2    5    5    0    0  0.99538429408E+01  0.37377606548E+02 -0.60924281847E+02  0.10651232938E+03  0.78338647752E+02 0.  0.
          5    1    5    5  501    0  0.10553235454E+03  0.56232402661E+02  0.27819603773E+02  0.12286244877E+03  0.47000000000E+01 0. -1.
        -11    1    6    6    0    0  0.20164387521E+02  0.59182222347E+02 -0.37423596152E+02  0.72867437960E+02  0.00000000000E+00 0.  1.
         12    1    6    6    0    0 -0.10210544580E+02 -0.21804615798E+02 -0.23500685695E+02  0.33644891423E+02  0.00000000000E+00 0. -1.
         -5    1    3    3    0  503 -0.12738317938E+03 -0.53302332896E+02 -0.47682970980E+02  0.14616213190E+03  0.47000000000E+01 0.  1.
         13    1    4    4    0    0 -0.24223157570E+02 -0.90298147570E+01  0.15059094655E+02  0.29917808226E+02  0.00000000000E+00 0. -1.
        -14    1    4    4    0    0  0.36120139468E+02 -0.31277861556E+02 -0.44046233061E+02  0.64984919370E+02  0.00000000000E+00 0.  1.
</event>
<event>
12    1  0.8633375E-002  0.1994207E+03  0.7818608E-02  0.1151774E+00
         21   -1    0    0  501  502  0.00000000000E+00  0.00000000000E+00  0.12165937074E+03  0.12165937074E+03  0.00000000000E+00 0. -1.
         21   -1    0    0  502  503 -0.00000000000E+00 -0.00000000000E+00 -0.43866636304E+03  0.43866636304E+03  0.00000000000E+00 0. -1.
         -6    2    1    2    0  503 -0.83837476910E+02 -0.54873200376E+02 -0.30500412608E+03  0.36054416800E+03  0.16408774937E+03 0.  0.
        -24    2    3    3    0    0 -0.12167180652E+03 -0.45831643651E+02 -0.26441372070E+03  0.30412735088E+03  0.75327696076E+02 0.  0.
          6    2    1    2  501    0  0.83837476910E+02  0.54873200376E+02 -0.12002866217E+02  0.19978156578E+03  0.17242045869E+03 0.  0.
         24    2    5    5    0    0  0.96595422387E+02  0.38422546906E+02 -0.59087451801E+02  0.14808594342E+03  0.87356464789E+02 0.  0.
          5    1    5    5  501    0 -0.12757945477E+02  0.16450653471E+02  0.47084585584E+02  0.51695622368E+02  0.47000000000E+01 0. -1.
        -13    1    6    6    0    0  0.42516824215E+02  0.40605386763E+02 -0.71490732955E+02  0.92560265092E+02  0.00000000000E+00 0.  1.
         14    1    6    6    0    0  0.54078598171E+02 -0.21828398573E+01  0.12403281154E+02  0.55525678324E+02  0.00000000000E+00 0. -1.
         -5    1    3    3    0  503  0.37834329606E+02 -0.90415567252E+01 -0.40590405380E+02  0.56416817117E+02  0.47000000000E+01 0.  1.
         13    1    4    4    0    0  0.29122279550E+01 -0.21996388775E+02 -0.54817462730E+02  0.59137774823E+02  0.00000000000E+00 0. -1.
        -14    1    4    4    0    0 -0.12458403447E+03 -0.23835254876E+02 -0.20959625797E+03  0.24498957606E+03  0.00000000000E+00 0.  1.
</event>
<event>
12    1  0.8633375E-002  0.1836909E+03  0.7818608E-02  0.1164619E+00
         21   -1    0    0  503  502  0.00000000000E+00  0.00000000000E+00  0.14496311423E+04  0.14496311423E+04  0.00000000000E+00 0. -1.
         21   -1    0    0  501  503 -0.00000000000E+00 -0.00000000000E+00 -0.16102092370E+03  0.16102092370E+03  0.00000000000E+00 0. -1.
          6    2    1    2  501    0  0.34106569358E+02  0.55065501533E+02 -0.10067062646E+03  0.20946821098E+03  0.17189208489E+03 0.  0.
         24    2    3    3    0    0 -0.27183928371E+02  0.81074769869E+02 -0.53065629552E+02  0.12748447551E+03  0.78257563114E+02 0.  0.
         -6    2    1    2    0  502 -0.34106569358E+02 -0.55065501533E+02  0.13892808451E+04  0.14011838551E+04  0.17035099519E+03 0.  0.
        -24    2    5    5    0    0  0.44843508030E+02 -0.46914104005E+02  0.84675353721E+03  0.85286138623E+03  0.78543732958E+02 0.  0.
          5    1    3    3  501    0  0.61290497729E+02 -0.26009268336E+02 -0.47604996912E+02  0.81983735474E+02  0.47000000000E+01 0. -1.
        -13    1    4    4    0    0 -0.14955943626E+01  0.61083134124E+02  0.45912159914E+01  0.61273692081E+02  0.00000000000E+00 0.  1.
         14    1    4    4    0    0 -0.25688334008E+02  0.19991635745E+02 -0.57656845544E+02  0.66210783426E+02  0.00000000000E+00 0. -1.
         -5    1    5    5    0  502 -0.78950077388E+02 -0.81513975283E+01  0.54252730790E+03  0.54832246883E+03  0.47000000000E+01 0.  1.
         11    1    6    6    0    0  0.83131629272E+01 -0.59591287470E+02  0.61129036957E+03  0.61424437006E+03  0.00000000000E+00 0. -1.
        -12    1    6    6    0    0  0.36530345102E+02  0.12677183466E+02  0.23546316764E+03  0.23861701618E+03  0.00000000000E+00 0.  1.
</event>
<event>
12    1  0.8633375E-002  0.1765959E+03  0.7818608E-02  0.1171228E+00
         21   -1    0    0  501  502  0.00000000000E+00  0.00000000000E+00  0.72098476629E+02  0.72098476629E+02  0.00000000000E+00 0. -1.
         21   -1    0    0  502  503 -0.00000000000E+00 -0.00000000000E+00 -0.54540194605E+03  0.54540194605E+03  0.00000000000E+00 0. -1.
         -6    2    1    2    0  503  0.34942418721E+02 -0.19248319600E+02 -0.95473146192E+02  0.20043702352E+03  0.17166364880E+03 0.  0.
        -24    2    3    3    0    0  0.81638082082E+02 -0.11744988753E+02 -0.10101105544E+03  0.15258785018E+03  0.79228135754E+02 0.  0.
          6    2    1    2  501    0 -0.34942418721E+02  0.19248319600E+02 -0.37783032322E+03  0.41706339915E+03  0.17203097201E+03 0.  0.
         24    2    5    5    0    0 -0.73430430313E+02 -0.25221311866E+02 -0.19360676797E+03  0.22362275330E+03  0.80594122117E+02 0.  0.
          5    1    5    5  501    0  0.38488011592E+02  0.44469631465E+02 -0.18422355525E+03  0.19344064585E+03  0.47000000000E+01 0. -1.
        -11    1    6    6    0    0 -0.12542989684E+01 -0.36178475262E+02 -0.42660291514E+02  0.55949582753E+02  0.00000000000E+00 0.  1.
         12    1    6    6    0    0 -0.72176131344E+02  0.10957163396E+02 -0.15094647646E+03  0.16767317055E+03  0.00000000000E+00 0. -1.
         -5    1    3    3    0  503 -0.46695663361E+02 -0.75033308470E+01  0.55379092480E+01  0.47849173340E+02  0.47000000000E+01 0.  1.
         11    1    4    4    0    0  0.11373287946E+02 -0.15439375802E+00  0.13553193742E+02  0.17693630965E+02  0.00000000000E+00 0. -1.
        -12    1    4    4    0    0  0.70264794136E+02 -0.11590594994E+02 -0.11456424918E+03  0.13489421922E+03  0.00000000000E+00 0.  1.
</event>
<event>
12    1  0.8633375E-002  0.2128618E+03  0.7818608E-02  0.1139703E+00
         21   -1    0    0  503  502  0.00000000000E+00  0.00000000000E+00  0.93263677464E+02  0.93263677464E+02  0.00000000000E+00 0. -1.
         21   -1    0    0  501  503 -0.00000000000E+00 -0.00000000000E+00 -0.48483092641E+03  0.48483092641E+03  0.00000000000E+00 0.  1.
          6    2    1    2  501    0 -0.63253399052E+02 -0.10252302096E+03 -0.22113642649E+03  0.30693885611E+03  0.17549410233E+03 0.  0.
         24    2    3    3    0    0 -0.38927785205E+02 -0.84951344420E+02 -0.24111024968E+03  0.27058582435E+03  0.79689600675E+02 0.  0.
         -6    2    1    2    0  502  0.63253399052E+02  0.10252302096E+03 -0.17043082246E+03  0.27115574776E+03  0.17310924869E+03 0.  0.
        -24    2    5    5    0    0 -0.14735471246E+02  0.57270438737E+02 -0.53395609604E+02  0.12334035230E+03  0.94152610765E+02 0.  0.
          5    1    3    3  501    0 -0.24325613847E+02 -0.17571676543E+02  0.19973823194E+02  0.36353031766E+02  0.47000000000E+01 0. -1.
        -11    1    4    4    0    0 -0.62168600353E+02 -0.62691106542E+02 -0.15120516588E+03  0.17509457987E+03  0.00000000000E+00 0.  1.
         12    1    4    4    0    0  0.23240815148E+02 -0.22260237878E+02 -0.89905083802E+02  0.95491244482E+02  0.00000000000E+00 0. -1.
         -5    1    5    5    0  502  0.77988870299E+02  0.45252582226E+02 -0.11703521285E+03  0.14781539546E+03  0.47000000000E+01 0.  1.
         13    1    6    6    0    0 -0.11196921750E+01  0.82490202769E+02 -0.38476437735E+02  0.91029245433E+02  0.00000000000E+00 0. -1.
        -14    1    6    6    0    0 -0.13615779071E+02 -0.25219764032E+02 -0.14919171870E+02  0.32311106865E+02  0.00000000000E+00 0.  1.
</event>
<event>
12    1  0.8633375E-002  0.1857853E+03  0.7818608E-02  0.1162516E+00
         21   -1    0    0  501  502  0.00000000000E+00  0.00000000000E+00  0.35334071308E+03  0.35334071308E+03  0.00000000000E+00 0. -1.
         21   -1    0    0  502  503 -0.00000000000E+00 -0.00000000000E+00 -0.98811600835E+02  0.98811600835E+02  0.00000000000E+00 0.  1.
         -6    2    1    2    0  503 -0.61063813166E+02 -0.26429162420E+02  0.99032372740E+02  0.21053164857E+03  0.17346144902E+03 0.  0.
        -24    2    3    3    0    0 -0.80221433828E+02 -0.31626582242E+02  0.13363356356E+03  0.17036499563E+03  0.61078500937E+02 0.  0.
          6    2    1    2  501    0  0.61063813166E+02  0.26429162420E+02  0.15549673950E+03  0.24162066534E+03  0.17255149961E+03 0.  0.
         24    2    5    5    0    0 -0.33546099755E+02  0.13011484481E+02  0.94560947514E+02  0.12819081720E+03  0.78717680873E+02 0.  0.
          5    1    5    5  501    0  0.94609912921E+02  0.13417677939E+02  0.60935791991E+02  0.11342984814E+03  0.47000000000E+01 0. -1.
        -11    1    6    6    0    0 -0.70899595489E+00  0.21582486967E+02 -0.57067695380E+01  0.22335479343E+02  0.00000000000E+00 0.  1.
         12    1    6    6    0    0 -0.32837103800E+02 -0.85710024857E+01  0.10026771705E+03  0.10585533785E+03  0.00000000000E+00 0. -1.
         -5    1    3    3    0  503  0.19157620662E+02  0.51974198221E+01 -0.34601190822E+02  0.40166652942E+02  0.47000000000E+01 0.  1.
         11    1    4    4    0    0 -0.39854909810E+02 -0.30389204907E+02  0.11587113011E+03  0.12624593619E+03  0.00000000000E+00 0. -1.
        -12    1    4    4    0    0 -0.40366524018E+02 -0.12373773345E+01  0.17762433448E+02  0.44119059441E+02  0.00000000000E+00 0.  1.
</event>
<event>
12    1  0.8633375E-002  0.1836470E+03  0.7818608E-02  0.1164501E+00
         21   -1    0    0  501  502  0.00000000000E+00  0.00000000000E+00  0.12043635834E+04  0.12043635834E+04  0.00000000000E+00 0.  1.
         21   -1    0    0  502  503 -0.00000000000E+00 -0.00000000000E+00 -0.30837511868E+02  0.30837511868E+02  0.00000000000E+00 0.  1.
         -6    2    1    2    0  503  0.52604584735E+02 -0.40012780142E+02  0.39459362659E+03  0.43491242360E+03  0.17051809624E+03 0.  0.
        -24    2    3    3    0    0 -0.34895333895E+01 -0.36348630069E+02  0.35511656442E+03  0.36606110174E+03  0.80991086744E+02 0.  0.
          6    2    1    2  501    0 -0.52604584735E+02  0.40012780142E+02  0.77893244490E+03  0.80028867163E+03  0.17134158663E+03 0.  0.
         24    2    5    5    0    0 -0.88847857918E+02  0.95354842344E+01  0.37866668200E+03  0.39720405102E+03  0.79985841107E+02 0.  0.
          5    1    5    5  501    0  0.36243273183E+02  0.30477295908E+02  0.40026576290E+03  0.40308462060E+03  0.47000000000E+01 0. -1.
        -11    1    6    6    0    0 -0.87942974690E+02  0.16565129804E+02  0.37964463641E+03  0.39004925366E+03  0.00000000000E+00 0.  1.
         12    1    6    6    0    0 -0.90488322793E+00 -0.70296455692E+01 -0.97795441495E+00  0.71547973642E+01  0.00000000000E+00 0. -1.
         -5    1    3    3    0  503  0.56094118125E+02 -0.36641500727E+01  0.39477062173E+02  0.68851321859E+02  0.47000000000E+01 0.  1.
         13    1    4    4    0    0 -0.61204096215E+01 -0.61816990097E+02  0.27601908041E+03  0.28292283830E+03  0.00000000000E+00 0. -1.
        -14    1    4    4    0    0  0.26308762319E+01  0.25468360028E+02  0.79097484010E+02  0.83138263447E+02  0.00000000000E+00 0.  1.
</event>
<event>
12    1  0.8633375E-002  0.2171356E+03  0.7818608E-02  0.1136219E+00
         21   -1    0    0  501  502  0.00000000000E+00  0.00000000000E+00  0.56347060940E+03  0.56347060940E+03  0.00000000000E+00 0. -1.
         21   -1    0    0  502  503 -0.00000000000E+00 -0.00000000000E+00 -0.23123011893E+03  0.23123011893E+03  0.00000000000E+00 0. -1.
         -6    2    1    2    0  503  0.18632002456E+01  0.13101487636E+03 -0.15156109423E+03  0.26479926055E+03  0.17314593198E+03 0.  0.
        -24    2    3    3    0    0  0.60024712132E+01  0.16431583389E+03 -0.13500082716E+03  0.22708427968E+03  0.79412365652E+02 0.  0.
          6    2    1    2  501    0 -0.18632002456E+01 -0.13101487636E+03  0.48380158469E+03  0.52990146778E+03  0.17193959074E+03 0.  0.
         24    2    5    5    0    0  0.26495028227E+02 -0.22559457744E+02  0.11797907385E+03  0.14725938125E+03  0.80965102632E+02 0.  0.
          5    1    5    5  501    0 -0.28358228473E+02 -0.10845541862E+03  0.36582251084E+03  0.38264208653E+03  0.47000000000E+01 0. -1.
        -13    1    6    6    0    0  0.20211069387E+02  0.24680473414E+02  0.80631192688E+02  0.86712180967E+02  0.00000000000E+00 0.  1.
         14    1    6    6    0    0  0.62839588397E+01 -0.47239931158E+02  0.37347881166E+02  0.60547200283E+02  0.00000000000E+00 0. -1.
         -5    1    3    3    0  503 -0.41392709675E+01 -0.33300957529E+02 -0.16560267064E+02  0.37714980866E+02  0.47000000000E+01 0.  1.
         13    1    4    4    0    0 -0.15999190975E+02  0.14182345457E+03 -0.13374468436E+03  0.19559526317E+03  0.00000000000E+00 0. -1.
        -14    1    4    4    0    0  0.22001662189E+02  0.22492379320E+02 -0.12561427978E+01  0.31489016518E+02  0.00000000000E+00 0.  1.
</event>
<event>
12    1  0.8633375E-002  0.1770703E+03  0.7818608E-02  0.1171545E+00
         21   -1    0    0  503  502  0.00000000000E+00  0.00000000000E+00  0.10592330595E+03  0.10592330595E+03  0.00000000000E+00 0.  1.
         21   -1    0    0  501  503 -0.00000000000E+00 -0.00000000000E+00 -0.35804390175E+03  0.35804390175E+03  0.00000000000E+00 0.  1.
          6    2    1    2  501    0 -0.23856478961E+02  0.27157671545E+02 -0.24043251164E+02  0.17522306282E+03  0.16975975113E+03 0.  0.
         24    2    3    3    0    0 -0.47462820575E+02  0.68984910747E+02  0.12401535218E+02  0.11474918616E+03  0.77472191141E+02 0.  0.
         -6    2    1    2    0  502  0.23856478961E+02 -0.27157671545E+02 -0.22807734464E+03  0.28874414489E+03  0.17334138385E+03 0.  0.
        -24    2    5    5    0    0 -0.24157457198E+02  0.54633335346E+01 -0.42534575843E+02  0.94276468677E+02  0.80407907897E+02 0.  0.
          5    1    3    3  501    0  0.23606341615E+02 -0.41827239201E+02 -0.36444786383E+02  0.60473876659E+02  0.47000000000E+01 0. -1.
        -13    1    4    4    0    0 -0.16628201490E+02  0.46352545008E+02  0.43303858699E+02  0.65576517838E+02  0.00000000000E+00 0.  1.
         14    1    4    4    0    0 -0.30834619085E+02  0.22632365739E+02 -0.30902323481E+02  0.49172668319E+02  0.00000000000E+00 0. -1.
         -5    1    5    5    0  502  0.48013936159E+02 -0.32621005080E+02 -0.18554276880E+03  0.19446767621E+03  0.47000000000E+01 0.  1.
         11    1    6    6    0    0  0.52262783333E+01 -0.27388589560E+02  0.62035508001E+01  0.28564538607E+02  0.00000000000E+00 0. -1.
        -12    1    6    6    0    0 -0.29383735532E+02  0.32851923095E+02 -0.48738126643E+02  0.65711930070E+02  0.00000000000E+00 0.  1.
</event>
<event>
12    1  0.8633375E-002  0.5699869E+03  0.7818608E-02  0.9969954E-01
         21   -1    0    0  503  502  0.00000000000E+00  0.00000000000E+00  0.94655495128E+03  0.94655495128E+03  0.00000000000E+00 0.  1.
         21   -1    0    0  501  503 -0.00000000000E+00 -0.00000000000E+00 -0.56688502235E+03  0.56688502235E+03  0.00000000000E+00 0. -1.
          6    2    1    2  501    0  0.52497249008E+03 -0.13799369764E+03 -0.28571650621E+03  0.63758838849E+03  0.17391565565E+03 0.  0.
         24    2    3    3    0    0  0.33020194103E+03 -0.13171002441E+03 -0.24330496564E+03  0.43809934092E+03  0.79704917132E+02 0.  0.
         -6    2    1    2    0  502 -0.52497249008E+03  0.13799369764E+03  0.66538643514E+03  0.87585158514E+03  0.17244858711E+03 0.  0.
        -24    2    5    5    0    0 -0.24816123916E+03  0.81355081495E+02  0.42344670936E+03  0.50384443147E+03  0.79683408217E+02 0.  0.
          5    1    3    3  501    0  0.19477054905E+03 -0.62836732280E+01 -0.42411540574E+02  0.19948904757E+03  0.47000000000E+01 0. -1.
        -11    1    4    4    0    0  0.36415791073E+02 -0.32191056171E+02 -0.91524778007E+01  0.49458485488E+02  0.00000000000E+00 0.  1.
         12    1    4    4    0    0  0.29378614996E+03 -0.99518968244E+02 -0.23415248784E+03  0.38864085543E+03  0.00000000000E+00 0. -1.
         -5    1    5    5    0  502 -0.27681125092E+03  0.56638616148E+02  0.24193972578E+03  0.37200715368E+03  0.47000000000E+01 0.  1.
         11    1    6    6    0    0 -0.85810760844E+02 -0.91987925631E+01  0.15315103608E+03  0.17579347062E+03  0.00000000000E+00 0. -1.
        -12    1    6    6    0    0 -0.16235047832E+03  0.90553874058E+02  0.27029567328E+03  0.32805096085E+03  0.00000000000E+00 0.  1.
</event>
<event>
12    1  0.8633375E-002  0.2643771E+03  0.7818608E-02  0.1104599E+00
         21   -1    0    0  503  502  0.00000000000E+00  0.00000000000E+00  0.41490356648E+03  0.41490356648E+03  0.00000000000E+00 0. -1.
         21   -1    0    0  501  503 -0.00000000000E+00 -0.00000000000E+00 -0.31318961316E+03  0.31318961316E+03  0.00000000000E+00 0.  1.
          6    2    1    2  501    0 -0.19380737935E+03  0.55321601352E+02 -0.19681021717E+03  0.32958989798E+03  0.17109488420E+03 0.  0.
         24    2    3    3    0    0 -0.15298278032E+03  0.98271766225E+02 -0.17875994466E+03  0.26746689993E+03  0.80761089837E+02 0.  0.
         -6    2    1    2    0  502  0.19380737935E+03 -0.55321601352E+02  0.29852417049E+03  0.39850328166E+03  0.17048872474E+03 0.  0.
        -24    2    5    5    0    0  0.57926307898E+02 -0.74092419913E+02  0.10993265880E+03  0.16525479294E+03  0.79867473259E+02 0.  0.
          5    1    3    3  501    0 -0.40824599031E+02 -0.42950164873E+02 -0.18050272511E+02  0.62122998047E+02  0.47000000000E+01 0. -1.
        -11    1    4    4    0    0 -0.50080294399E+02 -0.66527680132E+01 -0.60580306580E+02  0.78881358727E+02  0.00000000000E+00 0.  1.
         12    1    4    4    0    0 -0.10290248592E+03  0.10492453424E+03 -0.11817963808E+03  0.18858554120E+03  0.00000000000E+00 0. -1.
         -5    1    5    5    0  502  0.13588107145E+03  0.18770818561E+02  0.18859151169E+03  0.23324848872E+03  0.47000000000E+01 0.  1.
         13    1    6    6    0    0  0.59790513103E+02 -0.48504539802E+02  0.11568451258E+03  0.13896223332E+03  0.00000000000E+00 0. -1.
        -14    1    6    6    0    0 -0.18642052050E+01 -0.25587880111E+02 -0.57518537802E+01  0.26292559623E+02  0.00000000000E+00 0.  1.
</event>
<event>
12    1  0.8633375E-002  0.1776208E+03  0.7818608E-02  0.1170264E+00
         21   -1    0    0  501  502  0.00000000000E+00  0.00000000000E+00  0.27785320026E+03  0.27785320026E+03  0.00000000000E+00 0.  1.
         21   -1    0    0  502  503 -0.00000000000E+00 -0.00000000000E+00 -0.12257531040E+03  0.12257531040E+03  0.00000000000E+00 0.  1.
         -6    2    1    2    0  503  0.40558502039E+02 -0.15173738917E+02  0.22114206945E+02  0.17843362495E+03  0.17168076748E+03 0.  0.
        -24    2    3    3    0    0  0.58553635363E+02  0.20869746563E+02  0.64637761372E+02  0.11966883660E+03  0.79237085517E+02 0.  0.
          6    2    1    2  501    0 -0.40558502039E+02  0.15173738917E+02  0.13316368292E+03  0.22199488571E+03  0.17226122138E+03 0.  0.
         24    2    5    5    0    0  0.31210817736E+02  0.13463865979E+02  0.18434985038E+02  0.86575082711E+02  0.77459702054E+02 0.  0.
          5    1    5    5  501    0 -0.71769319774E+02  0.17098729377E+01  0.11472869788E+03  0.13541980299E+03  0.47000000000E+01 0. -1.
        -13    1    6    6    0    0  0.14265478122E+02 -0.65840652543E+01  0.45941047807E+02  0.48553410333E+02  0.00000000000E+00 0.  1.
         14    1    6    6    0    0  0.16945339614E+02  0.20047931234E+02 -0.27506062769E+02  0.38021672378E+02  0.00000000000E+00 0. -1.
         -5    1    3    3    0  503 -0.17995133325E+02 -0.36043485480E+02 -0.42523554427E+02  0.58764788352E+02  0.47000000000E+01 0.  1.
         11    1    4    4    0    0  0.33044781243E+02 -0.28895158804E+02  0.20603538760E+02  0.48491170115E+02  0.00000000000E+00 0. -1.
        -12    1    4    4    0    0  0.25508854121E+02  0.49764905367E+02  0.44034222612E+02  0.71177666482E+02  0.00000000000E+00 0.  1.
</event>
<event>
12    1  0.8633375E-002  0.1810716E+03  0.7818608E-02  0.1166845E+00
         21   -1    0    0  503  502  0.00000000000E+00  0.00000000000E+00  0.44311299199E+02  0.44311299199E+02  0.00000000000E+00 0.  1.
         21   -1    0    0  501  503 -0.00000000000E+00 -0.00000000000E+00 -0.91008122192E+03  0.91008122192E+03  0.00000000000E+00 0.  1.
          6    2    1    2  501    0 -0.53706438444E+02 -0.19066221451E+02 -0.22607768141E+03  0.28965161712E+03  0.17186924953E+03 0.  0.
         24    2    3    3    0    0 -0.57269264799E+01  0.49361677204E+02 -0.96142289799E+02  0.13508866271E+03  0.80846979168E+02 0.  0.
         -6    2    1    2    0  502  0.53706438444E+02  0.19066221451E+02 -0.63969224131E+03  0.66474090400E+03  0.17154125897E+03 0.  0.
        -24    2    5    5    0    0  0.90041655884E+02 -0.21689110130E+01 -0.57565041138E+03  0.58796444369E+03  0.78845335642E+02 0.  0.
          5    1    3    3  501    0 -0.47979511964E+02 -0.68427898655E+02 -0.12993539162E+03  0.15456295441E+03  0.47000000000E+01 0. -1.
        -13    1    4    4    0    0 -0.16254605874E+02  0.68380356236E+02 -0.86093594383E+02  0.11114041715E+03  0.00000000000E+00 0.  1.
         14    1    4    4    0    0  0.10527679394E+02 -0.19018679031E+02 -0.10048695416E+02  0.23948245553E+02  0.00000000000E+00 0. -1.
         -5    1    5    5    0  502 -0.36335217440E+02  0.21235132464E+02 -0.64041829926E+02  0.76776460308E+02  0.47000000000E+01 0.  1.
         11    1    6    6    0    0  0.86921546018E+01  0.46886977696E+00 -0.24901974413E+01  0.90539755790E+01  0.00000000000E+00 0. -1.
        -12    1    6    6    0    0  0.81349501283E+02 -0.26377807900E+01 -0.57316021394E+03  0.57891046811E+03  0.00000000000E+00 0.  1.
</event>
<event>
12    1  0.8633375E-002  0.2366752E+03  0.7818608E-02  0.1122070E+00
         21   -1    0    0  501  502  0.00000000000E+00  0.00000000000E+00  0.18511345255E+04  0.18511345255E+04  0.00000000000E+00 0.  1.
         21   -1    0    0  502  503 -0.00000000000E+00 -0.00000000000E+00 -0.30486194120E+02  0.30486194120E+02  0.00000000000E+00 0.  1.
         -6    2    1    2    0  503 -0.98836055175E+02  0.12937885979E+03  0.99737383792E+03  0.10250705976E+04  0.17177806117E+03 0.  0.
        -24    2    3    3    0    0 -0.70041828719E-01  0.74430303863E+01  0.39277869237E+03  0.40042633730E+03  0.77529006280E+02 0.  0.
          6    2    1    2  501    0  0.98836055175E+02 -0.12937885979E+03  0.82327449348E+03  0.85655012205E+03  0.17143443300E+03 0.  0.
         24    2    5    5    0    0  0.58974490034E+02 -0.15715052294E+03  0.69365793377E+03  0.71804830907E+03  0.79106053750E+02 0.  0.
          5    1    5    5  501    0  0.39861565140E+02  0.27771663150E+02  0.12961655970E+03  0.13850181298E+03  0.47000000000E+01 0. -1.
        -13    1    6    6    0    0  0.73091546564E+02 -0.14395124300E+03  0.65770838677E+03  0.67723308880E+03  0.00000000000E+00 0.  1.
         14    1    6    6    0    0 -0.14117056529E+02 -0.13199279941E+02  0.35949547003E+02  0.40815220271E+02  0.00000000000E+00 0. -1.
         -5    1    3    3    0  503 -0.98766013346E+02  0.12193582941E+03  0.60459514555E+03  0.62464426028E+03  0.47000000000E+01 0.  1.
         13    1    4    4    0    0 -0.34497016416E+02 -0.65287382012E+01  0.11694474773E+03  0.12210136193E+03  0.00000000000E+00 0. -1.
        -14    1    4    4    0    0  0.34426974587E+02  0.13971768587E+02  0.27583394464E+03  0.27832497537E+03  0.00000000000E+00 0.  1.
</event>
<event>
12    1  0.8633375E-002  0.2458740E+03  0.7818608E-02  0.1116236E+00
         21   -1    0    0  503  502  0.00000000000E+00  0.00000000000E+00  0.94601684101E+03  0.94601684101E+03  0.00000000000E+00 0. -1.
         21   -1    0    0  501  503 -0.00000000000E+00 -0.00000000000E+00 -0.71137685996E+02  0.71137685996E+02  0.00000000000E+00 0.  1.
          6    2    1    2  501    0 -0.10655220583E+03 -0.13800862170E+03  0.60338311583E+03  0.65087032569E+03  0.17076663656E+03 0.  0.
         24    2    3    3    0    0 -0.46827658896E+02 -0.42894268087E+02  0.12819626986E+03  0.16256878939E+03  0.77211267347E+02 0.  0.
         -6    2    1    2    0  502  0.10655220583E+03  0.13800862170E+03  0.27149603918E+03  0.36628420132E+03  0.17336165842E+03 0.  0.
        -24    2    5    5    0    0  0.58783326181E+02  0.52534084891E+02  0.23714137312E+03  0.26240881739E+03  0.80044032165E+02 0.  0.
          5    1    3    3  501    0 -0.59724546932E+02 -0.95114353614E+02  0.47518684597E+03  0.48830153630E+03  0.47000000000E+01 0. -1.
        -11    1    4    4    0    0 -0.11112944715E+02  0.98622124143E+01 -0.43710054894E+01  0.15487622895E+02  0.00000000000E+00 0.  1.
         12    1    4    4    0    0 -0.35714714181E+02 -0.52756480501E+02  0.13256727535E+03  0.14708116650E+03  0.00000000000E+00 0. -1.
         -5    1    5    5    0  502  0.47768879648E+02  0.85474536809E+02  0.34354666060E+02  0.10387538393E+03  0.47000000000E+01 0.  1.
         11    1    6    6    0    0 -0.18158071603E+02  0.59640502274E+01  0.21517207902E+02  0.28779779279E+02  0.00000000000E+00 0. -1.
        -12    1    6    6    0    0  0.76941397783E+02  0.46570034664E+02  0.21562416522E+03  0.23362903811E+03  0.00000000000E+00 0.  1.
</event>
<event>
12    1  0.8633375E-002  0.4102191E+03  0.7818608E-02  0.1040435E+00
         21   -1    0    0  501  502  0.00000000000E+00  0.00000000000E+00  0.80095674202E+03  0.80095674202E+03  0.00000000000E+00 0. -1.
         21   -1    0    0  502  503 -0.00000000000E+00 -0.00000000000E+00 -0.35176809858E+03  0.35176809858E+03  0.00000000000E+00 0.  1.
         -6    2    1    2    0  503 -0.32640605104E+03  0.17746346797E+03 -0.14198631830E+03  0.43409655701E+03  0.17391237336E+03 0.  0.
        -24    2    3    3    0    0 -0.16527443375E+03  0.16061537035E+03 -0.54773636706E+02  0.25004385175E+03  0.80055236407E+02 0.  0.
          6    2    1    2  501    0  0.32640605104E+03 -0.17746346797E+03  0.59117496174E+03  0.71862828359E+03  0.17001347584E+03 0.  0.
         24    2    5    5    0    0  0.19522450996E+03 -0.81077611692E+02  0.23311447411E+03  0.32527318599E+03  0.82304915243E+02 0.  0.
          5    1    5    5  501    0  0.13118154108E+03 -0.96385856273E+02  0.35806048763E+03  0.39335509760E+03  0.47000000000E+01 0. -1.
        -11    1    6    6    0    0  0.11988656109E+03 -0.32231426474E+02  0.18667907803E+03  0.22418905093E+03  0.00000000000E+00 0.  1.
         12    1    6    6    0    0  0.75337948873E+02 -0.48846185218E+02  0.46435396081E+02  0.10108413506E+03  0.00000000000E+00 0. -1.
         -5    1    3    3    0  503 -0.16113161729E+03  0.16848097614E+02 -0.87212681590E+02  0.18405270526E+03  0.47000000000E+01 0.  1.
         13    1    4    4    0    0 -0.16446673867E+03  0.12077997275E+03 -0.48114882498E+02  0.20964768509E+03  0.00000000000E+00 0. -1.
        -14    1    4    4    0    0 -0.80769508342E+00  0.39835397603E+02 -0.66587542073E+01  0.40396166664E+02  0.00000000000E+00 0.  1.
</event>
<event>
12    1  0.8633375E-002  0.1795825E+03  0.7818608E-02  0.1168490E+00
         21   -1    0    0  501  502  0.00000000000E+00  0.00000000000E+00  0.14799735322E+04  0.14799735322E+04  0.00000000000E+00 0. -1.
         21   -1    0    0  502  503 -0.00000000000E+00 -0.00000000000E+00 -0.12800558375E+03  0.12800558375E+03  0.00000000000E+00 0. -1.
         -6    2    1    2    0  503 -0.32789632274E+02 -0.37541383616E+02 -0.56495259631E+02  0.18825936663E+03  0.17252640173E+03 0.  0.
        -24    2    3    3    0    0  0.21096080454E+02  0.32406376369E+02 -0.43851474803E+02  0.98937955660E+02  0.79815721432E+02 0.  0.
          6    2    1    2  501    0  0.32789632274E+02  0.37541383616E+02  0.14084632080E+04  0.14197197493E+04  0.17132145989E+03 0.  0.
         24    2    5    5    0    0  0.90220327625E+01 -0.46101559846E+02  0.73824640843E+03  0.74386940397E+03  0.78276303590E+02 0.  0.
          5    1    5    5  501    0  0.23767599512E+02  0.83642943462E+02  0.67021679960E+03  0.67585034530E+03  0.47000000000E+01 0. -1.
        -13    1    6    6    0    0  0.24224470171E+02  0.71983347692E+01  0.97203303094E+02  0.10043467086E+03  0.00000000000E+00 0.  1.
         14    1    6    6    0    0 -0.15202437409E+02 -0.53299894615E+02  0.64104310534E+03  0.64343473311E+03  0.00000000000E+00 0. -1.
         -5    1    3    3    0  503 -0.53885712729E+02 -0.69947759985E+02 -0.12643784828E+02  0.89321410972E+02  0.47000000000E+01 0.  1.
         13    1    4    4    0    0 -0.20583485888E+02  0.14305749789E+02  0.11284989848E+02  0.27489731978E+02  0.00000000000E+00 0. -1.
        -14    1    4    4    0    0  0.41679566343E+02  0.18100626580E+02 -0.55136464651E+02  0.71448223682E+02  0.00000000000E+00 0.  1.
</event>
<event>
12    1  0.8633375E-002  0.2575520E+03  0.7818608E-02  0.1109455E+00
         21   -1    0    0  501  502  0.00000000000E+00  0.00000000000E+00  0.20704274191E+04  0.20704274191E+04  0.00000000000E+00 0. -1.
         21   -1    0    0  502  503 -0.00000000000E+00 -0.00000000000E+00 -0.36333145495E+02  0.36333145495E+02  0.00000000000E+00 0.  1.
         -6    2    1    2    0  503 -0.18052735498E+03  0.50801034386E+02  0.63701377809E+03  0.68710959689E+03  0.17652811016E+03 0.  0.
        -24    2    3    3    0    0 -0.15293568851E+03  0.26478024761E+02  0.62376952576E+03  0.64773436261E+03  0.79880990335E+02 0.  0.
          6    2    1    2  501    0  0.18052735498E+03 -0.50801034386E+02  0.13970804955E+04  0.14196509677E+04  0.16853512440E+03 0.  0.
         24    2    5    5    0    0  0.15709099319E+03  0.15936593997E+02  0.10761150703E+04  0.10909503923E+04  0.84956216541E+02 0.  0.
          5    1    5    5  501    0  0.23436361790E+02 -0.66737628383E+02  0.32096542519E+03  0.32870057539E+03  0.47000000000E+01 0. -1.
        -11    1    6    6    0    0  0.39730817022E+02 -0.78912461617E+01  0.10607280892E+03  0.11354404599E+03  0.00000000000E+00 0.  1.
         12    1    6    6    0    0  0.11736017616E+03  0.23827840159E+02  0.97004226136E+03  0.97740634628E+03  0.00000000000E+00 0. -1.
         -5    1    3    3    0  503 -0.27591666462E+02  0.24323009624E+02  0.13244252328E+02  0.39375234286E+02  0.47000000000E+01 0.  1.
         11    1    4    4    0    0 -0.90298105020E+02  0.53688122969E+02  0.41439676962E+03  0.42750537422E+03  0.00000000000E+00 0. -1.
        -12    1    4    4    0    0 -0.62637583494E+02 -0.27210098208E+02  0.20937275615E+03  0.22022898839E+03  0.00000000000E+00 0.  1.
</event>
<event>
12    1  0.8633375E-002  0.1920625E+03  0.7818608E-02  0.1157996E+00
         21   -1    0    0  501  502  0.00000000000E+00  0.00000000000E+00  0.13630525572E+03  0.13630525572E+03  0.00000000000E+00 0.  1.
         21   -1    0    0  502  503 -0.00000000000E+00 -0.00000000000E+00 -0.39488254796E+03  0.39488254796E+03  0.00000000000E+00 0. -1.
         -6    2    1    2    0  503  0.32315460819E+02 -0.79507989731E+02 -0.28468150044E+03  0.34341166561E+03  0.17182027223E+03 0.  0.
        -24    2    3    3    0    0  0.61041898172E+02 -0.97572423441E+02 -0.26521459122E+03  0.30400884182E+03  0.94000560433E+02 0.  0.
          6    2    1    2  501    0 -0.32315460819E+02  0.79507989731E+02  0.26104208200E+02  0.18777613807E+03  0.16496253788E+03 0.  0.
         24    2    5    5    0    0 -0.37812816523E+02  0.75055896807E+02  0.74945738728E+02  0.13820167735E+03  0.80122675503E+02 0.  0.
          5    1    5    5  501    0  0.54973557041E+01  0.44520929237E+01 -0.48841530528E+02  0.49574460718E+02  0.47000000000E+01 0. -1.
        -11    1    6    6    0    0 -0.33104385211E+01  0.31505112790E+02  0.76309216528E+02  0.82623408682E+02  0.00000000000E+00 0.  1.
         12    1    6    6    0    0 -0.34502378002E+02  0.43550784017E+02 -0.13634778006E+01  0.55578268667E+02  0.00000000000E+00 0. -1.
         -5    1    3    3    0  503 -0.28726437353E+02  0.18064433710E+02 -0.19466909220E+02  0.39402823793E+02  0.47000000000E+01 0.  1.
         13    1    4    4    0    0  0.55798271419E+02 -0.65039715511E+02 -0.25574822261E+03  0.26972349741E+03  0.00000000000E+00 0. -1.
        -14    1    4    4    0    0  0.52436267533E+01 -0.32532707930E+02 -0.94663686092E+01  0.34285344411E+02  0.00000000000E+00 0.  1.
</event>
<event>
12    1  0.8633375E-002  0.1863411E+03  0.7818608E-02  0.1165323E+00
         21   -1    0    0  503  502  0.00000000000E+00  0.00000000000E+00  0.28536868747E+03  0.28536868747E+03  0.00000000000E+00 0.  1.
         21   -1    0    0  501  503 -0.00000000000E+00 -0.00000000000E+00 -0.13412081966E+03  0.13412081966E+03  0.00000000000E+00 0.  1.
          6    2    1    2  501    0 -0.35788452845E+02 -0.60669452591E+02 -0.11401540071E+02  0.17214795933E+03  0.15666310654E+03 0.  0.
         24    2    3    3    0    0 -0.73133447219E+02 -0.29947601107E+02  0.20556311604E+02  0.11399406825E+03  0.79540717473E+02 0.  0.
         -6    2    1    2    0  502  0.35788452845E+02  0.60669452591E+02  0.16264940788E+03  0.24734154780E+03  0.17251497196E+03 0.  0.
        -24    2    5    5    0    0  0.50177679622E+02 -0.17083339504E+02  0.12935716965E+03  0.16141710627E+03  0.80700463668E+02 0.  0.
          5    1    3    3  501    0  0.37344994374E+02 -0.30721851483E+02 -0.31957851675E+02  0.58153891074E+02  0.47000000000E+01 0. -1.
        -11    1    4    4    0    0 -0.52444566872E+02 -0.54827165164E+02  0.40081522992E+00  0.75872335453E+02  0.00000000000E+00 0.  1.
         12    1    4    4    0    0 -0.20688880347E+02  0.24879564056E+02  0.20155496374E+02  0.38121732800E+02  0.00000000000E+00 0. -1.
         -5    1    5    5    0  502 -0.14389226776E+02  0.77752792095E+02  0.33292238230E+02  0.85924441530E+02  0.47000000000E+01 0.  1.
         13    1    6    6    0    0 -0.99491004059E+01  0.21540870805E+02  0.44886341714E+02  0.50771816852E+02  0.00000000000E+00 0. -1.
        -14    1    6    6    0    0  0.60126780028E+02 -0.38624210310E+02  0.84470827934E+02  0.11064528942E+03  0.00000000000E+00 0.  1.
</event>
<event>
12    1  0.8633375E-002  0.2098463E+03  0.7818608E-02  0.1142082E+00
         21   -1    0    0  501  502  0.00000000000E+00  0.00000000000E+00  0.35794115224E+03  0.35794115224E+03  0.00000000000E+00 0.  1.
         21   -1    0    0  502  503 -0.00000000000E+00 -0.00000000000E+00 -0.13083377291E+03  0.13083377291E+03  0.00000000000E+00 0.  1.
         -6    2    1    2    0  503  0.20131543492E+01  0.11607651396E+03  0.49072822227E+02  0.21358084815E+03  0.17242629420E+03 0.  0.
        -24    2    3    3    0    0  0.27126248969E+02  0.16533135412E+02 -0.26025942332E+02  0.86295867998E+02  0.75897623214E+02 0.  0.
          6    2    1    2  501    0 -0.20131543492E+01 -0.11607651396E+03  0.17803455710E+03  0.27519407699E+03  0.17480751301E+03 0.  0.
         24    2    5    5    0    0 -0.34291160826E+02 -0.12614548398E+03  0.84733448625E+02  0.17584398539E+03  0.81564594285E+02 0.  0.
          5    1    5    5  501    0  0.32278006477E+02  0.10068970018E+02  0.93301108473E+02  0.99350091604E+02  0.47000000000E+01 0. -1.
        -13    1    6    6    0    0 -0.48128966289E+02 -0.58554014563E+02  0.14080930903E+02  0.77092429152E+02  0.00000000000E+00 0.  1.
         14    1    6    6    0    0  0.13837805463E+02 -0.67591469420E+02  0.70652517722E+02  0.98751556235E+02  0.00000000000E+00 0. -1.
         -5    1    3    3    0  503 -0.25113094619E+02  0.99543378553E+02  0.75098764559E+02  0.12728498016E+03  0.47000000000E+01 0.  1.
         11    1    4    4    0    0 -0.25231054020E+02  0.71028503636E+01  0.17715390352E+01  0.26271561065E+02  0.00000000000E+00 0. -1.
        -12    1    4    4    0    0  0.52357302989E+02  0.94302850482E+01 -0.27797481367E+02  0.60024306932E+02  0.00000000000E+00 0.  1.
</event>
<event>
12    1  0.8633375E-002  0.2096723E+03  0.7818608E-02  0.1141923E+00
         21   -1    0    0  503  502  0.00000000000E+00  0.00000000000E+00  0.87381322993E+03  0.87381322993E+03  0.00000000000E+00 0. -1.
         21   -1    0    0  501  503 -0.00000000000E+00 -0.00000000000E+00 -0.11001701667E+03  0.11001701667E+03  0.00000000000E+00 0. -1.
          6    2    1    2  501    0 -0.11759932344E+03 -0.10189696196E+02  0.18954366912E+02  0.21003967718E+03  0.17269617014E+03 0.  0.
         24    2    3    3    0    0 -0.10796437803E+03 -0.66946209390E+02  0.73719119184E+01  0.15112976947E+03  0.81533798254E+02 0.  0.
         -6    2    1    2    0  502  0.11759932344E+03  0.10189696196E+02  0.74484184635E+03  0.77379056942E+03  0.17328888731E+03 0.  0.
        -24    2    5    5    0    0 -0.80128585020E+01 -0.28969365993E+01  0.32561865481E+03  0.33593231092E+03  0.82160884958E+02 0.  0.
          5    1    3    3  501    0 -0.96349454031E+01  0.56756513194E+02  0.11582454994E+02  0.58909907711E+02  0.47000000000E+01 0. -1.
        -11    1    4    4    0    0  0.57483124020E+01 -0.30891846066E+02 -0.18916321602E+01  0.31479001271E+02  0.00000000000E+00 0.  1.
         12    1    4    4    0    0 -0.11371269043E+03 -0.36054363324E+02  0.92635440786E+01  0.11965076819E+03  0.00000000000E+00 0. -1.
         -5    1    5    5    0  502  0.12561218194E+03  0.13086632796E+02  0.41922319154E+03  0.43785825850E+03  0.47000000000E+01 0.  1.
         13    1    6    6    0    0  0.28917388891E+02 -0.25925765474E+02  0.14078065959E+03  0.14603956590E+03  0.00000000000E+00 0. -1.
        -14    1    6    6    0    0 -0.36930247393E+02  0.23028828875E+02  0.18483799522E+03  0.18989274502E+03  0.00000000000E+00 0.  1.
</event>
<event>
12    1  0.8633375E-002  0.2204445E+03  0.7818608E-02  0.1133564E+00
         21   -1    0    0  501  502  0.00000000000E+00  0.00000000000E+00  0.11245080172E+04  0.11245080172E+04  0.00000000000E+00 0.  1.
         21   -1    0    0  502  503 -0.00000000000E+00 -0.00000000000E+00 -0.13600092287E+03  0.13600092287E+03  0.00000000000E+00 0. -1.
         -6    2    1    2    0  503 -0.12565919847E+03 -0.64740227672E+02 -0.26336712577E+02  0.22201221126E+03  0.16915752505E+03 0.  0.
        -24    2    3    3    0    0 -0.78317522605E+02 -0.27859315849E+02  0.49503492843E+02  0.12518627110E+03  0.79443255476E+02 0.  0.
          6    2    1    2  501    0  0.12565919847E+03  0.64740227672E+02  0.10148438069E+04  0.10384967288E+04  0.16907386580E+03 0.  0.
         24    2    5    5    0    0  0.54364613261E+02  0.99276551481E+02  0.71638679937E+03  0.72966934840E+03  0.79974788765E+02 0.  0.
          5    1    5    5  501    0  0.71294585209E+02 -0.34536323809E+02  0.29845700749E+03  0.30882738036E+03  0.47000000000E+01 0. -1.
        -13    1    6    6    0    0 -0.18692431131E+01  0.66306475066E+02  0.47604912028E+03  0.48064832011E+03  0.00000000000E+00 0.  1.
         14    1    6    6    0    0  0.56233856374E+02  0.32970076415E+02  0.24033767909E+03  0.24902102829E+03  0.00000000000E+00 0. -1.
         -5    1    3    3    0  503 -0.47341675865E+02 -0.36880911824E+02 -0.75840205420E+02  0.96825940165E+02  0.47000000000E+01 0.  1.
         13    1    4    4    0    0 -0.38155242952E+01 -0.33740595121E+02  0.35550348045E+02  0.49161094688E+02  0.00000000000E+00 0. -1.
        -14    1    4    4    0    0 -0.74501998309E+02  0.58812792729E+01  0.13953144798E+02  0.76025176407E+02  0.00000000000E+00 0.  1.
</event>
<event>
12    1  0.8633375E-002  0.2167576E+03  0.7818608E-02  0.1136591E+00
         21   -1    0    0  503  502  0.00000000000E+00  0.00000000000E+00  0.43570001964E+03  0.43570001964E+03  0.00000000000E+00 0.  1.
         21   -1    0    0  501  503 -0.00000000000E+00 -0.00000000000E+00 -0.24295500947E+03  0.24295500947E+03  0.00000000000E+00 0.  1.
          6    2    1    2  501    0  0.10764769407E+03  0.72358487696E+02 -0.15719598690E+03  0.26775819160E+03  0.17366661766E+03 0.  0.
         24    2    3    3    0    0  0.94115568003E+02  0.99094176895E+02 -0.17415098184E+03  0.23300941657E+03  0.72714700703E+02 0.  0.
         -6    2    1    2    0  502 -0.10764769407E+03 -0.72358487696E+02  0.34994099707E+03  0.41089683751E+03  0.17191199163E+03 0.  0.
        -24    2    5    5    0    0 -0.86719693993E+02 -0.89251029896E+02  0.35379964299E+03  0.38332296732E+03  0.79222839080E+02 0.  0.
          5    1    3    3  501    0  0.13532126063E+02 -0.26735689199E+02  0.16954994938E+02  0.34748775030E+02  0.47000000000E+01 0. -1.
        -11    1    4    4    0    0  0.12064959079E+02  0.52798070138E+02 -0.33371449351E+02  0.63614880961E+02  0.00000000000E+00 0.  1.
         12    1    4    4    0    0  0.82050608924E+02  0.46296106757E+02 -0.14077953249E+03  0.16939453561E+03  0.00000000000E+00 0. -1.
         -5    1    5    5    0  502 -0.20928000073E+02  0.16892542200E+02 -0.38586459168E+01  0.27573870192E+02  0.47000000000E+01 0.  1.
         11    1    6    6    0    0 -0.13701300097E+02 -0.17749214705E+01  0.25445674916E+01  0.14048159818E+02  0.00000000000E+00 0. -1.
        -12    1    6    6    0    0 -0.73018393896E+02 -0.87476108425E+02  0.35125507550E+03  0.36927480750E+03  0.00000000000E+00 0.  1.
</event>
<event>
12    1  0.8633375E-002  0.2329288E+03  0.7818608E-02  0.1124608E+00
         21   -1    0    0  501  502  0.00000000000E+00  0.00000000000E+00  0.15231726462E+03  0.15231726462E+03  0.00000000000E+00 0.  1.
         21   -1    0    0  502  503 -0.00000000000E+00 -0.00000000000E+00 -0.36774198672E+03  0.36774198672E+03  0.00000000000E+00 0.  1.
         -6    2    1    2    0  503  0.14965590130E+03  0.46912597570E+02 -0.15397960066E+03  0.27916228536E+03  0.17211677299E+03 0.  0.
        -24    2    3    3    0    0  0.12692175821E+03 -0.54829852410E+01 -0.16240469527E+03  0.22123810579E+03  0.80198619525E+02 0.  0.
          6    2    1    2  501    0 -0.14965590130E+03 -0.46912597570E+02 -0.61445121435E+02  0.24089696598E+03  0.17221546000E+03 0.  0.
         24    2    5    5    0    0 -0.72698215882E+02  0.35399474515E+02 -0.61380810832E+02  0.12811462387E+03  0.78151132571E+02 0.  0.
          5    1    5    5  501    0 -0.76957685414E+02 -0.82312072085E+02 -0.64310603151E-01  0.11278234211E+03  0.47000000000E+01 0. -1.
        -13    1    6    6    0    0 -0.10000444374E+02 -0.24043417771E+02 -0.15130042329E+02  0.30116656632E+02  0.00000000000E+00 0.  1.
         14    1    6    6    0    0 -0.62697771507E+02  0.59442892286E+02 -0.46250768503E+02  0.97997967236E+02  0.00000000000E+00 0. -1.
         -5    1    3    3    0  503  0.22734143085E+02  0.52395582811E+02  0.84250946050E+01  0.57924179572E+02  0.47000000000E+01 0.  1.
         11    1    4    4    0    0  0.14054312047E+02  0.64692442637E+01 -0.78714200945E+02  0.80220323104E+02  0.00000000000E+00 0. -1.
        -12    1    4    4    0    0  0.11286744616E+03 -0.11952229505E+02 -0.83690494325E+02  0.14101778269E+03  0.00000000000E+00 0.  1.
</event>
<event>
12    1  0.8633375E-002  0.2343689E+03  0.7818608E-02  0.1123797E+00
         21   -1    0    0  501  502  0.00000000000E+00  0.00000000000E+00  0.27787172224E+03  0.27787172224E+03  0.00000000000E+00 0.  1.
         21   -1    0    0  502  503 -0.00000000000E+00 -0.00000000000E+00 -0.34221136911E+03  0.34221136911E+03  0.00000000000E+00 0.  1.
         -6    2    1    2    0  503  0.85480946691E+02 -0.13289007448E+03 -0.23436988701E+03  0.33144839800E+03  0.17309544320E+03 0.  0.
        -24    2    3    3    0    0  0.96300260442E+02 -0.73419336128E+02 -0.80816097747E+02  0.16635847563E+03  0.80496966909E+02 0.  0.
          6    2    1    2  501    0 -0.85480946691E+02  0.13289007448E+03  0.17003024014E+03  0.28863469336E+03  0.17156030866E+03 0.  0.
         24    2    5    5    0    0 -0.96232744764E+02  0.36904577310E+02  0.12744393597E+03  0.18297249514E+03  0.81328274128E+02 0.  0.
          5    1    5    5  501    0  0.10751798073E+02  0.95985497170E+02  0.42586304172E+02  0.10566219822E+03  0.47000000000E+01 0. -1.
        -13    1    6    6    0    0 -0.64776238004E+02  0.41347493887E+02  0.33554376041E+02  0.83853875356E+02  0.00000000000E+00 0.  1.
         14    1    6    6    0    0 -0.31456506760E+02 -0.44429165775E+01  0.93889559926E+02  0.99118619786E+02  0.00000000000E+00 0. -1.
         -5    1    3    3    0  503 -0.10819313751E+02 -0.59470738351E+02 -0.15355378926E+03  0.16508992237E+03  0.47000000000E+01 0.  1.
         11    1    4    4    0    0  0.12163905567E+02  0.17174356937E+02 -0.17926874194E+02  0.27645830666E+02  0.00000000000E+00 0. -1.
        -12    1    4    4    0    0  0.84136354875E+02 -0.90593693066E+02 -0.62889223553E+02  0.13871264497E+03  0.00000000000E+00 0.  1.
</event>
<event>
12    1  0.8633375E-002  0.4317131E+03  0.7818608E-02  0.1033435E+00
         21   -1    0    0  503  502  0.00000000000E+00  0.00000000000E+00  0.15986075017E+03  0.15986075017E+03  0.00000000000E+00 0.  1.
         21   -1    0    0  501  503 -0.00000000000E+00 -0.00000000000E+00 -0.15779645272E+04  0.15779645272E+04  0.00000000000E+00 0. -1.
          6    2    1    2  501    0 -0.38993862865E+03 -0.69378290915E+02 -0.11543247987E+04  0.12319047515E+04  0.16810144139E+03 0.  0.
         24    2    3    3    0    0 -0.31751119766E+03 -0.31920180578E+02 -0.10434392493E+04  0.10941856974E+04  0.81514507842E+02 0.  0.
         -6    2    1    2    0  502  0.38993862865E+03  0.69378290915E+02 -0.26377897836E+03  0.50592052586E+03  0.17178692528E+03 0.  0.
        -24    2    5    5    0    0  0.16327201323E+03  0.89644064711E+02 -0.11256474624E+03  0.23265089687E+03  0.82230219963E+02 0.  0.
          5    1    3    3  501    0 -0.72427430988E+02 -0.37458110337E+02 -0.11088554943E+03  0.13771905410E+03  0.47000000000E+01 0. -1.
        -11    1    4    4    0    0 -0.21151164361E+03  0.15232629190E+02 -0.62709131093E+03  0.66197637466E+03  0.00000000000E+00 0.  1.
         12    1    4    4    0    0 -0.10599955406E+03 -0.47152809768E+02 -0.41634793835E+03  0.43220932278E+03  0.00000000000E+00 0. -1.
         -5    1    5    5    0  502  0.22666661542E+03 -0.20265773796E+02 -0.15121423212E+03  0.27326962899E+03  0.47000000000E+01 0.  1.
         13    1    6    6    0    0  0.16335755228E+03  0.10102247351E+03 -0.10408776807E+03  0.21846165225E+03  0.00000000000E+00 0. -1.
        -14    1    6    6    0    0 -0.85539056697E-01 -0.11378408803E+02 -0.84769781682E+01  0.14189244613E+02  0.00000000000E+00 0.  1.
</event>
<event>
12    1  0.8633375E-002  0.2122729E+03  0.7818608E-02  0.1140618E+00
         21   -1    0    0  503  502  0.00000000000E+00  0.00000000000E+00  0.12708268412E+04  0.12708268412E+04  0.00000000000E+00 0.  1.
         21   -1    0    0  501  503 -0.00000000000E+00 -0.00000000000E+00 -0.81666051161E+02  0.81666051161E+02  0.00000000000E+00 0.  1.
          6    2    1    2  501    0 -0.10091629095E+03 -0.63954262678E+02  0.79471709558E+02  0.22268332855E+03  0.17028759997E+03 0.  0.
         24    2    3    3    0    0 -0.98121872910E+02 -0.97373805000E+02  0.93818147123E+02  0.18590582385E+03  0.81544900324E+02 0.  0.
         -6    2    1    2    0  502  0.10091629095E+03  0.63954262678E+02  0.11096890804E+04  0.11298095638E+04  0.17545811362E+03 0.  0.
        -24    2    5    5    0    0  0.36392139397E+02 -0.16638575659E+02  0.28666854993E+03  0.30032571500E+03  0.80096489068E+02 0.  0.
          5    1    3    3  501    0 -0.27944180372E+01  0.33419542322E+02 -0.14346437565E+02  0.36777504701E+02  0.47000000000E+01 0. -1.
        -11    1    4    4    0    0 -0.36724879670E+02 -0.30086382145E+02 -0.92361000200E+01  0.48365408309E+02  0.00000000000E+00 0.  1.
         12    1    4    4    0    0 -0.61396993240E+02 -0.67287422855E+02  0.10305424714E+03  0.13754041554E+03  0.00000000000E+00 0. -1.
         -5    1    5    5    0  502  0.64524151550E+02  0.80592838337E+02  0.82302053050E+03  0.82948384876E+03  0.47000000000E+01 0.  1.
         11    1    6    6    0    0  0.13431217453E+02 -0.14530585666E+02  0.27259564308E+03  0.27331286129E+03  0.00000000000E+00 0. -1.
        -12    1    6    6    0    0  0.22960921944E+02 -0.21079899927E+01  0.14072906858E+02  0.27012853713E+02  0.00000000000E+00 0.  1.
</event>
<event>
12    1  0.8633375E-002  0.1945288E+03  0.7818608E-02  0.1154498E+00
         21   -1    0    0  503  502  0.00000000000E+00  0.00000000000E+00  0.42399504658E+03  0.42399504658E+03  0.00000000000E+00 0. -1.
         21   -1    0    0  501  503 -0.00000000000E+00 -0.00000000000E+00 -0.16836113470E+03  0.16836113470E+03  0.00000000000E+00 0.  1.
          6    2    1    2  501    0 -0.87914616925E+02  0.20411879900E+02 -0.75416502530E+02  0.20838241888E+03  0.17201732161E+03 0.  0.
         24    2    3    3    0    0 -0.50405929946E+02 -0.18520888842E+02  0.21723731480E+02  0.97112579547E+02  0.77943258206E+02 0.  0.
         -6    2    1    2    0  502  0.87914616925E+02 -0.20411879900E+02  0.33105041441E+03  0.38397376240E+03  0.17232483460E+03 0.  0.
        -24    2    5    5    0    0  0.10117941664E+02  0.42065089609E+01  0.26808275089E+03  0.28079719335E+03  0.82816876344E+02 0.  0.
          5    1    3    3  501    0 -0.37508686979E+02  0.38932768742E+02 -0.97140234010E+02  0.11126983933E+03  0.47000000000E+01 0. -1.
        -13    1    4    4    0    0 -0.29005606768E+02 -0.42046591253E+02 -0.10157628315E+02  0.52080883950E+02  0.00000000000E+00 0.  1.
         14    1    4    4    0    0 -0.21400323178E+02  0.23525702411E+02  0.31881359795E+02  0.45031695598E+02  0.00000000000E+00 0. -1.
         -5    1    5    5    0  502  0.77796675260E+02 -0.24618388861E+02  0.62967663516E+02  0.10317656905E+03  0.47000000000E+01 0.  1.
         13    1    6    6    0    0  0.35902361227E+02  0.29847571531E+02  0.16552275231E+03  0.17198150656E+03  0.00000000000E+00 0. -1.
        -14    1    6    6    0    0 -0.25784419562E+02 -0.25641062570E+02  0.10255999859E+03  0.10881568679E+03  0.00000000000E+00 0.  1.
</event>
<event>
12    1  0.8633375E-002  0.1932178E+03  0.7818608E-02  0.1155861E+00
         21   -1    0    0  501  502  0.00000000000E+00  0.00000000000E+00  0.30832847154E+03  0.30832847154E+03  0.00000000000E+00 0. -1.
         21   -1    0    0  502  503 -0.00000000000E+00 -0.00000000000E+00 -0.15875565107E+03  0.15875565107E+03  0.00000000000E+00 0. -1.
         -6    2    1    2    0  503 -0.63419648885E+02  0.66903726918E+02 -0.39947217242E+02  0.19730410817E+03  0.16980862875E+03 0.  0.
        -24    2    3    3    0    0  0.93326744792E+01  0.82824555743E+02 -0.43496704491E+02  0.12259760106E+03  0.78684195601E+02 0.  0.
          6    2    1    2  501    0  0.63419648885E+02 -0.66903726918E+02  0.18952003771E+03  0.26978001443E+03  0.16841986507E+03 0.  0.
         24    2    5    5    0    0 -0.20419890224E+02 -0.23288043427E+02  0.13673097565E+03  0.16142794367E+03  0.80026973023E+02 0.  0.
          5    1    5    5  501    0  0.83839539109E+02 -0.43615683491E+02  0.52789062060E+02  0.10835207076E+03  0.47000000000E+01 0. -1.
        -11    1    6    6    0    0  0.29664719882E+02 -0.59883473872E+01  0.31930447434E+02  0.43993287936E+02  0.00000000000E+00 0.  1.
         12    1    6    6    0    0 -0.50084610106E+02 -0.17299696039E+02  0.10480052822E+03  0.11743465573E+03  0.00000000000E+00 0. -1.
         -5    1    3    3    0  503 -0.72752323364E+02 -0.15920828825E+02  0.35494872498E+01  0.74706507113E+02  0.47000000000E+01 0.  1.
         11    1    4    4    0    0 -0.71679732142E+01  0.48550412058E+02 -0.62992368494E+02  0.79853370871E+02  0.00000000000E+00 0. -1.
        -12    1    4    4    0    0  0.16500647693E+02  0.34274143685E+02  0.19495664003E+02  0.42744230190E+02  0.00000000000E+00 0.  1.
</event>
<event>
12    1  0.8633375E-002  0.2061725E+03  0.7818608E-02  0.1144709E+00
         21   -1    0    0  503  502  0.00000000000E+00  0.00000000000E+00  0.36542804412E+03  0.36542804412E+03  0.00000000000E+00 0. -1.
         21   -1    0    0  501  503 -0.00000000000E+00 -0.00000000000E+00 -0.13323195640E+03  0.13323195640E+03  0.00000000000E+00 0. -1.
          6    2    1    2  501    0  0.96913107085E+02 -0.58220450269E+02  0.26812520649E+02  0.20790861268E+03  0.17241029206E+03 0.  0.
         24    2    3    3    0    0 -0.15301661975E+02 -0.30280823421E+01  0.12869699400E+02  0.81992592507E+02  0.79459712569E+02 0.  0.
         -6    2    1    2    0  502 -0.96913107085E+02  0.58220450269E+02  0.20538356707E+03  0.29075138784E+03  0.17196566156E+03 0.  0.
        -24    2    5    5    0    0 -0.11839722251E+03  0.66121768645E+01  0.17864440019E+03  0.22860596046E+03  0.79279507171E+02 0.  0.
          5    1    3    3  501    0  0.11221476906E+03 -0.55192367927E+02  0.13942821248E+02  0.12591602018E+03  0.47000000000E+01 0. -1.
        -11    1    4    4    0    0 -0.15793065015E+02 -0.40263970806E+02  0.24344304101E+01  0.43318987742E+02  0.00000000000E+00 0.  1.
         12    1    4    4    0    0  0.49140303972E+00  0.37235888463E+02  0.10435268990E+02  0.38673604765E+02  0.00000000000E+00 0. -1.
         -5    1    5    5    0  502  0.21484115428E+02  0.51608273405E+02  0.26739166884E+02  0.62145427387E+02  0.47000000000E+01 0.  1.
         13    1    6    6    0    0 -0.19073461624E+02 -0.12787716518E+02 -0.36964943858E+00  0.22966481506E+02  0.00000000000E+00 0. -1.
        -14    1    6    6    0    0 -0.99323760889E+02  0.19399893383E+02  0.17901404962E+03  0.20563947895E+03  0.00000000000E+00 0.  1.
</event>
<event>
12    1  0.8633375E-002  0.2556427E+03  0.7818608E-02  0.1110255E+00
         21   -1    0    0  503  502  0.00000000000E+00  0.00000000000E+00  0.23755165287E+03  0.23755165287E+03  0.00000000000E+00 0. -1.
         21   -1    0    0  501  503 -0.00000000000E+00 -0.00000000000E+00 -0.27484249433E+03  0.27484249433E+03  0.00000000000E+00 0. -1.
          6    2    1    2  501    0  0.12587391942E+03  0.13659109167E+03 -0.45122051083E+02  0.25663152500E+03  0.17123775932E+03 0.  0.
         24    2    3    3    0    0  0.76201198774E+02  0.83575431786E+02 -0.95764399229E+02  0.16794794819E+03  0.79020362250E+02 0.  0.
         -6    2    1    2    0  502 -0.12587391942E+03 -0.13659109167E+03  0.78312096235E+01  0.25576262219E+03  0.17564686491E+03 0.  0.
        -24    2    5    5    0    0 -0.14728837550E+03 -0.15405014780E+03  0.93481632230E+01  0.22769504805E+03  0.79575958403E+02 0.  0.
          5    1    3    3  501    0  0.49672720647E+02  0.53015659882E+02  0.50642348146E+02  0.88683576805E+02  0.47000000000E+01 0. -1.
        -13    1    4    4    0    0 -0.46679583156E+01  0.44427006103E+02 -0.50233506530E+02  0.67223164790E+02  0.00000000000E+00 0.  1.
         14    1    4    4    0    0  0.80869157089E+02  0.39148425684E+02 -0.45530892699E+02  0.10072478340E+03  0.00000000000E+00 0. -1.
         -5    1    5    5    0  502  0.21414456077E+02  0.17459056133E+02 -0.15169535996E+01  0.28067574144E+02  0.47000000000E+01 0.  1.
         13    1    6    6    0    0 -0.93566106641E+02 -0.13733387694E+03 -0.14027781685E+02  0.16676926793E+03  0.00000000000E+00 0. -1.
        -14    1    6    6    0    0 -0.53722268858E+02 -0.16716270863E+02  0.23375944908E+02  0.60925780119E+02  0.00000000000E+00 0.  1.
</event>
<event>
12    1  0.8633375E-002  0.1752844E+03  0.7818608E-02  0.1172543E+00
         21   -1    0    0  503  502  0.00000000000E+00  0.00000000000E+00  0.46831179817E+03  0.46831179817E+03  0.00000000000E+00 0. -1.
         21   -1    0    0  501  503 -0.00000000000E+00 -0.00000000000E+00 -0.69580439916E+02  0.69580439916E+02  0.00000000000E+00 0. -1.
          6    2    1    2  501    0  0.15264523385E+02 -0.29267515188E+02  0.13373645702E+03  0.22017080218E+03  0.17175607435E+03 0.  0.
         24    2    3    3    0    0  0.55287865357E+02 -0.78993314452E+01  0.14487981231E+03  0.17321623322E+03  0.76776011498E+02 0.  0.
         -6    2    1    2    0  502 -0.15264523385E+02  0.29267515188E+02  0.26499490123E+03  0.31772143591E+03  0.17214825017E+03 0.  0.
        -24    2    5    5    0    0 -0.63682987883E+02  0.25980696155E+02  0.24153200468E+03  0.26361276379E+03  0.80146493561E+02 0.  0.
          5    1    3    3  501    0 -0.40023341972E+02 -0.21368183742E+02 -0.11143355291E+02  0.46954568960E+02  0.47000000000E+01 0. -1.
        -13    1    4    4    0    0  0.30171348996E+02 -0.36152935687E+02  0.40182367295E+02  0.61902889274E+02  0.00000000000E+00 0.  1.
         14    1    4    4    0    0  0.25116516360E+02  0.28253604242E+02  0.10469744502E+03  0.11131334394E+03  0.00000000000E+00 0. -1.
         -5    1    5    5    0  502  0.48418464499E+02  0.32868190330E+01  0.23462896553E+02  0.54108672118E+02  0.47000000000E+01 0.  1.
         13    1    6    6    0    0 -0.17925761888E+02 -0.28759429928E+02  0.67668737791E+02  0.75680220820E+02  0.00000000000E+00 0. -1.
        -14    1    6    6    0    0 -0.45757225995E+02  0.54740126082E+02  0.17386326689E+03  0.18793254297E+03  0.00000000000E+00 0.  1.
</event>
<event>
12    1  0.8633375E-002  0.3203947E+03  0.7818608E-02  0.1075665E+00
         21   -1    0    0  503  502  0.00000000000E+00  0.00000000000E+00  0.23513907269E+03  0.23513907269E+03  0.00000000000E+00 0.  1.
         21   -1    0    0  501  503 -0.00000000000E+00 -0.00000000000E+00 -0.58358866329E+03  0.58358866329E+03  0.00000000000E+00 0. -1.
          6    2    1    2  501    0  0.10290679407E+03 -0.24981632815E+03  0.32518650150E+02  0.32204073137E+03  0.17220558638E+03 0.  0.
         24    2    3    3    0    0 -0.25142854990E+01 -0.74188642540E+02  0.43329725457E+02  0.11686359493E+03  0.79179280106E+02 0.  0.
         -6    2    1    2    0  502 -0.10290679407E+03  0.24981632815E+03 -0.38096824075E+03  0.49668700460E+03  0.16900643184E+03 0.  0.
        -24    2    5    5    0    0 -0.23501501612E+02  0.37637365656E+02 -0.10522075398E+03  0.13977822206E+03  0.80608017108E+02 0.  0.
          5    1    3    3  501    0  0.10542107957E+03 -0.17562768561E+03 -0.10811075307E+02  0.20517713645E+03  0.47000000000E+01 0. -1.
        -11    1    4    4    0    0  0.68030690250E+01  0.15104605074E+02  0.15967326928E+02  0.23008397854E+02  0.00000000000E+00 0.  1.
         12    1    4    4    0    0 -0.93173545240E+01 -0.89293247613E+02  0.27362398529E+02  0.93855197075E+02  0.00000000000E+00 0. -1.
         -5    1    5    5    0  502 -0.79405292455E+02  0.21217896250E+03 -0.27574748677E+03  0.35690878254E+03  0.47000000000E+01 0.  1.
         11    1    6    6    0    0 -0.46233881923E+02  0.45771245329E+02 -0.90646149558E+02  0.11157644539E+03  0.00000000000E+00 0. -1.
        -12    1    6    6    0    0  0.22732380310E+02 -0.81338796731E+01 -0.14574604424E+02  0.28201776668E+02  0.00000000000E+00 0.  1.
</event>
<event>
12    1  0.8633375E-002  0.1919692E+03  0.7818608E-02  0.1157454E+00
         21   -1    0    0  501  502  0.00000000000E+00  0.00000000000E+00  0.93868058896E+02  0.93868058896E+02  0.00000000000E+00 0.  1.
         21   -1    0    0  502  503 -0.00000000000E+00 -0.00000000000E+00 -0.55793617504E+03  0.55793617504E+03  0.00000000000E+00 0.  1.
         -6    2    1    2    0  503  0.79158440035E+02 -0.28202329871E+02 -0.41166613962E+03  0.45281143064E+03  0.16884238558E+03 0.  0.
        -24    2    3    3    0    0  0.98074650191E+02 -0.68343403749E+02 -0.30383338484E+03  0.33611043740E+03  0.79787483616E+02 0.  0.
          6    2    1    2  501    0 -0.79158440035E+02  0.28202329871E+02 -0.52401976520E+02  0.19899280329E+03  0.17259993795E+03 0.  0.
         24    2    5    5    0    0 -0.66029271374E+02  0.16328685888E+02 -0.10209622309E+03  0.14603086759E+03  0.79214170831E+02 0.  0.
          5    1    5    5  501    0 -0.13129168661E+02  0.11873643983E+02  0.49694246568E+02  0.52961935700E+02  0.47000000000E+01 0. -1.
        -13    1    6    6    0    0 -0.31765259854E+02 -0.20768235602E+02 -0.73360921789E+01  0.38654489934E+02  0.00000000000E+00 0.  1.
         14    1    6    6    0    0 -0.34264011520E+02  0.37096921490E+02 -0.94760130909E+02  0.10737637766E+03  0.00000000000E+00 0. -1.
         -5    1    3    3    0  503 -0.18916210155E+02  0.40141073878E+02 -0.10783275478E+03  0.11670099324E+03  0.47000000000E+01 0.  1.
         11    1    4    4    0    0  0.11600512964E+02 -0.72397318256E+01 -0.14237091591E+03  0.14302609313E+03  0.00000000000E+00 0. -1.
        -12    1    4    4    0    0  0.86474137226E+02 -0.61103671923E+02 -0.16146246893E+03  0.19308434428E+03  0.00000000000E+00 0.  1.
</event>
<event>
12    1  0.8633375E-002  0.2583669E+03  0.7818608E-02  0.1108284E+00
         21   -1    0    0  501  502  0.00000000000E+00  0.00000000000E+00  0.28173432023E+03  0.28173432023E+03  0.00000000000E+00 0.  1.
         21   -1    0    0  502  503 -0.00000000000E+00 -0.00000000000E+00 -0.28137462688E+03  0.28137462688E+03  0.00000000000E+00 0. -1.
         -6    2    1    2    0  503 -0.17196295749E+03 -0.83919544792E+02  0.11324390433E+03  0.28115804448E+03  0.17208113017E+03 0.  0.
        -24    2    3    3    0    0 -0.15369684121E+03 -0.57201702586E+01  0.97774932822E+02  0.19924240336E+03  0.80511852914E+02 0.  0.
          6    2    1    2  501    0  0.17196295749E+03  0.83919544792E+02 -0.11288421099E+03  0.28195090263E+03  0.17360794239E+03 0.  0.
         24    2    5    5    0    0  0.33680141678E+02 -0.11863913889E+01 -0.77141374796E+02  0.11562352106E+03  0.79260629882E+02 0.  0.
          5    1    5    5  501    0  0.13828281581E+03  0.85105936181E+02 -0.35742836191E+02  0.16632738157E+03  0.47000000000E+01 0. -1.
        -13    1    6    6    0    0  0.29932929802E+02  0.20788845506E+02 -0.11847113932E+01  0.36463131038E+02  0.00000000000E+00 0.  1.
         14    1    6    6    0    0  0.37472118756E+01 -0.21975236895E+02 -0.75956663402E+02  0.79160390024E+02  0.00000000000E+00 0. -1.
         -5    1    3    3    0  503 -0.18266116272E+02 -0.78199374533E+02  0.15468971509E+02  0.81915641123E+02  0.47000000000E+01 0.  1.
         11    1    4    4    0    0 -0.12692325906E+02  0.11590916983E+02 -0.10922350064E+02  0.20365220950E+02  0.00000000000E+00 0. -1.
        -12    1    4    4    0    0 -0.14100451531E+03 -0.17311087242E+02  0.10869728289E+03  0.17887718241E+03  0.00000000000E+00 0.  1.
</event>
<event>
12    1  0.8633375E-002  0.4698318E+03  0.7818608E-02  0.1021996E+00
         21   -1    0    0  503  502  0.00000000000E+00  0.00000000000E+00  0.99130609970E+03  0.99130609970E+03  0.00000000000E+00 0.  1.
         21   -1    0    0  501  503 -0.00000000000E+00 -0.00000000000E+00 -0.31023448363E+03  0.31023448363E+03  0.00000000000E+00 0. -1.
          6    2    1    2  501    0 -0.19208730852E+03  0.39201134225E+03 -0.56568776753E+01  0.46947210178E+03  0.17263147900E+03 0.  0.
         24    2    3    3    0    0 -0.17734070512E+03  0.20399182737E+03 -0.92463609869E+01  0.28078247653E+03  0.75438137613E+02 0.  0.
         -6    2    1    2    0  502  0.19208730852E+03 -0.39201134225E+03  0.68672849374E+03  0.83206848154E+03  0.17369947413E+03 0.  0.
        -24    2    5    5    0    0  0.21841781290E+02 -0.15123161438E+03  0.28615493585E+03  0.33463538838E+03  0.82147009955E+02 0.  0.
          5    1    3    3  501    0 -0.14746603393E+02  0.18801951488E+03  0.35894833116E+01  0.18868962526E+03  0.47000000000E+01 0. -1.
        -11    1    4    4    0    0 -0.81568051069E+02  0.75873658002E+02 -0.39097540315E+02  0.11806259608E+03  0.00000000000E+00 0.  1.
         12    1    4    4    0    0 -0.95772654054E+02  0.12811816937E+03  0.29851179328E+02  0.16271988045E+03  0.00000000000E+00 0. -1.
         -5    1    5    5    0  502  0.17024552723E+03 -0.24077972788E+03  0.40057355789E+03  0.49743309316E+03  0.47000000000E+01 0.  1.
         11    1    6    6    0    0  0.27977126667E+02 -0.52066580480E+02  0.17900262198E+03  0.18850885150E+03  0.00000000000E+00 0. -1.
        -12    1    6    6    0    0 -0.61353453775E+01 -0.99165033897E+02  0.10715231388E+03  0.14612653688E+03  0.00000000000E+00 0.  1.
</event>
<event>
12    1  0.8633375E-002  0.2448043E+03  0.7818608E-02  0.1116791E+00
         21   -1    0    0  503  502  0.00000000000E+00  0.00000000000E+00  0.87565292672E+03  0.87565292672E+03  0.00000000000E+00 0. -1.
         21   -1    0    0  501  503 -0.00000000000E+00 -0.00000000000E+00 -0.11123330783E+03  0.11123330783E+03  0.00000000000E+00 0. -1.
          6    2    1    2  501    0  0.17329115173E+03  0.14443276697E+02  0.74711202997E+02  0.25502090110E+03  0.17092531888E+03 0.  0.
         24    2    3    3    0    0  0.23923380724E+02  0.51085627878E+01 -0.77071314225E+01  0.84103553388E+02  0.80097329910E+02 0.  0.
         -6    2    1    2    0  502 -0.17329115173E+03 -0.14443276697E+02  0.68970841589E+03  0.73186533345E+03  0.17230999925E+03 0.  0.
        -24    2    5    5    0    0 -0.14190803768E+03  0.52189169506E+02  0.45773596534E+03  0.48843548616E+03  0.78647375070E+02 0.  0.
          5    1    3    3  501    0  0.14936777101E+03  0.93347139093E+01  0.82418334419E+02  0.17091734771E+03  0.47000000000E+01 0. -1.
        -13    1    4    4    0    0 -0.71510028566E+01  0.37656727025E+02 -0.77408460961E+01  0.39103537313E+02  0.00000000000E+00 0.  1.
         14    1    4    4    0    0  0.31074383581E+02 -0.32548164237E+02  0.33714673652E-01  0.45000016075E+02  0.00000000000E+00 0. -1.
         -5    1    5    5    0  502 -0.31383114049E+02 -0.66632446203E+02  0.23197245056E+03  0.24342984729E+03  0.47000000000E+01 0.  1.
         13    1    6    6    0    0 -0.79507103962E+02 -0.91255281911E+01  0.26399321829E+03  0.27585698133E+03  0.00000000000E+00 0. -1.
        -14    1    6    6    0    0 -0.62400933719E+02  0.61314697697E+02  0.19374274705E+03  0.21257850483E+03  0.00000000000E+00 0.  1.
</event>
<event>
12    1  0.8633375E-002  0.3037330E+03  0.7818608E-02  0.1083465E+00
         21   -1    0    0  501  502  0.00000000000E+00  0.00000000000E+00  0.22469662501E+03  0.22469662501E+03  0.00000000000E+00 0. -1.
         21   -1    0    0  502  503 -0.00000000000E+00 -0.00000000000E+00 -0.60282379893E+03  0.60282379893E+03  0.00000000000E+00 0.  1.
         -6    2    1    2    0  503 -0.19708473419E+03  0.15368271847E+03 -0.42335782497E+03  0.52104277814E+03  0.17260636800E+03 0.  0.
        -24    2    3    3    0    0 -0.20717385844E+03  0.12802107882E+03 -0.29298751640E+03  0.38770554577E+03  0.71857506290E+02 0.  0.
          6    2    1    2  501    0  0.19708473419E+03 -0.15368271847E+03  0.45230651055E+02  0.30647764580E+03  0.17152832178E+03 0.  0.
         24    2    5    5    0    0  0.17539311417E+03 -0.11351100502E+03 -0.22630002270E+02  0.22455419854E+03  0.79151616034E+02 0.  0.
          5    1    5    5  501    0  0.21691620020E+02 -0.40171713446E+02  0.67860653325E+02  0.81923447254E+02  0.47000000000E+01 0. -1.
        -13    1    6    6    0    0  0.36726926879E+02  0.82045114209E+01 -0.12931730631E+02  0.39792094978E+02  0.00000000000E+00 0.  1.
         14    1    6    6    0    0  0.13866618729E+03 -0.12171551644E+03 -0.96982716388E+01  0.18476210357E+03  0.00000000000E+00 0. -1.
         -5    1    3    3    0  503  0.10089124248E+02  0.25661639643E+02 -0.13037030858E+03  0.13333723237E+03  0.47000000000E+01 0.  1.
         13    1    4    4    0    0 -0.48551331491E+02  0.82459373794E+01 -0.28640993259E+02  0.56969586339E+02  0.00000000000E+00 0. -1.
        -14    1    4    4    0    0 -0.15862252695E+03  0.11977514144E+03 -0.26434652314E+03  0.33073595943E+03  0.00000000000E+00 0.  1.
</event>
<event>
12    1  0.8633375E-002  0.1760459E+03  0.7818608E-02  0.1172261E+00
         21   -1    0    0  501  502  0.00000000000E+00  0.00000000000E+00  0.82162041293E+02  0.82162041293E+02  0.00000000000E+00 0.  1.
         21   -1    0    0  502  503 -0.00000000000E+00 -0.00000000000E+00 -0.70147758318E+03  0.70147758318E+03  0.00000000000E+00 0.  1.
         -6    2    1    2    0  503 -0.19098029155E+02  0.70875839895E+01 -0.57698115948E+03  0.60257514801E+03  0.17255312816E+03 0.  0.
        -24    2    3    3    0    0 -0.44395013053E+02  0.57598755923E+02 -0.26809153567E+03  0.28852705363E+03  0.78014455781E+02 0.  0.
          6    2    1    2  501    0  0.19098029155E+02 -0.70875839895E+01 -0.42334382404E+02  0.18106447646E+03  0.17486330701E+03 0.  0.
         24    2    5    5    0    0  0.75290394699E+02 -0.18647535072E+02 -0.50591275219E+01  0.11248788395E+03  0.81311470072E+02 0.  0.
          5    1    5    5  501    0 -0.56192365545E+02  0.11559951083E+02 -0.37275254882E+02  0.68576592516E+02  0.47000000000E+01 0. -1.
        -13    1    6    6    0    0  0.32505634713E+02  0.31807071005E+02  0.42776465104E+01  0.45679364200E+02  0.00000000000E+00 0.  1.
         14    1    6    6    0    0  0.42784759986E+02 -0.50454606077E+02 -0.93367740323E+01  0.66808519748E+02  0.00000000000E+00 0. -1.
         -5    1    3    3    0  503  0.25296983899E+02 -0.50511171934E+02 -0.30888962381E+03  0.31404809437E+03  0.47000000000E+01 0.  1.
         11    1    4    4    0    0  0.14671483181E+02 -0.28616398189E+01 -0.13045945017E+02  0.19840314578E+02  0.00000000000E+00 0. -1.
        -12    1    4    4    0    0 -0.59066496234E+02  0.60460395742E+02 -0.25504559066E+03  0.26868673906E+03  0.00000000000E+00 0.  1.
</event>
<event>
12    1  0.8633375E-002  0.1765104E+03  0.7818608E-02  0.1171411E+00
         21   -1    0    0  501  502  0.00000000000E+00  0.00000000000E+00  0.15192524866E+03  0.15192524866E+03  0.00000000000E+00 0. -1.
         21   -1    0    0  502  503 -0.00000000000E+00 -0.00000000000E+00 -0.29845905811E+03  0.29845905811E+03  0.00000000000E+00 0. -1.
         -6    2    1    2    0  503 -0.28079737406E+02 -0.34918030997E+02  0.53393725867E+02  0.18368796648E+03  0.16994892918E+03 0.  0.
        -24    2    3    3    0    0 -0.61352582145E+02  0.22189238216E+02  0.54477611654E+02  0.11741891487E+03  0.81011664398E+02 0.  0.
          6    2    1    2  501    0  0.28079737406E+02  0.34918030997E+02 -0.19992753532E+03  0.26669634029E+03  0.17072837493E+03 0.  0.
         24    2    5    5    0    0  0.12635898851E+02  0.82697008425E+02 -0.17624247249E+03  0.21097906259E+03  0.80326176306E+02 0.  0.
          5    1    5    5  501    0  0.15443838555E+02 -0.47778977429E+02 -0.23685062833E+02  0.55717277705E+02  0.47000000000E+01 0. -1.
        -11    1    6    6    0    0 -0.28314736983E+00  0.53823596861E+02 -0.30545145190E+02  0.61887524156E+02  0.00000000000E+00 0.  1.
         12    1    6    6    0    0  0.12919046220E+02  0.28873411564E+02 -0.14569732730E+03  0.14909153843E+03  0.00000000000E+00 0. -1.
         -5    1    3    3    0  503  0.33272844739E+02 -0.57107269213E+02 -0.10838857875E+01  0.66269051618E+02  0.47000000000E+01 0.  1.
         11    1    4    4    0    0  0.20758584873E+01  0.83342820123E+01  0.51728534022E+02  0.52436730230E+02  0.00000000000E+00 0. -1.
        -12    1    4    4    0    0 -0.63428440632E+02  0.13854956204E+02  0.27490776319E+01  0.64982184637E+02  0.00000000000E+00 0.  1.
</event>
<event>
12    1  0.8633375E-002  0.1825222E+03  0.7818608E-02  0.1165698E+00
         21   -1    0    0  501  502  0.00000000000E+00  0.00000000000E+00  0.29124535895E+03  0.29124535895E+03  0.00000000000E+00 0.  1.
         21   -1    0    0  502  503 -0.00000000000E+00 -0.00000000000E+00 -0.12566521713E+03  0.12566521713E+03  0.00000000000E+00 0.  1.
         -6    2    1    2    0  503  0.24684811850E+01 -0.57630866519E+02  0.17831459197E+02  0.18208290765E+03  0.17178129743E+03 0.  0.
        -24    2    3    3    0    0  0.68339881094E+02 -0.39057760163E+02  0.18523386209E+02  0.11347845905E+03  0.79614049352E+02 0.  0.
          6    2    1    2  501    0 -0.24684811850E+01  0.57630866519E+02  0.14774868262E+03  0.23482766843E+03  0.17316740591E+03 0.  0.
         24    2    5    5    0    0  0.42296693834E+02  0.87452225335E+02  0.74106680331E+02  0.14351245153E+03  0.75280287258E+02 0.  0.
          5    1    5    5  501    0 -0.44765175019E+02 -0.29821358816E+02  0.73642002290E+02  0.91315216899E+02  0.47000000000E+01 0. -1.
        -11    1    6    6    0    0  0.38156423734E+02  0.68745274467E+02  0.89357953266E+02  0.11902381798E+03  0.00000000000E+00 0.  1.
         12    1    6    6    0    0  0.41402701003E+01  0.18706950868E+02 -0.15251272935E+02  0.24488633556E+02  0.00000000000E+00 0. -1.
         -5    1    3    3    0  503 -0.65871399909E+02 -0.18573106357E+02 -0.69192701145E+00  0.68604448607E+02  0.47000000000E+01 0.  1.
         11    1    4    4    0    0  0.68759288202E+00  0.20456802165E+02  0.10535406763E+02  0.23020606735E+02  0.00000000000E+00 0. -1.
        -12    1    4    4    0    0  0.67652288212E+02 -0.59514562327E+02  0.79879794457E+01  0.90457852312E+02  0.00000000000E+00 0.  1.
</event>
<event>
12    1  0.8633375E-002  0.1833857E+03  0.7818608E-02  0.1164745E+00
         21   -1    0    0  503  502  0.00000000000E+00  0.00000000000E+00  0.66496030778E+03  0.66496030778E+03  0.00000000000E+00 0. -1.
         21   -1    0    0  501  503 -0.00000000000E+00 -0.00000000000E+00 -0.52101771638E+02  0.52101771638E+02  0.00000000000E+00 0. -1.
          6    2    1    2  501    0 -0.99138425475E+01 -0.63661835228E+02  0.24037965087E+03  0.30188643229E+03  0.17088571593E+03 0.  0.
         24    2    3    3    0    0 -0.35161983179E+02 -0.44882781246E+01  0.21529381350E+03  0.23267395002E+03  0.80803658221E+02 0.  0.
         -6    2    1    2    0  502  0.99138425475E+01  0.63661835228E+02  0.37247888527E+03  0.41517564713E+03  0.17169503329E+03 0.  0.
        -24    2    5    5    0    0  0.43841014940E+02  0.73139185083E+02  0.35791557633E+03  0.37676922639E+03  0.81117909153E+02 0.  0.
          5    1    3    3  501    0  0.25248140632E+02 -0.59173557103E+02  0.25085837365E+02  0.69212482269E+02  0.47000000000E+01 0. -1.
        -11    1    4    4    0    0  0.30628645655E+01  0.10667310342E+02  0.17415539574E+03  0.17450866601E+03  0.00000000000E+00 0.  1.
         12    1    4    4    0    0 -0.38224847745E+02 -0.15155588466E+02  0.41138417765E+02  0.58165284003E+02  0.00000000000E+00 0. -1.
         -5    1    5    5    0  502 -0.33927172393E+02 -0.94773498557E+01  0.14563308938E+02  0.38406420740E+02  0.47000000000E+01 0.  1.
         13    1    6    6    0    0  0.10582843607E+02  0.22444537524E+01  0.20203673827E+03  0.20232616677E+03  0.00000000000E+00 0. -1.
        -14    1    6    6    0    0  0.33258171333E+02  0.70894731331E+02  0.15587883806E+03  0.17444305961E+03  0.00000000000E+00 0.  1.
</event>
<event>
12    1  0.8633375E-002  0.2430771E+03  0.7818608E-02  0.1117817E+00
         21   -1    0    0  503  502  0.00000000000E+00  0.00000000000E+00  0.40044259101E+02  0.40044259101E+02  0.00000000000E+00 0. -1.
         21   -1    0    0  501  503 -0.00000000000E+00 -0.00000000000E+00 -0.15348792973E+04  0.15348792973E+04  0.00000000000E+00 0. -1.
          6    2    1    2  501    0 -0.15777446021E+03 -0.65331120842E+02 -0.59035815198E+03  0.63844280540E+03  0.17298997808E+03 0.  0.
         24    2    3    3    0    0 -0.14998210988E+03 -0.10682598183E+03 -0.49000723140E+03  0.52947060035E+03  0.79533679257E+02 0.  0.
         -6    2    1    2    0  502  0.15777446021E+03  0.65331120842E+02 -0.90447688622E+03  0.93648075100E+03  0.17250166272E+03 0.  0.
        -24    2    5    5    0    0  0.56720013991E+02  0.49220680826E+02 -0.69193757790E+03  0.70054305804E+03  0.79643763403E+02 0.  0.
          5    1    3    3  501    0 -0.77923503296E+01  0.41494860988E+02 -0.10035092057E+03  0.10897220504E+03  0.47000000000E+01 0. -1.
        -13    1    4    4    0    0 -0.39573819593E+01 -0.45153036207E+01 -0.10510938166E+03  0.10528072450E+03  0.00000000000E+00 0.  1.
         14    1    4    4    0    0 -0.14602472792E+03 -0.10231067821E+03 -0.38489784974E+03  0.42418987585E+03  0.00000000000E+00 0. -1.
         -5    1    5    5    0  502  0.10105444622E+03  0.16110440016E+02 -0.21253930832E+03  0.23593769296E+03  0.47000000000E+01 0.  1.
         11    1    6    6    0    0  0.67048587108E+01  0.52617100767E+02 -0.23762694648E+03  0.24347500922E+03  0.00000000000E+00 0. -1.
        -12    1    6    6    0    0  0.50015155281E+02 -0.33964199414E+01 -0.45431063142E+03  0.45706804882E+03  0.00000000000E+00 0.  1.
</event>
<event>
12    1  0.8633375E-002  0.1955915E+03  0.7818608E-02  0.1154331E+00
         21   -1    0    0  501  502  0.00000000000E+00  0.00000000000E+00  0.12895315495E+04  0.12895315495E+04  0.00000000000E+00 0.  1.
         21   -1    0    0  502  503 -0.00000000000E+00 -0.00000000000E+00 -0.34092435955E+02  0.34092435955E+02  0.00000000000E+00 0. -1.
         -6    2    1    2    0  503 -0.77434978556E+02  0.52760294524E+02  0.87571329961E+03  0.89648498889E+03  0.16742678282E+03 0.  0.
        -24    2    3    3    0    0 -0.32152180234E+02  0.94377601624E+02  0.52174093784E+03  0.53717863635E+03  0.80039907267E+02 0.  0.
          6    2    1    2  501    0  0.77434978556E+02 -0.52760294524E+02  0.37972581397E+03  0.42713899660E+03  0.17168635368E+03 0.  0.
         24    2    5    5    0    0  0.64662665301E+02  0.19751323474E+02  0.30288031767E+03  0.32061018814E+03  0.80517270472E+02 0.  0.
          5    1    5    5  501    0  0.12772313255E+02 -0.72511617997E+02  0.76845496299E+02  0.10652880846E+03  0.47000000000E+01 0. -1.
        -13    1    6    6    0    0  0.50441825721E+02 -0.24752535373E+02  0.19750479962E+03  0.20534169489E+03  0.00000000000E+00 0.  1.
         14    1    6    6    0    0  0.14220839580E+02  0.44503858847E+02  0.10537551806E+03  0.11526849325E+03  0.00000000000E+00 0. -1.
         -5    1    3    3    0  503 -0.45282798322E+02 -0.41617307101E+02  0.35397236177E+03  0.35930635254E+03  0.47000000000E+01 0.  1.
         13    1    4    4    0    0 -0.59280340512E+01  0.95057112458E+02  0.32410141335E+03  0.33780574647E+03  0.00000000000E+00 0. -1.
        -14    1    4    4    0    0 -0.26224146183E+02 -0.67951083346E+00  0.19763952449E+03  0.19937288988E+03  0.00000000000E+00 0.  1.
</event>
<event>
12    1  0.8633375E-002  0.1961041E+03  0.7818608E-02  0.1153297E+00
         21   -1    0    0  501  502  0.00000000000E+00  0.00000000000E+00  0.24373985084E+02  0.24373985084E+02  0.00000000000E+00 0.  1.
         21   -1    0    0  502  503 -0.00000000000E+00 -0.00000000000E+00 -0.21787050134E+04  0.21787050134E+04  0.00000000000E+00 0.  1.
         -6    2    1    2    0  503 -0.78171207490E+02  0.49282373740E+02 -0.16618375364E+04  0.16733681069E+04  0.17296627990E+03 0.  0.
        -24    2    3    3    0    0 -0.11319039377E+03  0.53659692970E+02 -0.10375893387E+04  0.10481054368E+04  0.79005968398E+02 0.  0.
          6    2    1    2  501    0  0.78171207490E+02 -0.49282373740E+02 -0.49249349192E+03  0.52971089152E+03  0.17176815470E+03 0.  0.
         24    2    5    5    0    0  0.11917468716E+03 -0.56830748668E+02 -0.40697425838E+03  0.43445390955E+03  0.75430845709E+02 0.  0.
          5    1    5    5  501    0 -0.41003479670E+02  0.75483749275E+01 -0.85519233539E+02  0.95256981971E+02  0.47000000000E+01 0. -1.
        -13    1    6    6    0    0  0.85520974482E+02 -0.73086441789E+02 -0.27063682052E+03  0.29308659756E+03  0.00000000000E+00 0.  1.
         14    1    6    6    0    0  0.33653712678E+02  0.16255693121E+02 -0.13633743786E+03  0.14136731199E+03  0.00000000000E+00 0. -1.
         -5    1    3    3    0  503  0.35019186281E+02 -0.43773192301E+01 -0.62424819767E+03  0.62526267010E+03  0.47000000000E+01 0.  1.
         13    1    4    4    0    0 -0.33294022689E+02  0.37398687067E+02 -0.18599963043E+03  0.19262143251E+03  0.00000000000E+00 0. -1.
        -14    1    4    4    0    0 -0.79896371082E+02  0.16261005903E+02 -0.85158970826E+03  0.85548400432E+03  0.00000000000E+00 0.  1.
</event>
<event>
12    1  0.8633375E-002  0.2546431E+03  0.7818608E-02  0.1111402E+00
         21   -1    0    0  501  502  0.00000000000E+00  0.00000000000E+00  0.25504351567E+03  0.25504351567E+03  0.00000000000E+00 0. -1.
         21   -1    0    0  502  503 -0.00000000000E+00 -0.00000000000E+00 -0.30876954557E+03  0.30876954557E+03  0.00000000000E+00 0.  1.
         -6    2    1    2    0  503 -0.12136270309E+03 -0.14328730872E+03 -0.15172723922E+03  0.29096268265E+03  0.16241295832E+03 0.  0.
        -24    2    3    3    0    0 -0.30343018911E+01 -0.84983350195E+02 -0.80790794445E+02  0.14111265326E+03  0.78449038525E+02 0.  0.
          6    2    1    2  501    0  0.12136270309E+03  0.14328730872E+03  0.98001209320E+02  0.27285037859E+03  0.17199689976E+03 0.  0.
         24    2    5    5    0    0  0.12266427603E+03  0.14844061553E+03  0.12591305100E+03  0.24405087219E+03  0.81397732472E+02 0.  0.
          5    1    5    5  501    0 -0.13015729386E+01 -0.51533068087E+01 -0.27911841679E+02  0.28799506404E+02  0.47000000000E+01 0. -1.
        -11    1    6    6    0    0 -0.16073351551E+01  0.50240616409E+02  0.36978116041E+02  0.62402597136E+02  0.00000000000E+00 0.  1.
         12    1    6    6    0    0  0.12427161118E+03  0.98199999124E+02  0.88934934958E+02  0.18164827505E+03  0.00000000000E+00 0. -1.
         -5    1    3    3    0  503 -0.11832840120E+03 -0.58303958529E+02 -0.70936444778E+02  0.14985002939E+03  0.47000000000E+01 0.  1.
         13    1    4    4    0    0 -0.35186432676E+02 -0.23250026917E+02 -0.13455668723E+02  0.44268542069E+02  0.00000000000E+00 0. -1.
        -14    1    4    4    0    0  0.32152130785E+02 -0.61733323278E+02 -0.67335125722E+02  0.96844111194E+02  0.00000000000E+00 0.  1.
</event>
<event>
12    1  0.8633375E-002  0.1785370E+03  0.7818608E-02  0.1169485E+00
         21   -1    0    0  503  502  0.00000000000E+00  0.00000000000E+00  0.51197332628E+03  0.51197332628E+03  0.00000000000E+00 0. -1.
         21   -1    0    0  501  503 -0.00000000000E+00 -0.00000000000E+00 -0.67105076394E+02  0.67105076394E+02  0.00000000000E+00 0. -1.
          6    2    1    2  501    0  0.38234299534E+02  0.23880741918E+02  0.30372790385E+03  0.35231531920E+03  0.17275211453E+03 0.  0.
         24    2    3    3    0    0  0.19513318140E+02 -0.41846268927E+02  0.23953274249E+03  0.25843441678E+03  0.85326040818E+02 0.  0.
         -6    2    1    2    0  502 -0.38234299534E+02 -0.23880741918E+02  0.14114034604E+03  0.22676308347E+03  0.17166463599E+03 0.  0.
        -24    2    5    5    0    0 -0.39830824081E+02 -0.17238352002E+02  0.25318475107E+01  0.87906768888E+02  0.76403759318E+02 0.  0.
          5    1    3    3  501    0  0.18720981394E+02  0.65727010845E+02  0.64195161351E+02  0.93880902424E+02  0.47000000000E+01 0. -1.
        -13    1    4    4    0    0  0.22313240517E+02  0.10161391225E+02  0.16869526643E+02  0.29760972819E+02  0.00000000000E+00 0.  1.
         14    1    4    4    0    0 -0.27999223766E+01 -0.52007660152E+02  0.22266321585E+03  0.22867344396E+03  0.00000000000E+00 0. -1.
         -5    1    5    5    0  502  0.15965245465E+01 -0.66423899164E+01  0.13860849853E+03  0.13885631458E+03  0.47000000000E+01 0.  1.
         13    1    6    6    0    0  0.10133511372E+02  0.20079634787E+02 -0.94628496880E+01  0.24401338285E+02  0.00000000000E+00 0. -1.
        -14    1    6    6    0    0 -0.49964335453E+02 -0.37317986788E+02  0.11994697199E+02  0.63505430603E+02  0.00000000000E+00 0.  1.
</event>
<event>
12    1  0.8633375E-002  0.2533874E+03  0.7818608E-02  0.1112388E+00
         21   -1    0    0  503  502  0.00000000000E+00  0.00000000000E+00  0.35331288116E+02  0.35331288116E+02  0.00000000000E+00 0. -1.
         21   -1    0    0  501  503 -0.00000000000E+00 -0.00000000000E+00 -0.19836923830E+04  0.19836923830E+04  0.00000000000E+00 0. -1.
          6    2    1    2  501    0  0.17461601021E+03 -0.30908815033E+02 -0.62413862625E+03  0.67077654810E+03  0.17013537796E+03 0.  0.
         24    2    3    3    0    0  0.14515560759E+03 -0.16743144318E+02 -0.28629531224E+03  0.33132290418E+03  0.80370253996E+02 0.  0.
         -6    2    1    2    0  502 -0.17461601021E+03  0.30908815033E+02 -0.13242224686E+04  0.13482471230E+04  0.18099461986E+03 0.  0.
        -24    2    5    5    0    0 -0.20047377302E+03  0.15092822953E+02 -0.12357208857E+04  0.12545807486E+04  0.80927254877E+02 0.  0.
          5    1    3    3  501    0  0.29460402621E+02 -0.14165670715E+02 -0.33784331401E+03  0.33945364392E+03  0.47000000000E+01 0. -1.
        -13    1    4    4    0    0  0.10406000829E+02  0.28401293958E+01  0.33273408640E+01  0.11288152438E+02  0.00000000000E+00 0.  1.
         14    1    4    4    0    0  0.13474960676E+03 -0.19583273714E+02 -0.28962265311E+03  0.32003475175E+03  0.00000000000E+00 0. -1.
         -5    1    5    5    0  502  0.25857762813E+02  0.15815992080E+02 -0.88501582967E+02  0.93666374387E+02  0.47000000000E+01 0.  1.
         13    1    6    6    0    0 -0.17419284294E+03  0.40171281221E+02 -0.96308443647E+03  0.97953484376E+03  0.00000000000E+00 0. -1.
        -14    1    6    6    0    0 -0.26280930082E+02 -0.25078458268E+02 -0.27263644920E+03  0.27504590487E+03  0.00000000000E+00 0.  1.
</event>
<event>
12    1  0.8633375E-002  0.2642091E+03  0.7818608E-02  0.1104759E+00
         21   -1    0    0  501  502  0.00000000000E+00  0.00000000000E+00  0.35005033498E+03  0.35005033498E+03  0.00000000000E+00 0. -1.
         21   -1    0    0  502  503 -0.00000000000E+00 -0.00000000000E+00 -0.28930617018E+03  0.28930617018E+03  0.00000000000E+00 0.  1.
         -6    2    1    2    0  503  0.16006109267E+03  0.12114404965E+03  0.20913336125E+03  0.33632880386E+03  0.17054286078E+03 0.  0.
        -24    2    3    3    0    0  0.16574329805E+02  0.20708935966E+02  0.77034328818E+02  0.11690248924E+03  0.83835170043E+02 0.  0.
          6    2    1    2  501    0 -0.16006109267E+03 -0.12114404965E+03 -0.14838919645E+03  0.30302770130E+03  0.17178765956E+03 0.  0.
         24    2    5    5    0    0 -0.12403694442E+03 -0.14635533531E+03 -0.15396801307E+03  0.25845684336E+03  0.79301595675E+02 0.  0.
          5    1    5    5  501    0 -0.36024148255E+02  0.25211285660E+02  0.55788166261E+01  0.44570857935E+02  0.47000000000E+01 0. -1.
        -13    1    6    6    0    0 -0.64263093736E+02 -0.22733133410E+02 -0.68929924444E+02  0.96942637962E+02  0.00000000000E+00 0.  1.
         14    1    6    6    0    0 -0.59773850682E+02 -0.12362220190E+03 -0.85038088627E+02  0.16151420540E+03  0.00000000000E+00 0. -1.
         -5    1    3    3    0  503  0.14348676287E+03  0.10043511369E+03  0.13209903243E+03  0.21942631462E+03  0.47000000000E+01 0.  1.
         11    1    4    4    0    0 -0.24041650353E+01  0.50027299517E+02  0.30219706465E+02  0.58495652534E+02  0.00000000000E+00 0. -1.
        -12    1    4    4    0    0  0.18978494841E+02 -0.29318363551E+02  0.46814622353E+02  0.58406836704E+02  0.00000000000E+00 0.  1.
</event>
<event>
12    1  0.8633375E-002  0.1757722E+03  0.7818608E-02  0.1172180E+00
         21   -1    0    0  503  502  0.00000000000E+00  0.00000000000E+00  0.80036975185E+03  0.80036975185E+03  0.00000000000E+00 0.  1.
         21   -1    0    0  501  503 -0.00000000000E+00 -0.00000000000E+00 -0.55422971845E+02  0.55422971845E+02  0.00000000000E+00 0.  1.
          6    2    1    2  501    0  0.17960455959E+02  0.24701012859E+02  0.13473635174E+03  0.22077095768E+03  0.17220108379E+03 0.  0.
         24    2    3    3    0    0 -0.81585041743E+01 -0.37524634086E+02  0.23690985731E+02  0.90742520294E+02  0.78729173949E+02 0.  0.
         -6    2    1    2    0  502 -0.17960455959E+02 -0.24701012859E+02  0.61021042827E+03  0.63502176602E+03  0.17309869595E+03 0.  0.
        -24    2    5    5    0    0 -0.54635797042E+02 -0.32348644974E+02  0.57332699500E+03  0.58223877094E+03  0.79162099745E+02 0.  0.
          5    1    3    3  501    0  0.26118960133E+02  0.62225646945E+02  0.11104536601E+03  0.13002843738E+03  0.47000000000E+01 0. -1.
        -13    1    4    4    0    0 -0.17282927963E+02 -0.86106905435E+01  0.48092022449E+02  0.51823606723E+02  0.00000000000E+00 0.  1.
         14    1    4    4    0    0  0.91244237885E+01 -0.28913943542E+02 -0.24401036717E+02  0.38918913571E+02  0.00000000000E+00 0. -1.
         -5    1    5    5    0  502  0.36675341083E+02  0.76476321146E+01  0.36883433270E+02  0.52782995086E+02  0.47000000000E+01 0.  1.
         11    1    6    6    0    0 -0.42262769370E+02 -0.47069083837E+02  0.23498509890E+03  0.24335085172E+03  0.00000000000E+00 0. -1.
        -12    1    6    6    0    0 -0.12373027671E+02  0.14720438863E+02  0.33834189610E+03  0.33888791921E+03  0.00000000000E+00 0.  1.
</event>
<event>
12    1  0.8633375E-002  0.2504467E+03  0.7818608E-02  0.1113060E+00
         21   -1    0    0  503  502  0.00000000000E+00  0.00000000000E+00  0.34246226093E+03  0.34246226093E+03  0.00000000000E+00 0.  1.
         21   -1    0    0  501  503 -0.00000000000E+00 -0.00000000000E+00 -0.20516897583E+03  0.20516897583E+03  0.00000000000E+00 0.  1.
          6    2    1    2  501    0 -0.18148392148E+03 -0.10868966284E+02  0.15865721902E+03  0.29627499738E+03  0.17190757035E+03 0.  0.
         24    2    3    3    0    0 -0.94946640208E+02  0.35517583580E+02  0.24353533585E+02  0.12984187875E+03  0.77391573493E+02 0.  0.
         -6    2    1    2    0  502  0.18148392148E+03  0.10868966284E+02 -0.21363933919E+02  0.25135623939E+03  0.17224689612E+03 0.  0.
        -24    2    5    5    0    0  0.17289419925E+03  0.47715158426E+02 -0.41741741629E+02  0.20812696400E+03  0.96981027388E+02 0.  0.
          5    1    3    3  501    0 -0.86537281269E+02 -0.46386549864E+02  0.13430368543E+03  0.16643311863E+03  0.47000000000E+01 0. -1.
        -11    1    4    4    0    0 -0.91252677772E+02  0.17031843329E+02  0.43900447497E+02  0.10268585189E+03  0.00000000000E+00 0.  1.
         12    1    4    4    0    0 -0.36939624359E+01  0.18485740251E+02 -0.19546913912E+02  0.27156026856E+02  0.00000000000E+00 0. -1.
         -5    1    5    5    0  502  0.85897222270E+01 -0.36846192141E+02  0.20377807710E+02  0.43229275385E+02  0.47000000000E+01 0.  1.
         13    1    6    6    0    0  0.42595749123E+02  0.50245325480E+02 -0.41405271983E+02  0.77803516142E+02  0.00000000000E+00 0. -1.
        -14    1    6    6    0    0  0.13029845013E+03 -0.25301670546E+01 -0.33646964534E+00  0.13032344786E+03  0.00000000000E+00 0.  1.
</event>
<event>
12    1  0.8633375E-002  0.2160125E+03  0.7818608E-02  0.1137600E+00
         21   -1    0    0  503  502  0.00000000000E+00  0.00000000000E+00  0.91087189051E+03  0.91087189051E+03  0.00000000000E+00 0.  1.
         21   -1    0    0  501  503 -0.00000000000E+00 -0.00000000000E+00 -0.55470664369E+02  0.55470664369E+02  0.00000000000E+00 0.  1.
          6    2    1    2  501    0  0.82889744370E+02 -0.97620997883E+02  0.28435424309E+03  0.35709767577E+03  0.17395644721E+03 0.  0.
         24    2    3    3    0    0  0.55931895281E+02 -0.99928080459E+02  0.10149213354E+03  0.17218502242E+03  0.78949544662E+02 0.  0.
         -6    2    1    2    0  502 -0.82889744370E+02  0.97620997883E+02  0.57104698305E+03  0.60924487911E+03  0.16936380051E+03 0.  0.
        -24    2    5    5    0    0 -0.63090981126E+01 -0.15497082051E+01  0.17390648800E+03  0.19278109061E+03  0.82938989698E+02 0.  0.
          5    1    3    3  501    0  0.26957849088E+02  0.23070825770E+01  0.18286210955E+03  0.18491265335E+03  0.47000000000E+01 0. -1.
        -13    1    4    4    0    0  0.10381718307E+02 -0.47211766570E+02  0.89176287892E+02  0.10143540457E+03  0.00000000000E+00 0.  1.
         14    1    4    4    0    0  0.45550176974E+02 -0.52716313889E+02  0.12315845645E+02  0.70749617853E+02  0.00000000000E+00 0. -1.
         -5    1    5    5    0  502 -0.76580646257E+02  0.99170706088E+02  0.39714049506E+03  0.41646378851E+03  0.47000000000E+01 0.  1.
         13    1    6    6    0    0  0.98674612245E+01  0.43795349097E+01 -0.57969443704E+01  0.12253639503E+02  0.00000000000E+00 0. -1.
        -14    1    6    6    0    0 -0.16176559337E+02 -0.59292431148E+01  0.17970343237E+03  0.18052745110E+03  0.00000000000E+00 0.  1.
</event>
<event>
12    1  0.8633375E-002  0.2668813E+03  0.7818608E-02  0.1104910E+00
         21   -1    0    0  503  502  0.00000000000E+00  0.00000000000E+00  0.51726472504E+03  0.51726472504E+03  0.00000000000E+00 0. -1.
         21   -1    0    0  501  503 -0.00000000000E+00 -0.00000000000E+00 -0.23394926922E+03  0.23394926922E+03  0.00000000000E+00 0. -1.
          6    2    1    2  501    0  0.46651643566E+02  0.17906442835E+03 -0.10507850057E+03  0.28682240938E+03  0.19231525652E+03 0.  0.
         24    2    3    3    0    0 -0.85078045139E+01  0.78567003136E+02  0.16822924100E+02  0.11941767670E+03  0.87934145890E+02 0.  0.
         -6    2    1    2    0  502 -0.46651643566E+02 -0.17906442835E+03  0.38839395638E+03  0.46439158488E+03  0.17484059425E+03 0.  0.
        -24    2    5    5    0    0 -0.43592605825E+02 -0.20378683694E+03  0.37558669015E+03  0.43598962602E+03  0.74781026898E+02 0.  0.
          5    1    3    3  501    0  0.55159448080E+02  0.10049742522E+03 -0.12190142466E+03  0.16740473268E+03  0.47000000000E+01 0. -1.
        -13    1    4    4    0    0 -0.41924067399E+02  0.21723322293E+02  0.24217409472E+02  0.53066119891E+02  0.00000000000E+00 0.  1.
         14    1    4    4    0    0  0.33416262885E+02  0.56843680843E+02 -0.73944853727E+01  0.66351556809E+02  0.00000000000E+00 0. -1.
         -5    1    5    5    0  502 -0.30590377409E+01  0.24722408591E+02  0.12807266233E+02  0.28401958855E+02  0.47000000000E+01 0.  1.
         11    1    6    6    0    0  0.20030757828E+02 -0.61505196687E+02  0.12830145268E+03  0.14368501396E+03  0.00000000000E+00 0. -1.
        -12    1    6    6    0    0 -0.63623363653E+02 -0.14228164026E+03  0.24728523747E+03  0.29230461206E+03  0.00000000000E+00 0.  1.
</event>
<event>
12    1  0.8633375E-002  0.1862386E+03  0.7818608E-02  0.1162160E+00
         21   -1    0    0  501  502  0.00000000000E+00  0.00000000000E+00  0.89512178303E+02  0.89512178303E+02  0.00000000000E+00 0. -1.
         21   -1    0    0  502  503 -0.00000000000E+00 -0.00000000000E+00 -0.44450080514E+03  0.44450080514E+03  0.00000000000E+00 0. -1.
         -6    2    1    2    0  503  0.70435806162E+02 -0.12683380954E+02 -0.27459848495E+03  0.33116474109E+03  0.17071522153E+03 0.  0.
        -24    2    3    3    0    0  0.97213499156E+01  0.24592290126E+02 -0.23310946071E+03  0.24858659638E+03  0.82194828592E+02 0.  0.
          6    2    1    2  501    0 -0.70435806162E+02  0.12683380954E+02 -0.80390141893E+02  0.20284824236E+03  0.17193825512E+03 0.  0.
         24    2    5    5    0    0 -0.23911293317E+02 -0.18619817919E+02  0.22790331324E+02  0.85320711080E+02  0.76431518170E+02 0.  0.
          5    1    5    5  501    0 -0.46524512845E+02  0.31303198873E+02 -0.10318047322E+03  0.11752753128E+03  0.47000000000E+01 0. -1.
        -11    1    6    6    0    0 -0.49282125063E+02 -0.14311698180E+02  0.57053208805E+00  0.51321321713E+02  0.00000000000E+00 0.  1.
         12    1    6    6    0    0  0.25370831746E+02 -0.43081197393E+01  0.22219799236E+02  0.33999389366E+02  0.00000000000E+00 0. -1.
         -5    1    3    3    0  503  0.60714456247E+02 -0.37275671080E+02 -0.41489024234E+02  0.82578144710E+02  0.47000000000E+01 0.  1.
         11    1    4    4    0    0 -0.11131314673E+02 -0.27686076683E+02 -0.72504981455E+02  0.78405340024E+02  0.00000000000E+00 0. -1.
        -12    1    4    4    0    0  0.20852664589E+02  0.52278366809E+02 -0.16060447926E+03  0.17018125635E+03  0.00000000000E+00 0.  1.
</event>
<event>
12    1  0.8633375E-002  0.3124282E+03  0.7818608E-02  0.1079316E+00
         21   -1    0    0  503  502  0.00000000000E+00  0.00000000000E+00  0.74984475227E+02  0.74984475227E+02  0.00000000000E+00 0. -1.
         21   -1    0    0  501  503 -0.00000000000E+00 -0.00000000000E+00 -0.16162989696E+04  0.16162989696E+04  0.00000000000E+00 0.  1.
          6    2    1    2  501    0  0.23362549970E+03  0.11494702341E+03 -0.39602749220E+03  0.50442952478E+03  0.17267796208E+03 0.  0.
         24    2    3    3    0    0  0.17153239687E+03  0.93021913563E+02 -0.38294044044E+03  0.43712703757E+03  0.79751028023E+02 0.  0.
         -6    2    1    2    0  502 -0.23362549970E+03 -0.11494702341E+03 -0.11452870022E+04  0.11868539201E+04  0.17072263438E+03 0.  0.
        -24    2    5    5    0    0 -0.22014154344E+03 -0.84705476838E+02 -0.76897121520E+03  0.80905499239E+03  0.87269318485E+02 0.  0.
          5    1    3    3  501    0  0.62093102831E+02  0.21925109848E+02 -0.13087051762E+02  0.67302487212E+02  0.47000000000E+01 0. -1.
        -13    1    4    4    0    0  0.17338723993E+03  0.72098686355E+02 -0.32306677503E+03  0.37367565705E+03  0.00000000000E+00 0.  1.
         14    1    4    4    0    0 -0.18548430663E+01  0.20923227208E+02 -0.59873665410E+02  0.63451380515E+02  0.00000000000E+00 0. -1.
         -5    1    5    5    0  502 -0.13483956256E+02 -0.30241546572E+02 -0.37631578700E+03  0.37779892769E+03  0.47000000000E+01 0.  1.
         13    1    6    6    0    0  0.60553667101E+01  0.13645052908E+01 -0.60556506003E+01  0.86718074746E+01  0.00000000000E+00 0. -1.
        -14    1    6    6    0    0 -0.22619691015E+03 -0.86069982129E+02 -0.76291556460E+03  0.80038318492E+03  0.00000000000E+00 0.  1.
</event>
<event>
12    1  0.8633375E-002  0.1725184E+03  0.7818608E-02  0.1175391E+00
         21   -1    0    0  503  502  0.00000000000E+00  0.00000000000E+00  0.24144412485E+03  0.24144412485E+03  0.00000000000E+00 0. -1.
         21   -1    0    0  501  503 -0.00000000000E+00 -0.00000000000E+00 -0.27864441879E+03  0.27864441879E+03  0.00000000000E+00 0. -1.
          6    2    1    2  501    0  0.15832064396E+01 -0.31057700444E+02 -0.21302105082E+03  0.27376446277E+03  0.16912103856E+03 0.  0.
         24    2    3    3    0    0 -0.14875159513E+02  0.40295814754E+02 -0.78106212275E+02  0.12018612575E+03  0.80617004228E+02 0.  0.
         -6    2    1    2    0  502 -0.15832064396E+01  0.31057700444E+02  0.17582075688E+03  0.24632408087E+03  0.16969244817E+03 0.  0.
        -24    2    5    5    0    0 -0.50065584093E+02  0.12428399570E+02  0.42118374119E+02  0.10281098408E+03  0.78326963312E+02 0.  0.
          5    1    3    3  501    0  0.16458365952E+02 -0.71353515198E+02 -0.13491483854E+03  0.15357833701E+03  0.47000000000E+01 0. -1.
        -11    1    4    4    0    0 -0.29091114715E+02 -0.11272033147E+02 -0.83788093942E+01  0.32304119451E+02  0.00000000000E+00 0.  1.
         12    1    4    4    0    0  0.14215955203E+02  0.51567847901E+02 -0.69727402880E+02  0.87882006303E+02  0.00000000000E+00 0. -1.
         -5    1    5    5    0  502  0.48482377654E+02  0.18629300874E+02  0.13370238276E+03  0.14351309679E+03  0.47000000000E+01 0.  1.
         13    1    6    6    0    0  0.14294951293E+02  0.60912880416E+01 -0.11068357086E+02  0.19077682015E+02  0.00000000000E+00 0. -1.
        -14    1    6    6    0    0 -0.64360535386E+02  0.63371115289E+01  0.53186731205E+02  0.83733302061E+02  0.00000000000E+00 0.  1.
</event>
<event>
12    1  0.8633375E-002  0.1869906E+03  0.7818608E-02  0.1161733E+00
         21   -1    0    0  501  502  0.00000000000E+00  0.00000000000E+00  0.11985907613E+03  0.11985907613E+03  0.00000000000E+00 0.  1.
         21   -1    0    0  502  503 -0.00000000000E+00 -0.00000000000E+00 -0.29589512574E+03  0.29589512574E+03  0.00000000000E+00 0.  1.
         -6    2    1    2    0  503  0.67101206413E+02 -0.24256017631E+02 -0.12107057418E+03  0.22085244989E+03  0.17037251656E+03 0.  0.
        -24    2    3    3    0    0  0.61347839686E+02 -0.49321615499E+02 -0.16319245386E+02  0.11288802839E+03  0.79254085036E+02 0.  0.
          6    2    1    2  501    0 -0.67101206413E+02  0.24256017631E+02 -0.54965475433E+02  0.19490175198E+03  0.17284259643E+03 0.  0.
         24    2    5    5    0    0 -0.42602520230E+02  0.75258255092E+02 -0.66864777046E+02  0.13689229388E+03  0.82400376356E+02 0.  0.
          5    1    5    5  501    0 -0.24498686183E+02 -0.51002237461E+02  0.11899301613E+02  0.58009458105E+02  0.47000000000E+01 0. -1.
        -11    1    6    6    0    0 -0.16346163204E+02  0.12228205579E+02 -0.65490442557E+02  0.68598280806E+02  0.00000000000E+00 0.  1.
         12    1    6    6    0    0 -0.26256357026E+02  0.63030049513E+02 -0.13743344889E+01  0.68294013070E+02  0.00000000000E+00 0. -1.
         -5    1    3    3    0  503  0.57533667268E+01  0.25065597868E+02 -0.10475132880E+03  0.10796442150E+03  0.47000000000E+01 0.  1.
         11    1    4    4    0    0  0.10982232679E+02  0.19170348224E+02 -0.16986812545E+02  0.27868682891E+02  0.00000000000E+00 0. -1.
        -12    1    4    4    0    0  0.50365607007E+02 -0.68491963722E+02  0.66756715883E+00  0.85019345502E+02  0.00000000000E+00 0.  1.
</event>
<event>
12    1  0.8633375E-002  0.1827226E+03  0.7818608E-02  0.1165299E+00
         21   -1    0    0  503  502  0.00000000000E+00  0.00000000000E+00  0.27775725508E+02  0.27775725508E+02  0.00000000000E+00 0. -1.
         21   -1    0    0  501  503 -0.00000000000E+00 -0.00000000000E+00 -0.21719719559E+04  0.21719719559E+04  0.00000000000E+00 0. -1.
          6    2    1    2  501    0 -0.11064262411E+02  0.59319309050E+02 -0.18089154321E+04  0.18181206201E+04  0.17247130319E+03 0.  0.
         24    2    3    3    0    0  0.91132785654E+01  0.96540871837E+02 -0.15978832219E+04  0.16028318335E+04  0.80224085287E+02 0.  0.
         -6    2    1    2    0  502  0.11064262411E+02 -0.59319309050E+02 -0.33528079826E+03  0.38162706127E+03  0.17200233105E+03 0.  0.
        -24    2    5    5    0    0  0.10368239148E+02 -0.41674910950E+02 -0.63089602749E+02  0.10882320106E+03  0.77575076722E+02 0.  0.
          5    1    3    3  501    0 -0.20177540976E+02 -0.37221562787E+02 -0.21103221018E+03  0.21528878659E+03  0.47000000000E+01 0. -1.
        -11    1    4    4    0    0  0.13314933065E+02  0.78259307878E+02 -0.65941253147E+03  0.66417369217E+03  0.00000000000E+00 0.  1.
         12    1    4    4    0    0 -0.42016544998E+01  0.18281563958E+02 -0.93847069046E+03  0.93865814136E+03  0.00000000000E+00 0. -1.
         -5    1    5    5    0  502  0.69602326298E+00 -0.17644398100E+02 -0.27219119551E+03  0.27280386021E+03  0.47000000000E+01 0.  1.
         13    1    6    6    0    0 -0.34188206773E+01 -0.56483304260E+02 -0.67534617576E+02  0.88107755426E+02  0.00000000000E+00 0. -1.
        -14    1    6    6    0    0  0.13787059825E+02  0.14808393310E+02  0.44450148278E+01  0.20715445636E+02  0.00000000000E+00 0.  1.
</event>
<event>
12    1  0.8633375E-002  0.1923331E+03  0.7818608E-02  0.1156629E+00
         21   -1    0    0  501  502  0.00000000000E+00  0.00000000000E+00  0.26323816190E+03  0.26323816190E+03  0.00000000000E+00 0.  1.
         21   -1    0    0  502  503 -0.00000000000E+00 -0.00000000000E+00 -0.14126004653E+03  0.14126004653E+03  0.00000000000E+00 0.  1.
         -6    2    1    2    0  503  0.83772890192E+02  0.20287982543E+02  0.39842428266E+02  0.19641650450E+03  0.17193756071E+03 0.  0.
        -24    2    3    3    0    0  0.12005933764E+03  0.24661111505E+02  0.48037725092E+01  0.14556743447E+03  0.78386138902E+02 0.  0.
          6    2    1    2  501    0 -0.83772890192E+02 -0.20287982543E+02  0.82135687102E+02  0.20808170394E+03  0.17065235144E+03 0.  0.
         24    2    5    5    0    0  0.65881292538E+00  0.37065281837E+02  0.33685366562E+02  0.94999287148E+02  0.80721072132E+02 0.  0.
          5    1    5    5  501    0 -0.84431703117E+02 -0.57353264381E+02  0.48450320540E+02  0.11308241679E+03  0.47000000000E+01 0. -1.
        -13    1    6    6    0    0 -0.33900731015E+02  0.38433759368E+02  0.78894018564E+01  0.51852252451E+02  0.00000000000E+00 0.  1.
         14    1    6    6    0    0  0.34559543940E+02 -0.13684775310E+01  0.25795964705E+02  0.43147034698E+02  0.00000000000E+00 0. -1.
         -5    1    3    3    0  503 -0.36286447452E+02 -0.43731289618E+01  0.35038655757E+02  0.50849070029E+02  0.47000000000E+01 0.  1.
         13    1    4    4    0    0 -0.59213862823E+01  0.11533236636E+02 -0.12158566506E+02  0.17773831953E+02  0.00000000000E+00 0. -1.
        -14    1    4    4    0    0  0.12598072393E+03  0.13127874869E+02  0.16962339016E+02  0.12779360252E+03  0.00000000000E+00 0.  1.
</event>
<event>
12    1  0.8633375E-002  0.2011600E+03  0.7818608E-02  0.1149544E+00
         21   -1    0    0  501  502  0.00000000000E+00  0.00000000000E+00  0.70733685158E+03  0.70733685158E+03  0.00000000000E+00 0.  1.
         21   -1    0    0  502  503 -0.00000000000E+00 -0.00000000000E+00 -0.60467764624E+02  0.60467764624E+02  0.00000000000E+00 0.  1.
         -6    2    1    2    0  503 -0.82719601992E+02  0.48214910655E+02  0.21823435885E+03  0.29431429431E+03  0.17270627751E+03 0.  0.
        -24    2    3    3    0    0 -0.82864814633E+02 -0.54561163328E+01  0.21001904344E+03  0.23981492155E+03  0.80665056113E+02 0.  0.
          6    2    1    2  501    0  0.82719601992E+02 -0.48214910655E+02  0.42863472811E+03  0.47349032190E+03  0.17691281645E+03 0.  0.
         24    2    5    5    0    0  0.94063189727E+02 -0.90463896095E+02  0.36466618319E+03  0.39585193904E+03  0.81766327552E+02 0.  0.
          5    1    5    5  501    0 -0.11343587735E+02  0.42248985440E+02  0.63968544922E+02  0.77638382858E+02  0.47000000000E+01 0. -1.
        -11    1    6    6    0    0  0.74426895042E+02 -0.60217647776E+02  0.33718496073E+03  0.35051280369E+03  0.00000000000E+00 0.  1.
         12    1    6    6    0    0  0.19636294685E+02 -0.30246248319E+02  0.27481222461E+02  0.45339135350E+02  0.00000000000E+00 0. -1.
         -5    1    3    3    0  503  0.14521264020E+00  0.53671026987E+02  0.82153154060E+01  0.54499372765E+02  0.47000000000E+01 0.  1.
         11    1    4    4    0    0 -0.20782154453E+02 -0.35258187465E+02  0.11789147528E+03  0.12479358024E+03  0.00000000000E+00 0. -1.
        -12    1    4    4    0    0 -0.62082660180E+02  0.29802071132E+02  0.92127568168E+02  0.11502134130E+03  0.00000000000E+00 0.  1.
</event>
<event>
12    1  0.8633375E-002  0.2145942E+03  0.7818608E-02  0.1138300E+00
         21   -1    0    0  503  502  0.00000000000E+00  0.00000000000E+00  0.50590169320E+02  0.50590169320E+02  0.00000000000E+00 0. -1.
         21   -1    0    0  501  503 -0.00000000000E+00 -0.00000000000E+00 -0.97283742179E+03  0.97283742179E+03  0.00000000000E+00 0. -1.
          6    2    1    2  501    0  0.12700440697E+03  0.10239793789E+01 -0.59966812714E+03  0.63690857838E+03  0.17297256022E+03 0.  0.
         24    2    3    3    0    0  0.14391080333E+03 -0.16264909123E+02 -0.58523472198E+03  0.60835783254E+03  0.81392297036E+02 0.  0.
         -6    2    1    2    0  502 -0.12700440697E+03 -0.10239793789E+01 -0.32257912533E+03  0.38651901273E+03  0.17090490683E+03 0.  0.
        -24    2    5    5    0    0 -0.15345970385E+03 -0.19389348365E+02 -0.22923532203E+03  0.28766394140E+03  0.79220469468E+02 0.  0.
          5    1    3    3  501    0 -0.16906396363E+02  0.17288888502E+02 -0.14433405156E+02  0.28550745840E+02  0.47000000000E+01 0. -1.
        -11    1    4    4    0    0  0.32669662384E+02 -0.13132791959E+02 -0.30198884149E+03  0.30403459910E+03  0.00000000000E+00 0.  1.
         12    1    4    4    0    0  0.11124114095E+03 -0.31321171644E+01 -0.28324588050E+03  0.30432323345E+03  0.00000000000E+00 0. -1.
         -5    1    5    5    0  502  0.26455296883E+02  0.18365368986E+02 -0.93343803302E+02  0.98855071322E+02  0.47000000000E+01 0.  1.
         11    1    6    6    0    0 -0.10017428309E+03 -0.48809585654E+02 -0.12972572315E+03  0.17101469496E+03  0.00000000000E+00 0. -1.
        -12    1    6    6    0    0 -0.53285420758E+02  0.29420237289E+02 -0.99509598877E+02  0.11664924644E+03  0.00000000000E+00 0.  1.
</event>
<event>
12    1  0.8633375E-002  0.2215180E+03  0.7818608E-02  0.1132851E+00
         21   -1    0    0  501  502  0.00000000000E+00  0.00000000000E+00  0.43785745756E+03  0.43785745756E+03  0.00000000000E+00 0.  1.
         21   -1    0    0  502  503 -0.00000000000E+00 -0.00000000000E+00 -0.11773839322E+03  0.11773839322E+03  0.00000000000E+00 0.  1.
         -6    2    1    2    0  503 -0.10769341904E+02  0.13808315572E+03  0.97545749921E+02  0.24157496280E+03  0.17222181251E+03 0.  0.
        -24    2    3    3    0    0  0.19140670764E+02  0.72319382965E+01  0.58063584034E+02  0.10158360099E+03  0.80803353828E+02 0.  0.
          6    2    1    2  501    0  0.10769341904E+02 -0.13808315572E+03  0.22257331442E+03  0.31402088798E+03  0.17287944118E+03 0.  0.
         24    2    5    5    0    0  0.22334247806E+02 -0.15137033338E+03  0.23550170981E+03  0.29167073036E+03  0.78733494601E+02 0.  0.
          5    1    5    5  501    0 -0.11564905902E+02  0.13287177661E+02 -0.12928395388E+02  0.22350157629E+02  0.47000000000E+01 0. -1.
        -13    1    6    6    0    0  0.48704153062E+02 -0.10811053966E+03  0.18769744296E+03  0.22201421892E+03  0.00000000000E+00 0.  1.
         14    1    6    6    0    0 -0.26369905256E+02 -0.43259793723E+02  0.47804266844E+02  0.69656511431E+02  0.00000000000E+00 0. -1.
         -5    1    3    3    0  503 -0.29910012668E+02  0.13085121742E+03  0.39482165887E+02  0.13999136181E+03  0.47000000000E+01 0.  1.
         11    1    4    4    0    0  0.43907609987E+02 -0.92958651045E+01  0.11528380278E+02  0.46337834160E+02  0.00000000000E+00 0. -1.
        -12    1    4    4    0    0 -0.24766939223E+02  0.16527803401E+02  0.46535203755E+02  0.55245766827E+02  0.00000000000E+00 0.  1.
</event>
<event>
12    1  0.8633375E-002  0.1743856E+03  0.7818608E-02  0.1173355E+00
         21   -1    0    0  501  502  0.00000000000E+00  0.00000000000E+00  0.11360166857E+04  0.11360166857E+04  0.00000000000E+00 0. -1.
         21   -1    0    0  502  503 -0.00000000000E+00 -0.00000000000E+00 -0.11443652088E+03  0.11443652088E+03  0.00000000000E+00 0. -1.
         -6    2    1    2    0  503  0.11464876269E+02  0.24451258369E+02 -0.36447632060E+02  0.17815382132E+03  0.17228188165E+03 0.  0.
        -24    2    3    3    0    0  0.37449154295E+02 -0.17704878648E+02  0.28773007937E+02  0.96128554026E+02  0.81834656644E+02 0.  0.
          6    2    1    2  501    0 -0.11464876269E+02 -0.24451258369E+02  0.10580277969E+04  0.10722993853E+04  0.17226097998E+03 0.  0.
         24    2    5    5    0    0 -0.12704201967E+02 -0.67024028643E+01  0.10481929524E+04  0.10514338164E+04  0.81229832876E+02 0.  0.
          5    1    5    5  501    0  0.12393256976E+01 -0.17748855504E+02  0.98348444826E+01  0.20865568909E+02  0.47000000000E+01 0. -1.
        -11    1    6    6    0    0  0.32865622591E+02 -0.15073737073E+02  0.45850509484E+03  0.45992856912E+03  0.00000000000E+00 0.  1.
         12    1    6    6    0    0 -0.45569824558E+02  0.83713342091E+01  0.58968785760E+03  0.59150524727E+03  0.00000000000E+00 0. -1.
         -5    1    3    3    0  503 -0.25984278026E+02  0.42156137017E+02 -0.65220639998E+02  0.82025267292E+02  0.47000000000E+01 0.  1.
         11    1    4    4    0    0  0.23683341393E+02  0.21837232564E+02 -0.15017130626E+02  0.35542644778E+02  0.00000000000E+00 0. -1.
        -12    1    4    4    0    0  0.13765812902E+02 -0.39542111212E+02  0.43790138564E+02  0.60585909248E+02  0.00000000000E+00 0.  1.
</event>
<event>
12    1  0.8633375E-002  0.2296569E+03  0.7818608E-02  0.1126895E+00
         21   -1    0    0  503  502  0.00000000000E+00  0.00000000000E+00  0.35613412497E+03  0.35613412497E+03  0.00000000000E+00 0. -1.
         21   -1    0    0  501  503 -0.00000000000E+00 -0.00000000000E+00 -0.24179239292E+03  0.24179239292E+03  0.00000000000E+00 0. -1.
          6    2    1    2  501    0 -0.89183636747E+01 -0.15169783297E+03 -0.12898891649E+03  0.26333411549E+03  0.17208993598E+03 0.  0.
         24    2    3    3    0    0  0.51535257100E+02 -0.12559419556E+03 -0.60435648057E+02  0.16816226691E+03  0.78716553346E+02 0.  0.
         -6    2    1    2    0  502  0.89183636747E+01  0.15169783297E+03  0.24333064854E+03  0.33459240239E+03  0.17219320974E+03 0.  0.
        -24    2    5    5    0    0  0.35820885921E+02  0.16500008270E+03  0.16332202476E+03  0.24901106430E+03  0.82609098858E+02 0.  0.
          5    1    3    3  501    0 -0.60453620775E+02 -0.26103637407E+02 -0.68553268431E+02  0.95171848586E+02  0.47000000000E+01 0. -1.
        -13    1    4    4    0    0  0.27316182681E+02 -0.11328157561E+01 -0.23619850323E+02  0.36129689136E+02  0.00000000000E+00 0.  1.
         14    1    4    4    0    0  0.24219074419E+02 -0.12446137981E+03 -0.36815797734E+02  0.13203257777E+03  0.00000000000E+00 0. -1.
         -5    1    5    5    0  502 -0.26902522246E+02 -0.13302249726E+02  0.80008623776E+02  0.85581338091E+02  0.47000000000E+01 0.  1.
         13    1    6    6    0    0  0.35077835518E+02  0.10592989277E+03  0.52266474220E+02  0.12322086290E+03  0.00000000000E+00 0. -1.
        -14    1    6    6    0    0  0.74305040269E+00  0.59070189928E+02  0.11105555054E+03  0.12579020140E+03  0.00000000000E+00 0.  1.
</event>
<event>
12    1  0.8633375E-002  0.1839678E+03  0.7818608E-02  0.1164277E+00
         21   -1    0    0  503  502  0.00000000000E+00  0.00000000000E+00  0.16652097989E+04  0.16652097989E+04  0.00000000000E+00 0. -1.
         21   -1    0    0  501  503 -0.00000000000E+00 -0.00000000000E+00 -0.90715252594E+02  0.90715252594E+02  0.00000000000E+00 0. -1.
          6    2    1    2  501    0 -0.47498393497E+02  0.44282453243E+02  0.12673219168E+02  0.18330621510E+03  0.17094889576E+03 0.  0.
         24    2    3    3    0    0 -0.37059516534E+02 -0.20591530621E+02 -0.40608394333E+02  0.98579452670E+02  0.79192473755E+02 0.  0.
         -6    2    1    2    0  502  0.47498393497E+02 -0.44282453243E+02  0.15618213271E+04  0.15726188363E+04  0.17212528467E+03 0.  0.
        -24    2    5    5    0    0  0.66568398031E+02 -0.79542659851E+02  0.84105205615E+03  0.85072038145E+03  0.74821253090E+02 0.  0.
          5    1    3    3  501    0 -0.10438876963E+02  0.64873983864E+02  0.53281613501E+02  0.84726762431E+02  0.47000000000E+01 0. -1.
        -11    1    4    4    0    0  0.18103582747E+02 -0.26875052118E+02 -0.54371989010E+01  0.32856829831E+02  0.00000000000E+00 0.  1.
         12    1    4    4    0    0 -0.55163099281E+02  0.62835214974E+01 -0.35171195432E+02  0.65722622839E+02  0.00000000000E+00 0. -1.
         -5    1    5    5    0  502 -0.19070004534E+02  0.35260206607E+02  0.72076927095E+03  0.72189845490E+03  0.47000000000E+01 0.  1.
         13    1    6    6    0    0  0.35984563495E+02 -0.92416152153E+01  0.48940180537E+03  0.49080996665E+03  0.00000000000E+00 0. -1.
        -14    1    6    6    0    0  0.30583834536E+02 -0.70301044636E+02  0.35165025077E+03  0.35991041480E+03  0.00000000000E+00 0.  1.
</event>
<event>
12    1  0.8633375E-002  0.1958228E+03  0.7818608E-02  0.1154327E+00
         21   -1    0    0  503  502  0.00000000000E+00  0.00000000000E+00  0.38377448149E+03  0.38377448149E+03  0.00000000000E+00 0. -1.
         21   -1    0    0  501  503 -0.00000000000E+00 -0.00000000000E+00 -0.11691963165E+03  0.11691963165E+03  0.00000000000E+00 0. -1.
          6    2    1    2  501    0 -0.36348588680E+02  0.85538281484E+02  0.32932693520E+02  0.19857270765E+03  0.17236165590E+03 0.  0.
         24    2    3    3    0    0 -0.39254041790E+02  0.20337210849E+02  0.77610972655E+02  0.11933976062E+03  0.79145647040E+02 0.  0.
         -6    2    1    2    0  502  0.36348588680E+02 -0.85538281484E+02  0.23392215632E+03  0.30212140548E+03  0.16709204331E+03 0.  0.
        -24    2    5    5    0    0  0.24094115625E+02 -0.10495343312E+03  0.24258255893E+03  0.27713715452E+03  0.79768132663E+02 0.  0.
          5    1    3    3  501    0  0.29054531098E+01  0.65201070635E+02 -0.44678279134E+02  0.79232947037E+02  0.47000000000E+01 0. -1.
        -13    1    4    4    0    0  0.12178753102E+02 -0.16079896736E+02  0.10792435102E+01  0.20200244372E+02  0.00000000000E+00 0.  1.
         14    1    4    4    0    0 -0.51432794891E+02  0.36417107584E+02  0.76531729144E+02  0.99139516243E+02  0.00000000000E+00 0. -1.
         -5    1    5    5    0  502  0.12254473055E+02  0.19415151635E+02 -0.86604026091E+01  0.24984250964E+02  0.47000000000E+01 0.  1.
         13    1    6    6    0    0  0.11421857773E+02 -0.48643025379E+02  0.33311038918E+02  0.60051878129E+02  0.00000000000E+00 0. -1.
        -14    1    6    6    0    0  0.12672257852E+02 -0.56310407741E+02  0.20927152001E+03  0.21708527639E+03  0.00000000000E+00 0.  1.
</event>
<event>
12    1  0.8633375E-002  0.2061197E+03  0.7818608E-02  0.1144970E+00
         21   -1    0    0  503  502  0.00000000000E+00  0.00000000000E+00  0.90972604182E+03  0.90972604182E+03  0.00000000000E+00 0.  1.
         21   -1    0    0  501  503 -0.00000000000E+00 -0.00000000000E+00 -0.67371315838E+02  0.67371315838E+02  0.00000000000E+00 0.  1.
          6    2    1    2  501    0  0.27847936448E+02  0.10952305677E+03  0.69493167832E+03  0.72485540034E+03  0.17237896141E+03 0.  0.
         24    2    3    3    0    0  0.40487959213E+02  0.63965114778E+02  0.20595150418E+03  0.23357238928E+03  0.80057655529E+02 0.  0.
         -6    2    1    2    0  502 -0.27847936448E+02 -0.10952305677E+03  0.14742304766E+03  0.25224195732E+03  0.17065064465E+03 0.  0.
        -24    2    5    5    0    0 -0.35778803852E+02  0.49934830985E+01  0.45949655930E+02  0.98958312427E+02  0.79851856833E+02 0.  0.
          5    1    3    3  501    0 -0.12640022766E+02  0.45557941996E+02  0.48898017414E+03  0.49128301106E+03  0.47000000000E+01 0. -1.
        -11    1    4    4    0    0  0.22505664705E+02  0.34632224064E+02  0.19208796353E+03  0.19647819630E+03  0.00000000000E+00 0.  1.
         12    1    4    4    0    0  0.17982294508E+02  0.29332890714E+02  0.13863540649E+02  0.37094192979E+02  0.00000000000E+00 0. -1.
         -5    1    5    5    0  502  0.79308674045E+01 -0.11451653987E+03  0.10147339173E+03  0.15328364489E+03  0.47000000000E+01 0.  1.
         11    1    6    6    0    0 -0.51792518306E+02 -0.94150765462E+01  0.54509165337E+02  0.75778346014E+02  0.00000000000E+00 0. -1.
        -12    1    6    6    0    0  0.16013714454E+02  0.14408559645E+02 -0.85595094065E+01  0.23179966413E+02  0.00000000000E+00 0.  1.
</event>
<event>
12    1  0.8633375E-002  0.1930960E+03  0.7818608E-02  0.1155733E+00
         21   -1    0    0  503  502  0.00000000000E+00  0.00000000000E+00  0.81150060034E+03  0.81150060034E+03  0.00000000000E+00 0. -1.
         21   -1    0    0  501  503 -0.00000000000E+00 -0.00000000000E+00 -0.46377887780E+02  0.46377887780E+02  0.00000000000E+00 0. -1.
          6    2    1    2  501    0 -0.65877937965E+02  0.57085886578E+02  0.33928735839E+03  0.39030836008E+03  0.17212205910E+03 0.  0.
         24    2    3    3    0    0  0.13781817789E+02  0.51579921479E+01  0.23415732516E+03  0.24847537099E+03  0.81815730016E+02 0.  0.
         -6    2    1    2    0  502  0.65877937965E+02 -0.57085886578E+02  0.42583535417E+03  0.46757012804E+03  0.17230024556E+03 0.  0.
        -24    2    5    5    0    0  0.95006106979E+02 -0.50239565565E+02  0.20301707870E+03  0.24270261988E+03  0.78348281048E+02 0.  0.
          5    1    3    3  501    0 -0.79659755755E+02  0.51927894430E+02  0.10513003323E+03  0.14183298909E+03  0.47000000000E+01 0. -1.
        -11    1    4    4    0    0 -0.44318346743E+01 -0.94476044079E+01 -0.24498589869E+01  0.10719150931E+02  0.00000000000E+00 0.  1.
         12    1    4    4    0    0  0.18213652464E+02  0.14605596556E+02  0.23660718415E+03  0.23775622006E+03  0.00000000000E+00 0. -1.
         -5    1    5    5    0  502 -0.29128169013E+02 -0.68463210133E+01  0.22281827547E+03  0.22486750816E+03  0.47000000000E+01 0.  1.
         11    1    6    6    0    0  0.32726080991E+02 -0.40663849329E+02  0.15478769866E+03  0.16335169628E+03  0.00000000000E+00 0. -1.
        -12    1    6    6    0    0  0.62280025988E+02 -0.95757162358E+01  0.48229380037E+02  0.79350923607E+02  0.00000000000E+00 0.  1.
</event>
<event>
12    1  0.8633375E-002  0.2053573E+03  0.7818608E-02  0.1147189E+00
         21   -1    0    0  501  502  0.00000000000E+00  0.00000000000E+00  0.33278139897E+02  0.33278139897E+02  0.00000000000E+00 0. -1.
         21   -1    0    0  502  503 -0.00000000000E+00 -0.00000000000E+00 -0.12662255204E+04  0.12662255204E+04  0.00000000000E+00 0. -1.
         -6    2    1    2    0  503  0.73391640051E+02  0.58637811061E+02 -0.46861106731E+03  0.50806091052E+03  0.17235089404E+03 0.  0.
        -24    2    3    3    0    0  0.24394321425E+02  0.20067662767E+02 -0.42028317910E+03  0.42902883886E+03  0.80187280361E+02 0.  0.
          6    2    1    2  501    0 -0.73391640051E+02 -0.58637811061E+02 -0.76433631321E+03  0.79144274980E+03  0.18261133809E+03 0.  0.
         24    2    5    5    0    0 -0.10012425956E+03  0.20792602996E+01 -0.60643778894E+03  0.62010907049E+03  0.82093098167E+02 0.  0.
          5    1    5    5  501    0  0.26732619504E+02 -0.60717071360E+02 -0.15789852427E+03  0.17133367931E+03  0.47000000000E+01 0. -1.
        -11    1    6    6    0    0  0.13079119074E+02 -0.70392829590E+01 -0.99717167676E+02  0.10081730204E+03  0.00000000000E+00 0.  1.
         12    1    6    6    0    0 -0.11320337863E+03  0.91185432586E+01 -0.50672062127E+03  0.51929176845E+03  0.00000000000E+00 0. -1.
         -5    1    3    3    0  503  0.48997318627E+02  0.38570148294E+02 -0.48327888212E+02  0.79032071661E+02  0.47000000000E+01 0.  1.
         13    1    4    4    0    0  0.39734157515E+02  0.35942697404E+02 -0.18192806014E+03  0.18965363122E+03  0.00000000000E+00 0. -1.
        -14    1    4    4    0    0 -0.15339836090E+02 -0.15875034636E+02 -0.23835511896E+03  0.23937520764E+03  0.00000000000E+00 0.  1.
</event>
<event>
12    1  0.8633375E-002  0.2261284E+03  0.7818608E-02  0.1129641E+00
         21   -1    0    0  501  502  0.00000000000E+00  0.00000000000E+00  0.37275434685E+03  0.37275434685E+03  0.00000000000E+00 0.  1.
         21   -1    0    0  502  503 -0.00000000000E+00 -0.00000000000E+00 -0.13911848385E+03  0.13911848385E+03  0.00000000000E+00 0. -1.
         -6    2    1    2    0  503  0.13550364884E+03  0.52801604322E+02  0.81073346350E+02  0.24022266606E+03  0.17316117790E+03 0.  0.
        -24    2    3    3    0    0  0.83221204915E+02  0.29356948388E+02 -0.23009044939E+02  0.12131791421E+03  0.80006379708E+02 0.  0.
          6    2    1    2  501    0 -0.13550364884E+03 -0.52801604322E+02  0.15256251666E+03  0.27165016464E+03  0.17137456694E+03 0.  0.
         24    2    5    5    0    0 -0.18344895838E+02  0.76881055196E+01  0.10121517221E+03  0.13007397250E+03  0.79240678095E+02 0.  0.
          5    1    5    5  501    0 -0.11715875300E+03 -0.60489709842E+02  0.51347344442E+02  0.14157619215E+03  0.47000000000E+01 0. -1.
        -11    1    6    6    0    0 -0.44270779355E+02 -0.14973291248E+02  0.65494600669E+02  0.80458958931E+02  0.00000000000E+00 0.  1.
         12    1    6    6    0    0  0.25925883517E+02  0.22661396768E+02  0.35720571545E+02  0.49615013566E+02  0.00000000000E+00 0. -1.
         -5    1    3    3    0  503  0.52282443922E+02  0.23444655934E+02  0.10408239129E+03  0.11890475184E+03  0.47000000000E+01 0.  1.
         11    1    4    4    0    0  0.72767793123E+01  0.21786799826E+02 -0.37169818600E+02  0.43694525728E+02  0.00000000000E+00 0. -1.
        -12    1    4    4    0    0  0.75944425603E+02  0.75701485620E+01  0.14160773661E+02  0.77623388486E+02  0.00000000000E+00 0.  1.
</event>
<event>
12    1  0.8633375E-002  0.2321463E+03  0.7818608E-02  0.1125323E+00
         21   -1    0    0  503  502  0.00000000000E+00  0.00000000000E+00  0.65566272573E+03  0.65566272573E+03  0.00000000000E+00 0.  1.
         21   -1    0    0  501  503 -0.00000000000E+00 -0.00000000000E+00 -0.81848128999E+02  0.81848128999E+02  0.00000000000E+00 0.  1.
          6    2    1    2  501    0  0.26797888509E+01  0.15518159156E+03  0.28058806169E+03  0.36417241807E+03  0.17263656071E+03 0.  0.
         24    2    3    3    0    0  0.56228428214E+02  0.66613837525E+02  0.95771998223E+02  0.15229799501E+03  0.80145892916E+02 0.  0.
         -6    2    1    2    0  502 -0.26797888509E+01 -0.15518159156E+03  0.29322653505E+03  0.37333843666E+03  0.17120537317E+03 0.  0.
        -24    2    5    5    0    0  0.90928855283E+01 -0.49972356295E+02  0.49854701813E+02  0.10789631819E+03  0.81093817425E+02 0.  0.
          5    1    3    3  501    0 -0.53548639363E+02  0.88567754038E+02  0.18481606346E+03  0.21187442306E+03  0.47000000000E+01 0. -1.
        -11    1    4    4    0    0  0.36924879430E+02  0.90149670309E+01  0.81454127995E+02  0.89885990671E+02  0.00000000000E+00 0.  1.
         12    1    4    4    0    0  0.19303548784E+02  0.57598870494E+02  0.14317870228E+02  0.62412004339E+02  0.00000000000E+00 0. -1.
         -5    1    5    5    0  502 -0.11772674379E+02 -0.10520923527E+03  0.24337183323E+03  0.26544211847E+03  0.47000000000E+01 0.  1.
         13    1    6    6    0    0  0.11063286753E+02 -0.79699609283E+01 -0.21273900493E+02  0.25268467171E+02  0.00000000000E+00 0. -1.
        -14    1    6    6    0    0 -0.19704012243E+01 -0.42002395367E+02  0.71128602306E+02  0.82627851016E+02  0.00000000000E+00 0.  1.
</event>
<event>
12    1  0.8633375E-002  0.2458617E+03  0.7818608E-02  0.1116466E+00
         21   -1    0    0  503  502  0.00000000000E+00  0.00000000000E+00  0.37590548535E+03  0.37590548535E+03  0.00000000000E+00 0.  1.
         21   -1    0    0  501  503 -0.00000000000E+00 -0.00000000000E+00 -0.29315260671E+03  0.29315260671E+03  0.00000000000E+00 0. -1.
          6    2    1    2  501    0 -0.15985884800E+03  0.61309985719E+02 -0.18500269304E+03  0.30769135626E+03  0.17644888396E+03 0.  0.
         24    2    3    3    0    0 -0.12654359291E+03  0.10417994279E+03 -0.17334281383E+03  0.25196181091E+03  0.81057273969E+02 0.  0.
         -6    2    1    2    0  502  0.15985884800E+03 -0.61309985719E+02  0.26775557168E+03  0.36136673580E+03  0.17198577251E+03 0.  0.
        -24    2    5    5    0    0  0.17197228517E+03 -0.13017025838E+02  0.18553338345E+03  0.26512992595E+03  0.78277272755E+02 0.  0.
          5    1    3    3  501    0 -0.33315255084E+02 -0.42869957075E+02 -0.11659879207E+02  0.55729545342E+02  0.47000000000E+01 0. -1.
        -11    1    4    4    0    0 -0.17261979992E+02  0.50150717486E+02 -0.21484448803E+02  0.57224574773E+02  0.00000000000E+00 0.  1.
         12    1    4    4    0    0 -0.10928161292E+03  0.54029225308E+02 -0.15185836503E+03  0.19473723614E+03  0.00000000000E+00 0. -1.
         -5    1    5    5    0  502 -0.12113437170E+02 -0.48292959882E+02  0.82222188224E+02  0.96236809852E+02  0.47000000000E+01 0.  1.
         13    1    6    6    0    0  0.83314915044E+02 -0.41103062976E+02  0.67370454837E+02  0.11475894318E+03  0.00000000000E+00 0. -1.
        -14    1    6    6    0    0  0.88657370123E+02  0.28086037139E+02  0.11816292861E+03  0.15037098277E+03  0.00000000000E+00 0.  1.
</event>
<event>
12    1  0.8633375E-002  0.2473060E+03  0.7818608E-02  0.1115169E+00
         21   -1    0    0  503  502  0.00000000000E+00  0.00000000000E+00  0.71777329307E+02  0.71777329307E+02  0.00000000000E+00 0.  1.
         21   -1    0    0  501  503 -0.00000000000E+00 -0.00000000000E+00 -0.11266639012E+04  0.11266639012E+04  0.00000000000E+00 0.  1.
          6    2    1    2  501    0 -0.17037000163E+03 -0.51981922378E+02 -0.82423230033E+03  0.86026726461E+03  0.17021405329E+03 0.  0.
         24    2    3    3    0    0 -0.63567457796E+02  0.80935838352E+01 -0.55971531564E+03  0.56870736509E+03  0.77720684238E+02 0.  0.
         -6    2    1    2    0  502  0.17037000163E+03  0.51981922378E+02 -0.23065427156E+03  0.33817396589E+03  0.17155809661E+03 0.  0.
        -24    2    5    5    0    0  0.31213738700E+02 -0.21085094463E+02 -0.65306767573E+02  0.10999609331E+03  0.80095492762E+02 0.  0.
          5    1    3    3  501    0 -0.10680254383E+03 -0.60075506214E+02 -0.26451698470E+03  0.29155989952E+03  0.47000000000E+01 0. -1.
        -11    1    4    4    0    0 -0.50324227688E+02 -0.27755767945E+02 -0.41787999633E+03  0.42181346811E+03  0.00000000000E+00 0.  1.
         12    1    4    4    0    0 -0.13243230108E+02  0.35849351780E+02 -0.14183531930E+03  0.14689389698E+03  0.00000000000E+00 0. -1.
         -5    1    5    5    0  502  0.13915626293E+03  0.73067016841E+02 -0.16534750398E+03  0.22817787258E+03  0.47000000000E+01 0.  1.
         11    1    6    6    0    0  0.30078228540E+01  0.29774699969E+02 -0.27403184808E+02  0.40577263266E+02  0.00000000000E+00 0. -1.
        -12    1    6    6    0    0  0.28205915846E+02 -0.50859794432E+02 -0.37903582765E+02  0.69418830045E+02  0.00000000000E+00 0.  1.
</event>
<event>
12    1  0.8633375E-002  0.2082400E+03  0.7818608E-02  0.1143422E+00
         21   -1    0    0  503  502  0.00000000000E+00  0.00000000000E+00  0.31095790717E+03  0.31095790717E+03  0.00000000000E+00 0. -1.
         21   -1    0    0  501  503 -0.00000000000E+00 -0.00000000000E+00 -0.14605020129E+03  0.14605020129E+03  0.00000000000E+00 0.  1.
          6    2    1    2  501    0 -0.31727673629E+02 -0.10699482484E+03  0.29047256669E+02  0.21025613127E+03  0.17581057932E+03 0.  0.
         24    2    3    3    0    0 -0.53703019238E+02 -0.14420554401E+02  0.53877131285E+02  0.11181059285E+03  0.80665337869E+02 0.  0.
         -6    2    1    2    0  502  0.31727673629E+02  0.10699482484E+03  0.13586044921E+03  0.24675197719E+03  0.17312983211E+03 0.  0.
        -24    2    5    5    0    0  0.67181545772E+02  0.11622702257E+03  0.69026633377E+02  0.17039060302E+03  0.79032908425E+02 0.  0.
          5    1    3    3  501    0  0.21975345609E+02 -0.92574270440E+02 -0.24829874615E+02  0.98445538423E+02  0.47000000000E+01 0. -1.
        -13    1    4    4    0    0 -0.77255576844E+01  0.13687316522E+02 -0.16752222106E+02  0.22970934256E+02  0.00000000000E+00 0.  1.
         14    1    4    4    0    0 -0.45977461553E+02 -0.28107870923E+02  0.70629353391E+02  0.88839658594E+02  0.00000000000E+00 0. -1.
         -5    1    5    5    0  502 -0.35453872143E+02 -0.92321977317E+01  0.66833815837E+02  0.76361374164E+02  0.47000000000E+01 0.  1.
         13    1    6    6    0    0  0.23195681518E+02  0.10802570662E+03  0.55517121817E+02  0.12365170338E+03  0.00000000000E+00 0. -1.
        -14    1    6    6    0    0  0.43985864255E+02  0.82013159481E+01  0.13509511560E+02  0.46738899646E+02  0.00000000000E+00 0.  1.
</event>
<event>
12    1  0.8633375E-002  0.1809685E+03  0.7818608E-02  0.1167679E+00
         21   -1    0    0  501  502  0.00000000000E+00  0.00000000000E+00  0.15218210166E+04  0.15218210166E+04  0.00000000000E+00 0. -1.
         21   -1    0    0  502  503 -0.00000000000E+00 -0.00000000000E+00 -0.37542480384E+02  0.37542480384E+02  0.00000000000E+00 0. -1.
         -6    2    1    2    0  503  0.24078353717E+02  0.38160758356E+02  0.22266737097E+03  0.28483914005E+03  0.17180386205E+03 0.  0.
        -24    2    3    3    0    0 -0.46776800333E+02 -0.81711121680E+01  0.12628893915E+03  0.15647252757E+03  0.79245943792E+02 0.  0.
          6    2    1    2  501    0 -0.24078353717E+02 -0.38160758356E+02  0.12616111652E+04  0.12745243569E+04  0.17525294160E+03 0.  0.
         24    2    5    5    0    0 -0.58744788659E+02 -0.79722020066E+02  0.85968789340E+03  0.86894636611E+03  0.78727139148E+02 0.  0.
          5    1    5    5  501    0  0.34666434942E+02  0.41561261710E+02  0.40192327185E+03  0.40557799083E+03  0.47000000000E+01 0. -1.
        -11    1    6    6    0    0 -0.32249424607E+02 -0.40267659469E+01  0.10264215975E+03  0.10766454007E+03  0.00000000000E+00 0.  1.
         12    1    6    6    0    0 -0.26495364052E+02 -0.75695254119E+02  0.75704573365E+03  0.76128182603E+03  0.00000000000E+00 0. -1.
         -5    1    3    3    0  503  0.70855154050E+02  0.46331870524E+02  0.96378431814E+02  0.12836661248E+03  0.47000000000E+01 0.  1.
         13    1    4    4    0    0 -0.14336217360E+02  0.35322826953E+02  0.51513752984E+02  0.64085068297E+02  0.00000000000E+00 0. -1.
        -14    1    4    4    0    0 -0.32440582973E+02 -0.43493939121E+02  0.74775186168E+02  0.92387459270E+02  0.00000000000E+00 0.  1.
</event>
<event>
12    1  0.8633375E-002  0.1816586E+03  0.7818608E-02  0.1168308E+00
         21   -1    0    0  501  502  0.00000000000E+00  0.00000000000E+00  0.16518116243E+03  0.16518116243E+03  0.00000000000E+00 0.  1.
         21   -1    0    0  502  503 -0.00000000000E+00 -0.00000000000E+00 -0.19675340772E+03  0.19675340772E+03  0.00000000000E+00 0.  1.
         -6    2    1    2    0  503  0.37947920003E+02 -0.58985038221E+01  0.16161484344E+02  0.18237608938E+03  0.17755282995E+03 0.  0.
        -24    2    3    3    0    0  0.57371792831E+02 -0.40755329213E+01  0.71103899107E+02  0.12388361980E+03  0.83565867459E+02 0.  0.
          6    2    1    2  501    0 -0.37947920003E+02  0.58985038221E+01 -0.47733729630E+02  0.17955848076E+03  0.16878359544E+03 0.  0.
         24    2    5    5    0    0  0.27078262440E+02  0.34850668490E+02 -0.57953541528E+02  0.10749485057E+03  0.79048899624E+02 0.  0.
          5    1    5    5  501    0 -0.65026182443E+02 -0.28952164668E+02  0.10219811897E+02  0.72063630198E+02  0.47000000000E+01 0. -1.
        -11    1    6    6    0    0  0.10556041835E+02  0.40929682119E+02  0.45930516308E+01  0.42517820039E+02  0.00000000000E+00 0.  1.
         12    1    6    6    0    0  0.16522220605E+02 -0.60790136288E+01 -0.62546593158E+02  0.64977030527E+02  0.00000000000E+00 0. -1.
         -5    1    3    3    0  503 -0.19423872828E+02 -0.18229709007E+01 -0.54942414763E+02  0.58492469588E+02  0.47000000000E+01 0.  1.
         11    1    4    4    0    0  0.66390873120E+02 -0.15781068765E+02  0.20629712689E+02  0.71290779282E+02  0.00000000000E+00 0. -1.
        -12    1    4    4    0    0 -0.90190802897E+01  0.11705535844E+02  0.50474186418E+02  0.52592840513E+02  0.00000000000E+00 0.  1.
</event>
<event>
12    1  0.8633375E-002  0.1934366E+03  0.7818608E-02  0.1156508E+00
         21   -1    0    0  503  502  0.00000000000E+00  0.00000000000E+00  0.59876575630E+02  0.59876575630E+02  0.00000000000E+00 0. -1.
         21   -1    0    0  501  503 -0.00000000000E+00 -0.00000000000E+00 -0.79744673668E+03  0.79744673668E+03  0.00000000000E+00 0. -1.
          6    2    1    2  501    0  0.63066239109E+02  0.30179963069E+02 -0.16406104478E+03  0.25364099627E+03  0.18035949624E+03 0.  0.
         24    2    3    3    0    0 -0.22875226091E+02 -0.34318307312E+01 -0.12917609236E+03  0.15487491895E+03  0.82247943749E+02 0.  0.
         -6    2    1    2    0  502 -0.63066239109E+02 -0.30179963069E+02 -0.57350911627E+03  0.60368231604E+03  0.17501843210E+03 0.  0.
        -24    2    5    5    0    0 -0.98964875970E+02 -0.40379726985E+02 -0.52802243349E+03  0.54465795139E+03  0.80125056748E+02 0.  0.
          5    1    3    3  501    0  0.85941465200E+02  0.33611793800E+02 -0.34884952423E+02  0.98766077318E+02  0.47000000000E+01 0. -1.
        -13    1    4    4    0    0 -0.25138786926E+02 -0.23865430859E+02 -0.13200716757E+02  0.37091458870E+02  0.00000000000E+00 0.  1.
         14    1    4    4    0    0  0.22635608347E+01  0.20433600128E+02 -0.11597537560E+03  0.11778346008E+03  0.00000000000E+00 0. -1.
         -5    1    5    5    0  502  0.35898636861E+02  0.10199763916E+02 -0.45486682778E+02  0.59024364652E+02  0.47000000000E+01 0.  1.
         11    1    6    6    0    0 -0.38409658905E+02 -0.38338240715E+02 -0.39216261583E+03  0.39589978511E+03  0.00000000000E+00 0. -1.
        -12    1    6    6    0    0 -0.60555217065E+02 -0.20414862699E+01 -0.13585981766E+03  0.14875816628E+03  0.00000000000E+00 0.  1.
</event>
<event>
12    1  0.8633375E-002  0.3834388E+03  0.7818608E-02  0.1049764E+00
         21   -1    0    0  503  502  0.00000000000E+00  0.00000000000E+00  0.17204517961E+03  0.17204517961E+03  0.00000000000E+00 0.  1.
         21   -1    0    0  501  503 -0.00000000000E+00 -0.00000000000E+00 -0.85260098448E+03  0.85260098448E+03  0.00000000000E+00 0.  1.
          6    2    1    2  501    0 -0.33674762929E+03  0.47372614785E+02 -0.34953167329E+03  0.51808689210E+03  0.17492428841E+03 0.  0.
         24    2    3    3    0    0 -0.16116725246E+03  0.88054642049E+02 -0.20677989267E+03  0.28812242324E+03  0.80796680070E+02 0.  0.
         -6    2    1    2    0  502  0.33674762929E+03 -0.47372614785E+02 -0.33102413158E+03  0.50655927199E+03  0.17715019021E+03 0.  0.
        -24    2    5    5    0    0  0.27679948730E+03 -0.41303753147E+02 -0.33749557872E+03  0.44577621155E+03  0.80555626297E+02 0.  0.
          5    1    3    3  501    0 -0.17558037683E+03 -0.40682027265E+02 -0.14275178062E+03  0.22996446886E+03  0.47000000000E+01 0. -1.
        -13    1    4    4    0    0 -0.13350647587E+03  0.50107670535E+02 -0.10844605314E+03  0.17915162346E+03  0.00000000000E+00 0.  1.
         14    1    4    4    0    0 -0.27660776586E+02  0.37946971514E+02 -0.98333839529E+02  0.10897079978E+03  0.00000000000E+00 0. -1.
         -5    1    5    5    0  502  0.59948141985E+02 -0.60688616378E+01  0.64714471431E+01  0.60783060446E+02  0.47000000000E+01 0.  1.
         13    1    6    6    0    0  0.19107896883E+03  0.68060383836E+01 -0.19927769331E+03  0.27616859622E+03  0.00000000000E+00 0. -1.
        -14    1    6    6    0    0  0.85720518473E+02 -0.48109791530E+02 -0.13821788542E+03  0.16960761533E+03  0.00000000000E+00 0.  1.
</event>
<event>
12    1  0.8633375E-002  0.2150911E+03  0.7818608E-02  0.1138034E+00
         21   -1    0    0  501  502  0.00000000000E+00  0.00000000000E+00  0.25176999417E+03  0.25176999417E+03  0.00000000000E+00 0. -1.
         21   -1    0    0  502  503 -0.00000000000E+00 -0.00000000000E+00 -0.23404442441E+03  0.23404442441E+03  0.00000000000E+00 0. -1.
         -6    2    1    2    0  503  0.10323082713E+02 -0.12832152316E+03 -0.10583937827E+03  0.23972098326E+03  0.17231133590E+03 0.  0.
        -24    2    3    3    0    0 -0.28749627699E+02 -0.56491142123E+02 -0.12071860920E+03  0.15647579210E+03  0.76771743978E+02 0.  0.
          6    2    1    2  501    0 -0.10323082713E+02  0.12832152316E+03  0.12356494803E+03  0.24609343532E+03  0.16947183597E+03 0.  0.
         24    2    5    5    0    0 -0.63184598161E+02  0.11710659005E+03  0.11178152327E+03  0.19058619580E+03  0.78241563183E+02 0.  0.
          5    1    5    5  501    0  0.52861515448E+02  0.11214933112E+02  0.11783424759E+02  0.55507239521E+02  0.47000000000E+01 0. -1.
        -13    1    6    6    0    0  0.12315403768E+02  0.51654723267E+02  0.27148898710E+02  0.59640106530E+02  0.00000000000E+00 0.  1.
         14    1    6    6    0    0 -0.75500001929E+02  0.65451866779E+02  0.84632624559E+02  0.13094608927E+03  0.00000000000E+00 0. -1.
         -5    1    3    3    0  503  0.39072710412E+02 -0.71830381035E+02  0.14879230936E+02  0.83245191163E+02  0.47000000000E+01 0.  1.
         11    1    4    4    0    0 -0.47084333199E+01 -0.21592836201E+01 -0.88953224960E+02  0.89103917315E+02  0.00000000000E+00 0. -1.
        -12    1    4    4    0    0 -0.24041194379E+02 -0.54331858503E+02 -0.31765384241E+02  0.67371874781E+02  0.00000000000E+00 0.  1.
</event>
<event>
12    1  0.8633375E-002  0.2709079E+03  0.7818608E-02  0.1100836E+00
         21   -1    0    0  501  502  0.00000000000E+00  0.00000000000E+00  0.15108145184E+04  0.15108145184E+04  0.00000000000E+00 0.  1.
         21   -1    0    0  502  503 -0.00000000000E+00 -0.00000000000E+00 -0.59590375968E+02  0.59590375968E+02  0.00000000000E+00 0.  1.
         -6    2    1    2    0  503  0.78328864665E+02  0.19348392979E+03  0.10651861507E+04  0.10990962714E+04  0.17268362945E+03 0.  0.
        -24    2    3    3    0    0  0.47316535922E+02  0.11978455793E+03  0.92822162821E+03  0.94043079819E+03  0.78914512081E+02 0.  0.
          6    2    1    2  501    0 -0.78328864665E+02 -0.19348392979E+03  0.38603799165E+03  0.47130862296E+03  0.17185762989E+03 0.  0.
         24    2    5    5    0    0 -0.61117487773E+02 -0.21212444728E+03  0.37691267341E+03  0.44393962919E+03  0.79291251401E+02 0.  0.
          5    1    5    5  501    0 -0.17211376892E+02  0.18640517490E+02  0.91253182465E+01  0.27368993769E+02  0.47000000000E+01 0. -1.
        -13    1    6    6    0    0 -0.54439759475E+02 -0.20843664075E+03  0.37907296175E+03  0.43601127388E+03  0.00000000000E+00 0.  1.
         14    1    6    6    0    0 -0.66777282986E+01 -0.36878065295E+01 -0.21602883465E+01  0.79283553130E+01  0.00000000000E+00 0. -1.
         -5    1    3    3    0  503  0.31012328743E+02  0.73699371862E+02  0.13696452252E+03  0.15866547317E+03  0.47000000000E+01 0.  1.
         13    1    4    4    0    0 -0.68844685897E+01 -0.77018656034E+01  0.11803724387E+03  0.11848841961E+03  0.00000000000E+00 0. -1.
        -14    1    4    4    0    0  0.54201004512E+02  0.12748642353E+03  0.81018438434E+03  0.82194237858E+03  0.00000000000E+00 0.  1.
</event>
<event>
12    1  0.8633375E-002  0.1845733E+03  0.7818608E-02  0.1163733E+00
         21   -1    0    0  503  502  0.00000000000E+00  0.00000000000E+00  0.19241377543E+03  0.19241377543E+03  0.00000000000E+00 0. -1.
         21   -1    0    0  501  503 -0.00000000000E+00 -0.00000000000E+00 -0.22079276603E+03  0.22079276603E+03  0.00000000000E+00 0. -1.
          6    2    1    2  501    0  0.56090246838E+02  0.40780605672E+02 -0.10731765273E+03  0.21246138806E+03  0.16974566045E+03 0.  0.
         24    2    3    3    0    0  0.38349231960E+02 -0.19675381093E+02 -0.32295828640E+01  0.90698970903E+02  0.79737625400E+02 0.  0.
         -6    2    1    2    0  502 -0.56090246838E+02 -0.40780605672E+02  0.78938662134E+02  0.20074515339E+03  0.17105008226E+03 0.  0.
        -24    2    5    5    0    0 -0.44487805748E+01  0.40747695370E+02  0.31787441397E+02  0.93232212195E+02  0.77470237082E+02 0.  0.
          5    1    3    3  501    0  0.17741014878E+02  0.60455986765E+02 -0.10408806987E+03  0.12176241716E+03  0.47000000000E+01 0. -1.
        -13    1    4    4    0    0  0.29010515718E+02  0.25920938128E+02  0.13591646313E+02  0.41209682178E+02  0.00000000000E+00 0.  1.
         14    1    4    4    0    0  0.93387162414E+01 -0.45596319221E+02 -0.16821229177E+02  0.49489288726E+02  0.00000000000E+00 0. -1.
         -5    1    5    5    0  502 -0.51641466263E+02 -0.81528301041E+02  0.47151220736E+02  0.10751294120E+03  0.47000000000E+01 0.  1.
         13    1    6    6    0    0 -0.39760292961E+02  0.32289140064E+02  0.16235085332E+02  0.53731252155E+02  0.00000000000E+00 0. -1.
        -14    1    6    6    0    0  0.35311512386E+02  0.84585553053E+01  0.15552356066E+02  0.39500960040E+02  0.00000000000E+00 0.  1.
</event>
<event>
12    1  0.8633375E-002  0.2865443E+03  0.7818608E-02  0.1092267E+00
         21   -1    0    0  503  502  0.00000000000E+00  0.00000000000E+00  0.34504334250E+03  0.34504334250E+03  0.00000000000E+00 0. -1.
         21   -1    0    0  501  503 -0.00000000000E+00 -0.00000000000E+00 -0.23884154943E+03  0.23884154943E+03  0.00000000000E+00 0. -1.
          6    2    1    2  501    0  0.91077557272E+02  0.21008063168E+03  0.76325365879E+02  0.29653527562E+03  0.17227482395E+03 0.  0.
         24    2    3    3    0    0  0.11410020139E+02  0.18406765266E+03  0.39537833077E+02  0.20488919486E+03  0.80032822076E+02 0.  0.
         -6    2    1    2    0  502 -0.91077557272E+02 -0.21008063168E+03  0.29876427187E+02  0.28734961631E+03  0.17102107427E+03 0.  0.
        -24    2    5    5    0    0 -0.82443297913E+02 -0.23019831309E+03  0.89218560721E+01  0.25668276790E+03  0.77577594063E+02 0.  0.
          5    1    3    3  501    0  0.79667537133E+02  0.26012979018E+02  0.36787532802E+02  0.91646080766E+02  0.47000000000E+01 0. -1.
        -11    1    4    4    0    0 -0.47642117706E+01  0.10252591859E+03  0.60521140606E+02  0.11915145889E+03  0.00000000000E+00 0.  1.
         12    1    4    4    0    0  0.16174231910E+02  0.81541734073E+02 -0.20983307529E+02  0.85737735965E+02  0.00000000000E+00 0. -1.
         -5    1    5    5    0  502 -0.86342593595E+01  0.20117681418E+02  0.20954571114E+02  0.30666848402E+02  0.47000000000E+01 0.  1.
         11    1    6    6    0    0 -0.22468321489E+02 -0.72698795789E+02  0.38973953069E+02  0.85492159860E+02  0.00000000000E+00 0. -1.
        -12    1    6    6    0    0 -0.59974976424E+02 -0.15749951731E+03 -0.30052096997E+02  0.17119060804E+03  0.00000000000E+00 0.  1.
</event>
<event>
12    1  0.8633375E-002  0.1871457E+03  0.7818608E-02  0.1161144E+00
         21   -1    0    0  503  502  0.00000000000E+00  0.00000000000E+00  0.60379636739E+02  0.60379636739E+02  0.00000000000E+00 0. -1.
         21   -1    0    0  501  503 -0.00000000000E+00 -0.00000000000E+00 -0.59881076954E+03  0.59881076954E+03  0.00000000000E+00 0. -1.
          6    2    1    2  501    0  0.69055782802E+02  0.22856559832E+02 -0.32901054522E+03  0.37833367992E+03  0.17203869050E+03 0.  0.
         24    2    3    3    0    0  0.60215703365E+02  0.76833836538E+02 -0.18110582217E+03  0.22056932873E+03  0.79511889580E+02 0.  0.
         -6    2    1    2    0  502 -0.69055782802E+02 -0.22856559832E+02 -0.20942058758E+03  0.28085672636E+03  0.17243084055E+03 0.  0.
        -24    2    5    5    0    0  0.35990988849E+01  0.98006985928E+01 -0.17714220063E+03  0.19477994305E+03  0.80317244515E+02 0.  0.
          5    1    3    3  501    0  0.88400794368E+01 -0.53977276706E+02 -0.14790472305E+03  0.15776435119E+03  0.47000000000E+01 0. -1.
        -11    1    4    4    0    0  0.15344342568E+02  0.77593988067E+02 -0.96282803356E+02  0.12460599526E+03  0.00000000000E+00 0.  1.
         12    1    4    4    0    0  0.44871360797E+02 -0.76015152894E+00 -0.84823018814E+02  0.95963333471E+02  0.00000000000E+00 0. -1.
         -5    1    5    5    0  502 -0.72654881687E+02 -0.32657258425E+02 -0.32278386957E+02  0.86076783312E+02  0.47000000000E+01 0.  1.
         13    1    6    6    0    0 -0.13781872885E+02  0.41567842161E+02 -0.81655825155E+02  0.92657969456E+02  0.00000000000E+00 0. -1.
        -14    1    6    6    0    0  0.17380971770E+02 -0.31767143568E+02 -0.95486375471E+02  0.10212197359E+03  0.00000000000E+00 0.  1.
</event>
<event>
12    1  0.8633375E-002  0.1823633E+03  0.7818608E-02  0.1165910E+00
         21   -1    0    0  503  502  0.00000000000E+00  0.00000000000E+00  0.43293631838E+03  0.43293631838E+03  0.00000000000E+00 0.  1.
         21   -1    0    0  501  503 -0.00000000000E+00 -0.00000000000E+00 -0.78835456080E+02  0.78835456080E+02  0.00000000000E+00 0.  1.
          6    2    1    2  501    0  0.34889153626E+02  0.46575286309E+02  0.12913750599E+03  0.22217745366E+03  0.17117188766E+03 0.  0.
         24    2    3    3    0    0  0.70617517363E+02 -0.20359446530E+01  0.11927855948E+03  0.16086793909E+03  0.81609682296E+02 0.  0.
         -6    2    1    2    0  502 -0.34889153626E+02 -0.46575286309E+02  0.22496335631E+03  0.28959432080E+03  0.17282895771E+03 0.  0.
        -24    2    5    5    0    0  0.23585644157E+02  0.20081215453E+01  0.52068516191E+02  0.10066479628E+03  0.82836922143E+02 0.  0.
          5    1    3    3  501    0 -0.35728363737E+02  0.48611230962E+02  0.98589465077E+01  0.61309514573E+02  0.47000000000E+01 0. -1.
        -13    1    4    4    0    0  0.50878119978E+01  0.25664173389E+02  0.68879840558E+02  0.73681531349E+02  0.00000000000E+00 0.  1.
         14    1    4    4    0    0  0.65529705365E+02 -0.27700118042E+02  0.50398718924E+02  0.87186407736E+02  0.00000000000E+00 0. -1.
         -5    1    5    5    0  502 -0.58474797783E+02 -0.48583407855E+02  0.17289484012E+03  0.18892952452E+03  0.47000000000E+01 0.  1.
         11    1    6    6    0    0  0.10977269133E+02  0.24838677670E+02  0.65804681913E+02  0.71187895795E+02  0.00000000000E+00 0. -1.
        -12    1    6    6    0    0  0.12608375024E+02 -0.22830556125E+02 -0.13736165722E+02  0.29476900490E+02  0.00000000000E+00 0.  1.
</event>
<event>
12    1  0.8633375E-002  0.1910219E+03  0.7818608E-02  0.1158841E+00
         21   -1    0    0  503  502  0.00000000000E+00  0.00000000000E+00  0.77930508172E+03  0.77930508172E+03  0.00000000000E+00 0. -1.
         21   -1    0    0  501  503 -0.00000000000E+00 -0.00000000000E+00 -0.66071622413E+02  0.66071622413E+02  0.00000000000E+00 0. -1.
          6    2    1    2  501    0  0.34504349303E+02 -0.57029778619E+02  0.11669407296E+03  0.21899935042E+03  0.17291692529E+03 0.  0.
         24    2    3    3    0    0  0.53059283379E+02  0.41768520160E+01  0.13937283504E+02  0.97873032092E+02  0.80945345104E+02 0.  0.
         -6    2    1    2    0  502 -0.34504349303E+02  0.57029778619E+02  0.59653938634E+03  0.62637735371E+03  0.17901509437E+03 0.  0.
        -24    2    5    5    0    0 -0.85307909285E+02  0.62600769516E+02  0.34422474696E+03  0.36889569437E+03  0.79981630257E+02 0.  0.
          5    1    3    3  501    0 -0.18554934076E+02 -0.61206630635E+02  0.10275678946E+03  0.12112631833E+03  0.47000000000E+01 0. -1.
        -13    1    4    4    0    0  0.19307674550E+02  0.30753692211E+02 -0.21485926656E+02  0.42192664355E+02  0.00000000000E+00 0.  1.
         14    1    4    4    0    0  0.33751608829E+02 -0.26576840195E+02  0.35423210160E+02  0.55680367737E+02  0.00000000000E+00 0. -1.
         -5    1    5    5    0  502  0.50803559982E+02 -0.55709908971E+01  0.25231463939E+03  0.25748165934E+03  0.47000000000E+01 0.  1.
         13    1    6    6    0    0 -0.44982343294E+02  0.66867668505E+02  0.29118034047E+03  0.30212693851E+03  0.00000000000E+00 0. -1.
        -14    1    6    6    0    0 -0.40325565991E+02 -0.42668989893E+01  0.53044406491E+02  0.66768755863E+02  0.00000000000E+00 0.  1.
</event>
<event>
12    1  0.8633375E-002  0.1953281E+03  0.7818608E-02  0.1153935E+00
         21   -1    0    0  501  502  0.00000000000E+00  0.00000000000E+00  0.13132196175E+03  0.13132196175E+03  0.00000000000E+00 0. -1.
         21   -1    0    0  502  503 -0.00000000000E+00 -0.00000000000E+00 -0.69704665074E+03  0.69704665074E+03  0.00000000000E+00 0. -1.
         -6    2    1    2    0  503  0.84850498553E+02 -0.37553362628E+02 -0.59940871729E+03  0.63015745460E+03  0.17087347681E+03 0.  0.
        -24    2    3    3    0    0  0.11912720988E+03 -0.44193415595E+02 -0.54766510758E+03  0.56755973588E+03  0.77734378607E+02 0.  0.
          6    2    1    2  501    0 -0.84850498553E+02  0.37553362628E+02  0.33684028296E+02  0.19821115789E+03  0.17188131720E+03 0.  0.
         24    2    5    5    0    0 -0.98438468699E+02 -0.11976557681E+02  0.60014877556E+02  0.14030390825E+03  0.79055873206E+02 0.  0.
          5    1    5    5  501    0  0.13587970145E+02  0.49529920309E+02 -0.26330849260E+02  0.57907249643E+02  0.47000000000E+01 0. -1.
        -13    1    6    6    0    0  0.66452283825E+00 -0.14788774936E+02  0.35076788452E+02  0.38072700756E+02  0.00000000000E+00 0.  1.
         14    1    6    6    0    0 -0.99102991537E+02  0.28122172546E+01  0.24938089103E+02  0.10223120749E+03  0.00000000000E+00 0. -1.
         -5    1    3    3    0  503 -0.34276711331E+02  0.66400529674E+01 -0.51743609709E+02  0.62597718719E+02  0.47000000000E+01 0.  1.
         11    1    4    4    0    0  0.72118589967E+02 -0.45537340625E+02 -0.46226005356E+03  0.47006286550E+03  0.00000000000E+00 0. -1.
        -12    1    4    4    0    0  0.47008619918E+02  0.13439250300E+01 -0.85405054017E+02  0.97496870374E+02  0.00000000000E+00 0.  1.
</event>
<event>
12    1  0.8633375E-002  0.2240028E+03  0.7818608E-02  0.1131193E+00
         21   -1    0    0  503  502  0.00000000000E+00  0.00000000000E+00  0.50200578000E+03  0.50200578000E+03  0.00000000000E+00 0.  1.
         21   -1    0    0  501  503 -0.00000000000E+00 -0.00000000000E+00 -0.11084053909E+03  0.11084053909E+03  0.00000000000E+00 0.  1.
          6    2    1    2  501    0 -0.14164264667E+03  0.65238272025E+00  0.97355231501E+02  0.24424436045E+03  0.17353443910E+03 0.  0.
         24    2    3    3    0    0 -0.91052872535E+02 -0.32028266962E+02 -0.46802840110E+01  0.12566659468E+03  0.80335250528E+02 0.  0.
         -6    2    1    2    0  502  0.14164264667E+03 -0.65238272025E+00  0.29381000941E+03  0.36860195864E+03  0.17169745870E+03 0.  0.
        -24    2    5    5    0    0  0.26830210748E+02 -0.49181263013E+02  0.11768576386E+03  0.15278076521E+03  0.79708006883E+02 0.  0.
          5    1    3    3  501    0 -0.50589774135E+02  0.32680649683E+02  0.10203551551E+03  0.11857776578E+03  0.47000000000E+01 0. -1.
        -13    1    4    4    0    0 -0.12923106570E+02 -0.40805567880E+02  0.13668685560E+02  0.44932549654E+02  0.00000000000E+00 0.  1.
         14    1    4    4    0    0 -0.78129765965E+02  0.87773009180E+01 -0.18348969571E+02  0.80734045021E+02  0.00000000000E+00 0. -1.
         -5    1    5    5    0  502  0.11481243592E+03  0.48528880293E+02  0.17612424555E+03  0.21582119344E+03  0.47000000000E+01 0.  1.
         11    1    6    6    0    0 -0.16216902553E+02  0.12381590254E+02  0.38874553014E+02  0.43903559966E+02  0.00000000000E+00 0. -1.
        -12    1    6    6    0    0  0.43047113301E+02 -0.61562853267E+02  0.78811210845E+02  0.10887720524E+03  0.00000000000E+00 0.  1.
</event>
<event>
12    1  0.8633375E-002  0.1928165E+03  0.7818608E-02  0.1156295E+00
         21   -1    0    0  503  502  0.00000000000E+00  0.00000000000E+00  0.14507178680E+03  0.14507178680E+03  0.00000000000E+00 0. -1.
         21   -1    0    0  501  503 -0.00000000000E+00 -0.00000000000E+00 -0.30589616358E+03  0.30589616358E+03  0.00000000000E+00 0. -1.
          6    2    1    2  501    0  0.35907004872E+02 -0.74882966156E+02 -0.17339233112E+03  0.25931276191E+03  0.17401562108E+03 0.  0.
         24    2    3    3    0    0 -0.13131305511E+02 -0.18617534681E+02 -0.17595433021E+02  0.86496911589E+02  0.81566369720E+02 0.  0.
         -6    2    1    2    0  502 -0.35907004872E+02  0.74882966156E+02  0.12567954345E+02  0.19165518847E+03  0.17227009657E+03 0.  0.
        -24    2    5    5    0    0  0.18917184795E+00  0.18567536269E+02 -0.52751466912E+02  0.98043872864E+02  0.80530084786E+02 0.  0.
          5    1    3    3  501    0  0.49038310384E+02 -0.56265431475E+02 -0.15579689810E+03  0.17281585032E+03  0.47000000000E+01 0. -1.
        -11    1    4    4    0    0  0.34182823910E+02 -0.14683859837E+02 -0.71502118449E+01  0.37884122263E+02  0.00000000000E+00 0.  1.
         12    1    4    4    0    0 -0.47314129422E+02 -0.39336748446E+01 -0.10445221176E+02  0.48612789327E+02  0.00000000000E+00 0. -1.
         -5    1    5    5    0  502 -0.36096176720E+02  0.56315429887E+02  0.65319421256E+02  0.93611315611E+02  0.47000000000E+01 0.  1.
         11    1    6    6    0    0  0.93526732507E+01  0.32087504911E+02  0.86362961694E+01  0.34520516796E+02  0.00000000000E+00 0. -1.
        -12    1    6    6    0    0 -0.91635014027E+01 -0.13519968641E+02 -0.61387763081E+02  0.63523356068E+02  0.00000000000E+00 0.  1.
</event>
<event>
12    1  0.8633375E-002  0.1829292E+03  0.7818608E-02  0.1165715E+00
         21   -1    0    0  501  502  0.00000000000E+00  0.00000000000E+00  0.11906220511E+03  0.11906220511E+03  0.00000000000E+00 0.  1.
         21   -1    0    0  502  503 -0.00000000000E+00 -0.00000000000E+00 -0.28261043971E+03  0.28261043971E+03  0.00000000000E+00 0.  1.
         -6    2    1    2    0  503  0.57176371603E+02 -0.26700896383E+02 -0.11072286743E+03  0.21126882143E+03  0.16850188782E+03 0.  0.
        -24    2    3    3    0    0  0.14817542007E+02 -0.47080624687E+02 -0.30693065588E+01  0.93706144790E+02  0.79594448026E+02 0.  0.
          6    2    1    2  501    0 -0.57176371603E+02  0.26700896383E+02 -0.52825367166E+02  0.19040382339E+03  0.17170038209E+03 0.  0.
         24    2    5    5    0    0 -0.28232499114E+02 -0.37256389955E+02  0.12301046554E+02  0.94529833204E+02  0.81237066790E+02 0.  0.
          5    1    5    5  501    0 -0.28943872489E+02  0.63957286338E+02 -0.65126413719E+02  0.95873990187E+02  0.47000000000E+01 0. -1.
        -11    1    6    6    0    0 -0.28094978795E+02  0.61512084020E+01 -0.24376601682E+02  0.37701245442E+02  0.00000000000E+00 0.  1.
         12    1    6    6    0    0 -0.13752031921E+00 -0.43407598357E+02  0.36677648236E+02  0.56828587763E+02  0.00000000000E+00 0. -1.
         -5    1    3    3    0  503  0.42358829596E+02  0.20379728304E+02 -0.10765356087E+03  0.11756267664E+03  0.47000000000E+01 0.  1.
         11    1    4    4    0    0 -0.29399152544E+02 -0.76448206813E+01  0.11853998878E+02  0.32607832540E+02  0.00000000000E+00 0. -1.
        -12    1    4    4    0    0  0.44216694551E+02 -0.39435804005E+02 -0.14923305437E+02  0.61098312249E+02  0.00000000000E+00 0.  1.
</event>
<event>
12    1  0.8633375E-002  0.1850491E+03  0.7818608E-02  0.1163430E+00
         21   -1    0    0  503  502  0.00000000000E+00  0.00000000000E+00  0.18605265941E+03  0.18605265941E+03  0.00000000000E+00 0.  1.
         21   -1    0    0  501  503 -0.00000000000E+00 -0.00000000000E+00 -0.31036295105E+03  0.31036295105E+03  0.00000000000E+00 0.  1.
          6    2    1    2  501    0  0.56870557261E+02 -0.37251543133E+02 -0.22180379987E+03  0.28886000126E+03  0.17210821288E+03 0.  0.
         24    2    3    3    0    0  0.98776395765E+02  0.31130803386E+01 -0.15997079390E+03  0.20382581545E+03  0.78662828026E+02 0.  0.
         -6    2    1    2    0  502 -0.56870557261E+02  0.37251543133E+02  0.97493508220E+02  0.20755560920E+03  0.17015407435E+03 0.  0.
        -24    2    5    5    0    0 -0.58583201065E+02  0.85633484226E+02  0.59404001045E+02  0.14577660039E+03  0.83408014091E+02 0.  0.
          5    1    3    3  501    0 -0.41905838505E+02 -0.40364623472E+02 -0.61833005965E+02  0.85034185804E+02  0.47000000000E+01 0. -1.
        -13    1    4    4    0    0  0.38826187223E+02 -0.37259122239E+00 -0.13197680584E+03  0.13756994191E+03  0.00000000000E+00 0.  1.
         14    1    4    4    0    0  0.59950208542E+02  0.34856715610E+01 -0.27993988061E+02  0.66255873536E+02  0.00000000000E+00 0. -1.
         -5    1    5    5    0  502  0.17126438041E+01 -0.48381941093E+02  0.38089507175E+02  0.61779008810E+02  0.47000000000E+01 0.  1.
         13    1    6    6    0    0  0.20060771303E+02  0.27040283687E+02  0.24653989526E+02  0.41730452750E+02  0.00000000000E+00 0. -1.
        -14    1    6    6    0    0 -0.78643972367E+02  0.58593200539E+02  0.34750011519E+02  0.10404614764E+03  0.00000000000E+00 0.  1.
</event>
<event>
12    1  0.8633375E-002  0.1801758E+03  0.7818608E-02  0.1167636E+00
         21   -1    0    0  501  502  0.00000000000E+00  0.00000000000E+00  0.14118728102E+04  0.14118728102E+04  0.00000000000E+00 0.  1.
         21   -1    0    0  502  503 -0.00000000000E+00 -0.00000000000E+00 -0.32806814907E+02  0.32806814907E+02  0.00000000000E+00 0.  1.
         -6    2    1    2    0  503  0.23073951228E+01 -0.52564434973E+02  0.10846203799E+04  0.10994817732E+04  0.17230919074E+03 0.  0.
        -24    2    3    3    0    0  0.36759172367E+02  0.12359799432E+02  0.31359902930E+03  0.32495088664E+03  0.75793971733E+02 0.  0.
          6    2    1    2  501    0 -0.23073951228E+01  0.52564434973E+02  0.29444561540E+03  0.34519785191E+03  0.17232235096E+03 0.  0.
         24    2    5    5    0    0 -0.58089455754E+02 -0.35543408446E+01  0.14052605189E+03  0.17206704206E+03  0.80451709092E+02 0.  0.
          5    1    5    5  501    0  0.55782060631E+02  0.56118775817E+02  0.15391956351E+03  0.17313080985E+03  0.47000000000E+01 0. -1.
        -13    1    6    6    0    0 -0.59377349196E+02 -0.29634068292E+02  0.12543660008E+03  0.14190908442E+03  0.00000000000E+00 0.  1.
         14    1    6    6    0    0  0.12878934417E+01  0.26079727447E+02  0.15089451806E+02  0.30157957641E+02  0.00000000000E+00 0. -1.
         -5    1    3    3    0  503 -0.34451777244E+02 -0.64924234404E+02  0.77102135057E+03  0.77453088653E+03  0.47000000000E+01 0.  1.
         11    1    4    4    0    0 -0.53854179280E+01  0.26823550983E+02  0.21521815120E+03  0.21695012841E+03  0.00000000000E+00 0. -1.
        -12    1    4    4    0    0  0.42144590295E+02 -0.14463751552E+02  0.98380878106E+02  0.10800075822E+03  0.00000000000E+00 0.  1.
</event>
<event>
12    1  0.8633375E-002  0.2071640E+03  0.7818608E-02  0.1143902E+00
         21   -1    0    0  501  502  0.00000000000E+00  0.00000000000E+00  0.47466620838E+02  0.47466620838E+02  0.00000000000E+00 0.  1.
         21   -1    0    0  502  503 -0.00000000000E+00 -0.00000000000E+00 -0.12667107915E+04  0.12667107915E+04  0.00000000000E+00 0.  1.
         -6    2    1    2    0  503  0.10886827893E+03  0.36643515068E+02 -0.96153285568E+03  0.98352344791E+03  0.17198223940E+03 0.  0.
        -24    2    3    3    0    0  0.37919473900E+02  0.15046203527E+02 -0.20627234268E+03  0.22461587165E+03  0.78991997697E+02 0.  0.
          6    2    1    2  501    0 -0.10886827893E+03 -0.36643515068E+02 -0.25771131494E+03  0.33065396439E+03  0.17240032763E+03 0.  0.
         24    2    5    5    0    0 -0.10936329203E+03  0.19756230705E+02 -0.11769945336E+03  0.17963546306E+03  0.77878751747E+02 0.  0.
          5    1    5    5  501    0  0.49501309568E+00 -0.56399745773E+02 -0.14001186157E+03  0.15101850132E+03  0.47000000000E+01 0. -1.
        -11    1    6    6    0    0 -0.24660587966E+02  0.23174118614E+02 -0.79992116323E+02  0.86855760006E+02  0.00000000000E+00 0.  1.
         12    1    6    6    0    0 -0.84702704060E+02 -0.34178879087E+01 -0.37707337040E+02  0.92779703057E+02  0.00000000000E+00 0. -1.
         -5    1    3    3    0  503  0.70948805031E+02  0.21597311541E+02 -0.75526051300E+03  0.75890757626E+03  0.47000000000E+01 0.  1.
         11    1    4    4    0    0 -0.17317282409E+02 -0.14291701433E+02 -0.29281545951E+02  0.36899186077E+02  0.00000000000E+00 0. -1.
        -12    1    4    4    0    0  0.55236756308E+02  0.29337904960E+02 -0.17699079673E+03  0.18771668557E+03  0.00000000000E+00 0.  1.
</event>
<event>
12    1  0.8633375E-002  0.1895067E+03  0.7818608E-02  0.1159437E+00
         21   -1    0    0  503  502  0.00000000000E+00  0.00000000000E+00  0.23659314168E+03  0.23659314168E+03  0.00000000000E+00 0. -1.
         21   -1    0    0  501  503 -0.00000000000E+00 -0.00000000000E+00 -0.15461610647E+03  0.15461610647E+03  0.00000000000E+00 0. -1.
          6    2    1    2  501    0 -0.56609751665E+02  0.48486138514E+02  0.67028878609E+01  0.18730000073E+03  0.17169971450E+03 0.  0.
         24    2    3    3    0    0 -0.93706801924E+02  0.71021732989E+02  0.14100008205E+02  0.14301849731E+03  0.80189956090E+02 0.  0.
         -6    2    1    2    0  502  0.56609751665E+02 -0.48486138514E+02  0.75274147342E+02  0.20390924742E+03  0.17423321817E+03 0.  0.
        -24    2    5    5    0    0  0.86711865006E+02 -0.63523896615E+02  0.95582676981E+02  0.16432645100E+03  0.79453768854E+02 0.  0.
          5    1    3    3  501    0  0.37097050258E+02 -0.22535594475E+02 -0.73971203441E+01  0.44281503425E+02  0.47000000000E+01 0. -1.
        -11    1    4    4    0    0 -0.10745760363E+02 -0.26133190635E+01  0.29055087102E+02  0.31088565242E+02  0.00000000000E+00 0.  1.
         12    1    4    4    0    0 -0.82961041561E+02  0.73635052053E+02 -0.14955078897E+02  0.11192993207E+03  0.00000000000E+00 0. -1.
         -5    1    5    5    0  502 -0.30102113340E+02  0.15037758101E+02 -0.20308529639E+02  0.39582796419E+02  0.47000000000E+01 0.  1.
         11    1    6    6    0    0  0.50477734469E+02 -0.92424094688E+01  0.34667466078E+01  0.51433861822E+02  0.00000000000E+00 0. -1.
        -12    1    6    6    0    0  0.36234130537E+02 -0.54281487146E+02  0.92115930374E+02  0.11289258918E+03  0.00000000000E+00 0.  1.
</event>
<event>
12    1  0.8633375E-002  0.2050620E+03  0.7818608E-02  0.1145757E+00
         21   -1    0    0  503  502  0.00000000000E+00  0.00000000000E+00  0.25422196842E+03  0.25422196842E+03  0.00000000000E+00 0.  1.
         21   -1    0    0  501  503 -0.00000000000E+00 -0.00000000000E+00 -0.16559902167E+03  0.16559902167E+03  0.00000000000E+00 0. -1.
          6    2    1    2  501    0  0.10553945356E+03 -0.33592295098E+02  0.27659936159E+02  0.20691909168E+03  0.17257873532E+03 0.  0.
         24    2    3    3    0    0  0.12753123017E+03 -0.57970946882E+02  0.45627848459E+02  0.16919784072E+03  0.83193529779E+02 0.  0.
         -6    2    1    2    0  502 -0.10553945356E+03  0.33592295098E+02  0.60963010589E+02  0.21290189842E+03  0.17130006171E+03 0.  0.
        -24    2    5    5    0    0  0.13239946940E+00  0.13890643377E+02 -0.12536558126E+02  0.82598513179E+02  0.80451113023E+02 0.  0.
          5    1    3    3  501    0 -0.21991776612E+02  0.24378651785E+02 -0.17967912300E+02  0.37721250958E+02  0.47000000000E+01 0. -1.
        -11    1    4    4    0    0 -0.40690231360E+01  0.11507386479E+02 -0.31272560058E+01  0.12599865990E+02  0.00000000000E+00 0.  1.
         12    1    4    4    0    0  0.13160025331E+03 -0.69478333361E+02  0.48755104465E+02  0.15659797473E+03  0.00000000000E+00 0. -1.
         -5    1    5    5    0  502 -0.10567185303E+03  0.19701651720E+02  0.73499568715E+02  0.13030338524E+03  0.47000000000E+01 0.  1.
         11    1    6    6    0    0  0.29353722666E+02  0.34818904292E+02 -0.44556598560E+01  0.45758606133E+02  0.00000000000E+00 0. -1.
        -12    1    6    6    0    0 -0.29221323197E+02 -0.20928260915E+02 -0.80808982705E+01  0.36839907046E+02  0.00000000000E+00 0.  1.
</event>
<event>
12    1  0.8633375E-002  0.1915388E+03  0.7818608E-02  0.1157236E+00
         21   -1    0    0  501  502  0.00000000000E+00  0.00000000000E+00  0.12817170999E+03  0.12817170999E+03  0.00000000000E+00 0. -1.
         21   -1    0    0  502  503 -0.00000000000E+00 -0.00000000000E+00 -0.30267674162E+03  0.30267674162E+03  0.00000000000E+00 0. -1.
         -6    2    1    2    0  503 -0.82352978972E+02 -0.12154464940E+02 -0.13887553811E+03  0.23602398881E+03  0.17172991599E+03 0.  0.
        -24    2    3    3    0    0 -0.78284909668E+02 -0.36062258042E+02 -0.25785403387E+02  0.12026734611E+03  0.79814371980E+02 0.  0.
          6    2    1    2  501    0  0.82352978972E+02  0.12154464940E+02 -0.35629493515E+02  0.19482446280E+03  0.17250323572E+03 0.  0.
         24    2    5    5    0    0  0.75527503683E+02 -0.31595432273E+01 -0.88411166508E+02  0.13924478159E+03  0.76538802654E+02 0.  0.
          5    1    5    5  501    0  0.68254752887E+01  0.15314008167E+02  0.52781672993E+02  0.55579681207E+02  0.47000000000E+01 0. -1.
        -11    1    6    6    0    0  0.56312246315E+02 -0.27223930926E+02 -0.88594943243E+02  0.10844941433E+03  0.00000000000E+00 0.  1.
         12    1    6    6    0    0  0.19215257368E+02  0.24064387699E+02  0.18377673491E+00  0.30795367264E+02  0.00000000000E+00 0. -1.
         -5    1    3    3    0  503 -0.40680693034E+01  0.23907793103E+02 -0.11309013472E+03  0.11575664270E+03  0.47000000000E+01 0.  1.
         11    1    4    4    0    0 -0.51640581626E+01 -0.41042641671E+02 -0.22063946320E+02  0.46882658406E+02  0.00000000000E+00 0. -1.
        -12    1    4    4    0    0 -0.73120851506E+02  0.49803836284E+01 -0.37214570667E+01  0.73384687699E+02  0.00000000000E+00 0.  1.
</event>
<event>
12    1  0.8633375E-002  0.1775635E+03  0.7818608E-02  0.1170478E+00
         21   -1    0    0  503  502  0.00000000000E+00  0.00000000000E+00  0.10382425128E+03  0.10382425128E+03  0.00000000000E+00 0.  1.
         21   -1    0    0  501  503 -0.00000000000E+00 -0.00000000000E+00 -0.33644780607E+03  0.33644780607E+03  0.00000000000E+00 0.  1.
          6    2    1    2  501    0  0.21653380411E+00 -0.39749050550E+02 -0.18677355168E+03  0.25688440544E+03  0.17182899709E+03 0.  0.
         24    2    3    3    0    0 -0.74642123306E+01 -0.14208843762E+02 -0.20746814684E+03  0.22280138485E+03  0.79622983049E+02 0.  0.
         -6    2    1    2    0  502 -0.21653380411E+00  0.39749050550E+02 -0.45850003109E+02  0.18338765191E+03  0.17305714137E+03 0.  0.
        -24    2    5    5    0    0  0.50668555475E+02 -0.23132898708E+01  0.16155515301E+02  0.92694173058E+02  0.75885144925E+02 0.  0.
          5    1    3    3  501    0  0.76807461348E+01 -0.25540206787E+02  0.20694595156E+02  0.34083020591E+02  0.47000000000E+01 0. -1.
        -13    1    4    4    0    0 -0.37898971837E+02  0.20784382832E+01 -0.15790194223E+03  0.16239973932E+03  0.00000000000E+00 0.  1.
         14    1    4    4    0    0  0.30434759506E+02 -0.16287282045E+02 -0.49566204611E+02  0.60401645525E+02  0.00000000000E+00 0. -1.
         -5    1    5    5    0  502 -0.50885089279E+02  0.42062340420E+02 -0.62005518410E+02  0.90693478850E+02  0.47000000000E+01 0.  1.
         13    1    6    6    0    0  0.94500408816E+00 -0.21736805472E+02 -0.18908562265E+02  0.28825604447E+02  0.00000000000E+00 0. -1.
        -14    1    6    6    0    0  0.49723551387E+02  0.19423515601E+02  0.35064077565E+02  0.63868568610E+02  0.00000000000E+00 0.  1.
</event>
<event>
12    1  0.8633375E-002  0.3078300E+03  0.7818608E-02  0.1081454E+00
         21   -1    0    0  501  502  0.00000000000E+00  0.00000000000E+00  0.86101573992E+02  0.86101573992E+02  0.00000000000E+00 0.  1.
         21   -1    0    0  502  503 -0.00000000000E+00 -0.00000000000E+00 -0.10986890719E+04  0.10986890719E+04  0.00000000000E+00 0.  1.
         -6    2    1    2    0  503 -0.24967291010E+03  0.51300818017E+02 -0.50675098795E+03  0.59292149226E+03  0.17260068429E+03 0.  0.
        -24    2    3    3    0    0 -0.45602906107E+02 -0.12329852344E+02 -0.18017587072E+03  0.20257955761E+03  0.79645982135E+02 0.  0.
          6    2    1    2  501    0  0.24967291010E+03 -0.51300818017E+02 -0.50583650998E+03  0.59186915366E+03  0.17166882145E+03 0.  0.
         24    2    5    5    0    0  0.24283260388E+03 -0.31938831892E+02 -0.34984516370E+03  0.43446182725E+03  0.79860367366E+02 0.  0.
          5    1    5    5  501    0  0.68403062219E+01 -0.19361986125E+02 -0.15599134627E+03  0.15740732641E+03  0.47000000000E+01 0. -1.
        -13    1    6    6    0    0  0.11719608816E+03 -0.39096132254E+01 -0.23195495417E+03  0.25991019396E+03  0.00000000000E+00 0.  1.
         14    1    6    6    0    0  0.12563651572E+03 -0.28029218666E+02 -0.11789020953E+03  0.17455163329E+03  0.00000000000E+00 0. -1.
         -5    1    3    3    0  503 -0.20407000400E+03  0.63630670361E+02 -0.32657511724E+03  0.39034193464E+03  0.47000000000E+01 0.  1.
         11    1    4    4    0    0  0.19825345535E+02  0.53804430718E+01 -0.72422162797E+02  0.75279234570E+02  0.00000000000E+00 0. -1.
        -12    1    4    4    0    0 -0.65428251642E+02 -0.17710295415E+02 -0.10775370792E+03  0.12730032304E+03  0.00000000000E+00 0.  1.
</event>
<event>
12    1  0.8633375E-002  0.2142741E+03  0.7818608E-02  0.1140275E+00
         21   -1    0    0  503  502  0.00000000000E+00  0.00000000000E+00  0.16967433595E+03  0.16967433595E+03  0.00000000000E+00 0.  1.
         21   -1    0    0  501  503 -0.00000000000E+00 -0.00000000000E+00 -0.34380832654E+03  0.34380832654E+03  0.00000000000E+00 0.  1.
          6    2    1    2  501    0  0.76747654662E+02 -0.10159956192E+03 -0.21392256312E+03  0.29554567365E+03  0.15928499216E+03 0.  0.
         24    2    3    3    0    0  0.58854448824E+02 -0.11348705158E+03 -0.22435344182E+03  0.27120697081E+03  0.82919220535E+02 0.  0.
         -6    2    1    2    0  502 -0.76747654662E+02  0.10159956192E+03  0.39788572533E+02  0.21793698884E+03  0.17233898898E+03 0.  0.
        -24    2    5    5    0    0 -0.70774912632E+02  0.13952580784E+03  0.26547421211E+02  0.17705310613E+03  0.78527049514E+02 0.  0.
          5    1    3    3  501    0  0.17893205838E+02  0.11887489660E+02  0.10430878706E+02  0.24338702845E+02  0.47000000000E+01 0. -1.
        -11    1    4    4    0    0  0.74245436367E+02 -0.11345293153E+03 -0.18858419260E+03  0.23226698042E+03  0.00000000000E+00 0.  1.
         12    1    4    4    0    0 -0.15390987543E+02 -0.34120054935E-01 -0.35769249223E+02  0.38939990392E+02  0.00000000000E+00 0. -1.
         -5    1    5    5    0  502 -0.59727420303E+01 -0.37926245921E+02  0.13241151322E+02  0.40883882709E+02  0.47000000000E+01 0.  1.
         13    1    6    6    0    0  0.33361924895E+01  0.12516731734E+02 -0.19102273642E+02  0.23080199564E+02  0.00000000000E+00 0. -1.
        -14    1    6    6    0    0 -0.74111105121E+02  0.12700907611E+03  0.45649694853E+02  0.15397290657E+03  0.00000000000E+00 0.  1.
</event>
<event>
12    1  0.8633375E-002  0.1828800E+03  0.7818608E-02  0.1165303E+00
         21   -1    0    0  503  502  0.00000000000E+00  0.00000000000E+00  0.77505585494E+02  0.77505585494E+02  0.00000000000E+00 0. -1.
         21   -1    0    0  501  503 -0.00000000000E+00 -0.00000000000E+00 -0.42900556010E+03  0.42900556010E+03  0.00000000000E+00 0. -1.
          6    2    1    2  501    0  0.33662266684E+02  0.48600757999E+02 -0.17903370085E+03  0.25592606734E+03  0.17306040571E+03 0.  0.
         24    2    3    3    0    0  0.42874999644E+02  0.10550970190E+02 -0.19317375291E+03  0.21403702494E+03  0.80908347315E+02 0.  0.
         -6    2    1    2    0  502 -0.33662266684E+02 -0.48600757999E+02 -0.17246627375E+03  0.25058507826E+03  0.17191010437E+03 0.  0.
        -24    2    5    5    0    0  0.14814854975E+02  0.59098815833E+01 -0.15445070665E+03  0.17529834762E+03  0.81363894116E+02 0.  0.
          5    1    3    3  501    0 -0.92127329601E+01  0.38049787808E+02  0.14140052058E+02  0.41889042399E+02  0.47000000000E+01 0. -1.
        -13    1    4    4    0    0 -0.18311406994E+02  0.22109188168E+02 -0.77881529926E+02  0.83003954913E+02  0.00000000000E+00 0.  1.
         14    1    4    4    0    0  0.61186406638E+02 -0.11558217978E+02 -0.11529222298E+03  0.13103307002E+03  0.00000000000E+00 0. -1.
         -5    1    5    5    0  502 -0.48477121659E+02 -0.54510639582E+02 -0.18015567109E+02  0.75286730639E+02  0.47000000000E+01 0.  1.
         11    1    6    6    0    0  0.15964967229E+02 -0.31711399501E+02 -0.11673514203E+03  0.12201469757E+03  0.00000000000E+00 0. -1.
        -12    1    6    6    0    0 -0.11501122537E+01  0.37621281084E+02 -0.37715564613E+02  0.53283650050E+02  0.00000000000E+00 0.  1.
</event>
<event>
12    1  0.8633375E-002  0.1726216E+03  0.7818608E-02  0.1175307E+00
         21   -1    0    0  501  502  0.00000000000E+00  0.00000000000E+00  0.13422127622E+04  0.13422127622E+04  0.00000000000E+00 0.  1.
         21   -1    0    0  502  503 -0.00000000000E+00 -0.00000000000E+00 -0.27399767297E+02  0.27399767297E+02  0.00000000000E+00 0.  1.
         -6    2    1    2    0  503 -0.14244864397E+02 -0.23994799615E+02  0.35572826042E+03  0.39511689471E+03  0.16969413263E+03 0.  0.
        -24    2    3    3    0    0  0.49473881487E+02  0.17750419599E+02  0.19304479572E+03  0.21542064658E+03  0.79856242533E+02 0.  0.
          6    2    1    2  501    0  0.14244864397E+02  0.23994799615E+02  0.95908473450E+03  0.97449563481E+03  0.17035124814E+03 0.  0.
         24    2    5    5    0    0  0.70373489535E+02  0.16750362010E+02  0.75320026762E+03  0.76092267739E+03  0.80372104466E+02 0.  0.
          5    1    5    5  501    0 -0.56128625138E+02  0.72444376053E+01  0.20588446688E+03  0.21357295742E+03  0.47000000000E+01 0. -1.
        -11    1    6    6    0    0  0.38191069285E+02  0.10761112257E+01  0.65968251529E+03  0.66078796657E+03  0.00000000000E+00 0.  1.
         12    1    6    6    0    0  0.32182420250E+02  0.15674250784E+02  0.93517752331E+02  0.10013471082E+03  0.00000000000E+00 0. -1.
         -5    1    3    3    0  503 -0.63718745884E+02 -0.41745219214E+02  0.16268346470E+03  0.17969624813E+03  0.47000000000E+01 0.  1.
         13    1    4    4    0    0  0.31637589595E+01  0.31922779577E+02  0.25390528462E+02  0.40911516255E+02  0.00000000000E+00 0. -1.
        -14    1    4    4    0    0  0.46310122528E+02 -0.14172359978E+02  0.16765426726E+03  0.17450913032E+03  0.00000000000E+00 0.  1.
</event>
<event>
12    1  0.8633375E-002  0.2440003E+03  0.7818608E-02  0.1117192E+00
         21   -1    0    0  503  502  0.00000000000E+00  0.00000000000E+00  0.19041985846E+03  0.19041985846E+03  0.00000000000E+00 0.  1.
         21   -1    0    0  501  503 -0.00000000000E+00 -0.00000000000E+00 -0.35169830321E+03  0.35169830321E+03  0.00000000000E+00 0. -1.
          6    2    1    2  501    0  0.16971003847E+03  0.32104415028E+02 -0.17124284816E+03  0.29791450235E+03  0.17203705136E+03 0.  0.
         24    2    3    3    0    0  0.54400721454E+02  0.72473572193E+02 -0.68016335635E+02  0.13790290799E+03  0.78607461208E+02 0.  0.
         -6    2    1    2    0  502 -0.16971003847E+03 -0.32104415028E+02  0.99644034050E+01  0.24420365932E+03  0.17234833121E+03 0.  0.
        -24    2    5    5    0    0 -0.60684994955E+02  0.36746639015E+02 -0.21061295059E+02  0.11149491160E+03  0.83393963043E+02 0.  0.
          5    1    3    3  501    0  0.11530931702E+03 -0.40369157165E+02 -0.10322651252E+03  0.16001159436E+03  0.47000000000E+01 0. -1.
        -11    1    4    4    0    0 -0.43640823374E+01  0.34969971009E+02  0.65280281626E+01  0.35840748300E+02  0.00000000000E+00 0.  1.
         12    1    4    4    0    0  0.58764803791E+02  0.37503601184E+02 -0.74544363798E+02  0.10206215969E+03  0.00000000000E+00 0. -1.
         -5    1    5    5    0  502 -0.10902504352E+03 -0.68851054043E+02  0.31025698464E+02  0.13270874772E+03  0.47000000000E+01 0.  1.
         11    1    6    6    0    0 -0.32148539265E+02  0.35414680564E+02  0.27486547303E+02  0.55165555005E+02  0.00000000000E+00 0. -1.
        -12    1    6    6    0    0 -0.28536455690E+02  0.13319584510E+01 -0.48547842362E+02  0.56329356597E+02  0.00000000000E+00 0.  1.
</event>
<event>
12    1  0.8633375E-002  0.1986470E+03  0.7818608E-02  0.1151997E+00
         21   -1    0    0  503  502  0.00000000000E+00  0.00000000000E+00  0.10816693793E+03  0.10816693793E+03  0.00000000000E+00 0. -1.
         21   -1    0    0  501  503 -0.00000000000E+00 -0.00000000000E+00 -0.35575514651E+03  0.35575514651E+03  0.00000000000E+00 0.  1.
          6    2    1    2  501    0 -0.89474455961E+02  0.61616392941E+00 -0.12934246012E+03  0.23274534319E+03  0.17156591986E+03 0.  0.
         24    2    3    3    0    0 -0.36163234408E+01 -0.46536996345E+02 -0.77920528227E+02  0.12201438761E+03  0.81468596654E+02 0.  0.
         -6    2    1    2    0  502  0.89474455961E+02 -0.61616392941E+00 -0.11824574847E+03  0.23117674126E+03  0.17735436487E+03 0.  0.
        -24    2    5    5    0    0  0.64957089887E+02 -0.62879228147E+02 -0.11100308577E+03  0.16370573587E+03  0.79401902034E+02 0.  0.
          5    1    3    3  501    0 -0.85858132520E+02  0.47153160275E+02 -0.51421931889E+02  0.11073095558E+03  0.47000000000E+01 0. -1.
        -13    1    4    4    0    0 -0.32829179873E+02 -0.14885152766E+02 -0.69261930047E+02  0.78080329007E+02  0.00000000000E+00 0.  1.
         14    1    4    4    0    0  0.29212856432E+02 -0.31651843580E+02 -0.86585981799E+01  0.43934058603E+02  0.00000000000E+00 0. -1.
         -5    1    5    5    0  502  0.24517366074E+02  0.62263064218E+02 -0.72426626992E+01  0.67471005387E+02  0.47000000000E+01 0.  1.
         11    1    6    6    0    0 -0.52430420272E+01 -0.14484851369E+02  0.79620233943E+01  0.17340537057E+02  0.00000000000E+00 0. -1.
        -12    1    6    6    0    0  0.70200131914E+02 -0.48394376778E+02 -0.11896510917E+03  0.14636519881E+03  0.00000000000E+00 0.  1.
</event>
<event>
12    1  0.8633375E-002  0.3202308E+03  0.7818608E-02  0.1075675E+00
         21   -1    0    0  501  502  0.00000000000E+00  0.00000000000E+00  0.37752241353E+03  0.37752241353E+03  0.00000000000E+00 0. -1.
         21   -1    0    0  502  503 -0.00000000000E+00 -0.00000000000E+00 -0.28921107356E+03  0.28921107356E+03  0.00000000000E+00 0.  1.
         -6    2    1    2    0  503 -0.26855829711E+03 -0.18570127593E+02 -0.40196106491E+02  0.32274369181E+03  0.17343400773E+03 0.  0.
        -24    2    3    3    0    0 -0.80856452434E+02 -0.35099621741E+02 -0.59054164180E+02  0.13331580840E+03  0.80721503425E+02 0.  0.
          6    2    1    2  501    0  0.26855829711E+03  0.18570127593E+02  0.12850744646E+03  0.34398979528E+03  0.17130792997E+03 0.  0.
         24    2    5    5    0    0  0.19390257243E+03  0.18276724266E+02  0.19977288765E+02  0.21217762420E+03  0.81780229280E+02 0.  0.
          5    1    5    5  501    0  0.74655724683E+02  0.29340332675E+00  0.10853015770E+03  0.13181217107E+03  0.47000000000E+01 0. -1.
        -13    1    6    6    0    0  0.29802219950E+02 -0.20627940879E+02  0.24017559098E+02  0.43480195537E+02  0.00000000000E+00 0.  1.
         14    1    6    6    0    0  0.16410035248E+03  0.38904665145E+02 -0.40402703332E+01  0.16869742867E+03  0.00000000000E+00 0. -1.
         -5    1    3    3    0  503 -0.18770184468E+03  0.16529494148E+02  0.18858057690E+02  0.18942788341E+03  0.47000000000E+01 0.  1.
         13    1    4    4    0    0  0.19746841553E+01  0.16999826972E+02  0.30981522431E+01  0.17392298351E+02  0.00000000000E+00 0. -1.
        -14    1    4    4    0    0 -0.82831136589E+02 -0.52099448713E+02 -0.62152316424E+02  0.11592351005E+03  0.00000000000E+00 0.  1.
</event>
<event>
12    1  0.8633375E-002  0.2084846E+03  0.7818608E-02  0.1143547E+00
         21   -1    0    0  501  502  0.00000000000E+00  0.00000000000E+00  0.41251690567E+03  0.41251690567E+03  0.00000000000E+00 0. -1.
         21   -1    0    0  502  503 -0.00000000000E+00 -0.00000000000E+00 -0.11714851968E+03  0.11714851968E+03  0.00000000000E+00 0.  1.
         -6    2    1    2    0  503 -0.45736091392E+02 -0.10878983280E+03  0.58287180383E+02  0.21647913513E+03  0.17186856249E+03 0.  0.
        -24    2    3    3    0    0 -0.33465883228E+02 -0.14276009317E+03  0.69502048249E+02  0.17836877093E+03  0.74057235890E+02 0.  0.
          6    2    1    2  501    0  0.45736091392E+02  0.10878983280E+03  0.23708120561E+03  0.31318629022E+03  0.16718593408E+03 0.  0.
         24    2    5    5    0    0 -0.36862592278E+02  0.76579360047E+02  0.14248320882E+03  0.18345222339E+03  0.78294344481E+02 0.  0.
          5    1    5    5  501    0  0.82598683670E+02  0.32210472750E+02  0.94597996795E+02  0.12973406683E+03  0.47000000000E+01 0. -1.
        -13    1    6    6    0    0  0.22409006176E+02  0.22204522608E+02  0.21521484021E+02  0.38188724206E+02  0.00000000000E+00 0.  1.
         14    1    6    6    0    0 -0.59271598454E+02  0.54374837439E+02  0.12096172480E+03  0.14526349918E+03  0.00000000000E+00 0. -1.
         -5    1    3    3    0  503 -0.12270208164E+02  0.33970260376E+02 -0.11214867866E+02  0.38110364203E+02  0.47000000000E+01 0.  1.
         11    1    4    4    0    0  0.72740323307E+01 -0.21013422382E+02  0.41329309064E+02  0.46931729717E+02  0.00000000000E+00 0. -1.
        -12    1    4    4    0    0 -0.40739915559E+02 -0.12174667079E+03  0.28172739186E+02  0.13143704121E+03  0.00000000000E+00 0.  1.
</event>
<event>
12    1  0.8633375E-002  0.3014142E+03  0.7818608E-02  0.1084560E+00
         21   -1    0    0  501  502  0.00000000000E+00  0.00000000000E+00  0.23552740798E+03  0.23552740798E+03  0.00000000000E+00 0. -1.
         21   -1    0    0  502  503 -0.00000000000E+00 -0.00000000000E+00 -0.58242417945E+03  0.58242417945E+03  0.00000000000E+00 0. -1.
         -6    2    1    2    0  503  0.71925792572E+02  0.23615542791E+03 -0.41130705256E+03  0.50992552296E+03  0.17293883806E+03 0.  0.
        -24    2    3    3    0    0  0.84565163652E+02  0.25396103232E+03 -0.37310537979E+03  0.46567339247E+03  0.77437789183E+02 0.  0.
          6    2    1    2  501    0 -0.71925792572E+02 -0.23615542791E+03  0.64410281088E+02  0.30802606448E+03  0.17259393477E+03 0.  0.
         24    2    5    5    0    0 -0.80895909766E+02 -0.98999483307E+02 -0.13091702042E+02  0.15016263131E+03  0.77668380098E+02 0.  0.
          5    1    5    5  501    0  0.89701171946E+01 -0.13715594461E+03  0.77501983130E+02  0.15786343317E+03  0.47000000000E+01 0. -1.
        -11    1    6    6    0    0 -0.62057690463E+02 -0.19613156547E+02  0.88264628173E+01  0.65679062883E+02  0.00000000000E+00 0.  1.
         12    1    6    6    0    0 -0.18838219303E+02 -0.79386326760E+02 -0.21918164859E+02  0.84483568425E+02  0.00000000000E+00 0. -1.
         -5    1    3    3    0  503 -0.12639371081E+02 -0.17805604405E+02 -0.38201672773E+02  0.44252130482E+02  0.47000000000E+01 0.  1.
         13    1    4    4    0    0  0.86569787576E+02  0.14048135655E+03 -0.22818287910E+03  0.28159681456E+03  0.00000000000E+00 0. -1.
        -14    1    4    4    0    0 -0.20046239234E+01  0.11347967577E+03 -0.14492250069E+03  0.18407657791E+03  0.00000000000E+00 0.  1.
</event>
<event>
12    1  0.8633375E-002  0.3439409E+03  0.7818608E-02  0.1065213E+00
         21   -1    0    0  503  502  0.00000000000E+00  0.00000000000E+00  0.35808247895E+03  0.35808247895E+03  0.00000000000E+00 0.  1.
         21   -1    0    0  501  503 -0.00000000000E+00 -0.00000000000E+00 -0.33947135236E+03  0.33947135236E+03  0.00000000000E+00 0. -1.
          6    2    1    2  501    0 -0.13551844858E+03  0.26482816458E+03  0.68811028278E+02  0.35075675989E+03  0.17261558542E+03 0.  0.
         24    2    3    3    0    0 -0.10349149421E+03  0.22710051940E+03  0.11158708732E+03  0.28517488553E+03  0.81165891825E+02 0.  0.
         -6    2    1    2    0  502  0.13551844858E+03 -0.26482816458E+03 -0.50199901687E+02  0.34679707143E+03  0.17102330824E+03 0.  0.
        -24    2    5    5    0    0  0.87212288662E+02 -0.24396505470E+03  0.37926068955E+01  0.27125876709E+03  0.80262093462E+02 0.  0.
          5    1    3    3  501    0 -0.32026954363E+02  0.37727645184E+02 -0.42776059038E+02  0.65581874353E+02  0.47000000000E+01 0. -1.
        -11    1    4    4    0    0 -0.75660061337E+02  0.12089604585E+03  0.10123643601E+03  0.17489744069E+03  0.00000000000E+00 0.  1.
         12    1    4    4    0    0 -0.27831432877E+02  0.10620447355E+03  0.10350651302E+02  0.11027744484E+03  0.00000000000E+00 0. -1.
         -5    1    5    5    0  502  0.48306159914E+02 -0.20863109886E+02 -0.53992508583E+02  0.75538304342E+02  0.47000000000E+01 0.  1.
         13    1    6    6    0    0  0.31651417418E+02 -0.97713736678E+02 -0.37680186837E+02  0.10940558962E+03  0.00000000000E+00 0. -1.
        -14    1    6    6    0    0  0.55560871244E+02 -0.14625131802E+03  0.41472793733E+02  0.16185317747E+03  0.00000000000E+00 0.  1.
</event>
<event>
12    1  0.8633375E-002  0.2016573E+03  0.7818608E-02  0.1149750E+00
         21   -1    0    0  503  502  0.00000000000E+00  0.00000000000E+00  0.45043276219E+03  0.45043276219E+03  0.00000000000E+00 0.  1.
         21   -1    0    0  501  503 -0.00000000000E+00 -0.00000000000E+00 -0.94878760610E+02  0.94878760610E+02  0.00000000000E+00 0. -1.
          6    2    1    2  501    0 -0.10480549106E+03  0.26934178941E+01  0.98259241844E+02  0.21840746472E+03  0.16448555129E+03 0.  0.
         24    2    3    3    0    0 -0.44529612589E+02  0.41284342665E+02  0.10228737122E+03  0.14656905699E+03  0.85630011144E+02 0.  0.
         -6    2    1    2    0  502  0.10480549106E+03 -0.26934178941E+01  0.25729475973E+03  0.32690405807E+03  0.17226208040E+03 0.  0.
        -24    2    5    5    0    0  0.25683576843E+02  0.31631616211E+02  0.20934381249E+03  0.22811201074E+03  0.80932393712E+02 0.  0.
          5    1    3    3  501    0 -0.60275878470E+02 -0.38590924770E+02 -0.40281293746E+01  0.71838407737E+02  0.47000000000E+01 0. -1.
        -13    1    4    4    0    0  0.21697996875E+02 -0.35102643127E+00  0.43843969876E+02  0.48920547651E+02  0.00000000000E+00 0.  1.
         14    1    4    4    0    0 -0.66227609463E+02  0.41635369096E+02  0.58443401342E+02  0.97648509335E+02  0.00000000000E+00 0. -1.
         -5    1    5    5    0  502  0.79121914216E+02 -0.34325034105E+02  0.47950947245E+02  0.98792047338E+02  0.47000000000E+01 0.  1.
         13    1    6    6    0    0 -0.59832352626E+01  0.44980408311E+02  0.16962733799E+03  0.17559177096E+03  0.00000000000E+00 0. -1.
        -14    1    6    6    0    0  0.31666812106E+02 -0.13348792100E+02  0.39716474497E+02  0.52520239774E+02  0.00000000000E+00 0.  1.
</event>
<event>
12    1  0.8633375E-002  0.1990376E+03  0.7818608E-02  0.1152865E+00
         21   -1    0    0  501  502  0.00000000000E+00  0.00000000000E+00  0.98495544800E+03  0.98495544800E+03  0.00000000000E+00 0.  1.
         21   -1    0    0  502  503 -0.00000000000E+00 -0.00000000000E+00 -0.88511000611E+02  0.88511000611E+02  0.00000000000E+00 0.  1.
         -6    2    1    2    0  503  0.76414616188E+02  0.13543177099E+02  0.48540587015E+02  0.20487103070E+03  0.18328485867E+03 0.  0.
        -24    2    3    3    0    0  0.23345894940E+02 -0.62879591170E+02  0.41193786291E+02  0.11142161034E+03  0.78860468075E+02 0.  0.
          6    2    1    2  501    0 -0.76414616188E+02 -0.13543177099E+02  0.84790386037E+03  0.86859541791E+03  0.17173943161E+03 0.  0.
         24    2    5    5    0    0 -0.11269869852E+03  0.26901943461E+00  0.74396033844E+03  0.75753841834E+03  0.87672122477E+02 0.  0.
          5    1    5    5  501    0  0.36284082329E+02 -0.13812196533E+02  0.10394352193E+03  0.11105699958E+03  0.47000000000E+01 0. -1.
        -13    1    6    6    0    0 -0.31226050736E+02 -0.35570175444E+02  0.16068902433E+03  0.16751497296E+03  0.00000000000E+00 0.  1.
         14    1    6    6    0    0 -0.81472647781E+02  0.35839194878E+02  0.58327131411E+03  0.59002344538E+03  0.00000000000E+00 0. -1.
         -5    1    3    3    0  503  0.53068721248E+02  0.76422768269E+02  0.73468007249E+01  0.93449420360E+02  0.47000000000E+01 0.  1.
         13    1    4    4    0    0 -0.18303353270E+02  0.85466614711E+01  0.13191248260E+02  0.24126068762E+02  0.00000000000E+00 0. -1.
        -14    1    4    4    0    0  0.41649248210E+02 -0.71426252642E+02  0.28002538030E+02  0.87295541576E+02  0.00000000000E+00 0.  1.
</event>
<event>
12    1  0.8633375E-002  0.1923533E+03  0.7818608E-02  0.1156714E+00
         21   -1    0    0  503  502  0.00000000000E+00  0.00000000000E+00  0.13770965250E+03  0.13770965250E+03  0.00000000000E+00 0.  1.
         21   -1    0    0  501  503 -0.00000000000E+00 -0.00000000000E+00 -0.73716287153E+03  0.73716287153E+03  0.00000000000E+00 0.  1.
          6    2    1    2  501    0  0.54121721208E+02  0.67523980310E+02 -0.64882585948E+03  0.67628392148E+03  0.16998911115E+03 0.  0.
         24    2    3    3    0    0  0.43846906448E+02  0.11197301380E+03 -0.49230738662E+03  0.51318453233E+03  0.80816423327E+02 0.  0.
         -6    2    1    2    0  502 -0.54121721208E+02 -0.67523980310E+02  0.49372640452E+02  0.19858860254E+03  0.17178802872E+03 0.  0.
        -24    2    5    5    0    0 -0.47613245966E+02 -0.82089231661E+02 -0.21202206364E+02  0.12608063195E+03  0.80256644903E+02 0.  0.
          5    1    3    3  501    0  0.10274814760E+02 -0.44449033489E+02 -0.15651847285E+03  0.16309938915E+03  0.47000000000E+01 0. -1.
        -13    1    4    4    0    0  0.60069928604E+02  0.67979284398E+02 -0.39341824855E+03  0.40374187017E+03  0.00000000000E+00 0.  1.
         14    1    4    4    0    0 -0.16223022156E+02  0.43993729400E+02 -0.98889138069E+02  0.10944266217E+03  0.00000000000E+00 0. -1.
         -5    1    5    5    0  502 -0.65084752414E+01  0.14565251351E+02  0.70574846815E+02  0.72507970596E+02  0.47000000000E+01 0.  1.
         13    1    6    6    0    0  0.12853518676E+02  0.53016839083E+01 -0.13741498755E+02  0.19548646569E+02  0.00000000000E+00 0. -1.
        -14    1    6    6    0    0 -0.60466764643E+02 -0.87390915569E+02 -0.74607076087E+01  0.10653198538E+03  0.00000000000E+00 0.  1.
</event>
<event>
12    1  0.8633375E-002  0.2024545E+03  0.7818608E-02  0.1148370E+00
         21   -1    0    0  501  502  0.00000000000E+00  0.00000000000E+00  0.57265588367E+02  0.57265588367E+02  0.00000000000E+00 0. -1.
         21   -1    0    0  502  503 -0.00000000000E+00 -0.00000000000E+00 -0.98675453637E+03  0.98675453637E+03  0.00000000000E+00 0. -1.
         -6    2    1    2    0  503 -0.91012561370E+02 -0.50501054798E+02 -0.18272087783E+03  0.27029513113E+03  0.16982018684E+03 0.  0.
        -24    2    3    3    0    0 -0.13625900087E+02 -0.94438612941E+01 -0.16104910644E+03  0.17992841072E+03  0.78502016727E+02 0.  0.
          6    2    1    2  501    0  0.91012561370E+02  0.50501054798E+02 -0.74676807018E+03  0.77372499360E+03  0.17364956732E+03 0.  0.
         24    2    5    5    0    0  0.52254519852E+02  0.84852727366E+02 -0.33271945339E+03  0.35642345964E+03  0.80030792370E+02 0.  0.
          5    1    5    5  501    0  0.38758041518E+02 -0.34351672568E+02 -0.41404861678E+03  0.41730153396E+03  0.47000000000E+01 0. -1.
        -13    1    6    6    0    0  0.29688775727E+02 -0.77331974176E+01 -0.57502358604E+02  0.65174741975E+02  0.00000000000E+00 0.  1.
         14    1    6    6    0    0  0.22565744125E+02  0.92585924784E+02 -0.27521709479E+03  0.29124871766E+03  0.00000000000E+00 0. -1.
         -5    1    3    3    0  503 -0.77386661283E+02 -0.41057193504E+02 -0.21671771386E+02  0.90366720411E+02  0.47000000000E+01 0.  1.
         11    1    4    4    0    0 -0.28700617157E+02 -0.36215318202E+02 -0.70368515768E+02  0.84184337671E+02  0.00000000000E+00 0. -1.
        -12    1    4    4    0    0  0.15074717070E+02  0.26771456908E+02 -0.90680590672E+02  0.95744073050E+02  0.00000000000E+00 0.  1.
</event>
<event>
12    1  0.8633375E-002  0.3962153E+03  0.7818608E-02  0.1045123E+00
         21   -1    0    0  503  502  0.00000000000E+00  0.00000000000E+00  0.18256554935E+03  0.18256554935E+03  0.00000000000E+00 0.  1.
         21   -1    0    0  501  503 -0.00000000000E+00 -0.00000000000E+00 -0.10587447118E+04  0.10587447118E+04  0.00000000000E+00 0.  1.
          6    2    1    2  501    0 -0.35576574826E+03  0.26767874296E+02 -0.70761959063E+03  0.81099447202E+03  0.17233908983E+03 0.  0.
         24    2    3    3    0    0 -0.87905166588E+02  0.50059270779E+02 -0.25493665455E+03  0.28446269617E+03  0.75452493515E+02 0.  0.
         -6    2    1    2    0  502  0.35576574826E+03 -0.26767874296E+02 -0.16855957185E+03  0.43031578916E+03  0.17167866030E+03 0.  0.
        -24    2    5    5    0    0  0.23069713199E+03  0.13986594767E+01 -0.37239447609E+02  0.24673317170E+03  0.79166650817E+02 0.  0.
          5    1    3    3  501    0 -0.26786058167E+03 -0.23291396483E+02 -0.45268293608E+03  0.52653177585E+03  0.47000000000E+01 0. -1.
        -13    1    4    4    0    0 -0.83685932729E+02  0.98355174798E+01 -0.19166032502E+03  0.20936511870E+03  0.00000000000E+00 0.  1.
         14    1    4    4    0    0 -0.42192338581E+01  0.40223753300E+02 -0.63276329526E+02  0.75097577472E+02  0.00000000000E+00 0. -1.
         -5    1    5    5    0  502  0.12506861627E+03 -0.28166533773E+02 -0.13132012424E+03  0.18358261745E+03  0.47000000000E+01 0.  1.
         13    1    6    6    0    0  0.18119458723E+03  0.33130412332E+02 -0.19032855740E+02  0.18517924360E+03  0.00000000000E+00 0. -1.
        -14    1    6    6    0    0  0.49502544765E+02 -0.31731752855E+02 -0.18206591869E+02  0.61553928103E+02  0.00000000000E+00 0.  1.
</event>
<event>
12    1  0.8633375E-002  0.1729452E+03  0.7818608E-02  0.1175399E+00
         21   -1    0    0  501  502  0.00000000000E+00  0.00000000000E+00  0.11798679762E+04  0.11798679762E+04  0.00000000000E+00 0. -1.
         21   -1    0    0  502  503 -0.00000000000E+00 -0.00000000000E+00 -0.30081800834E+02  0.30081800834E+02  0.00000000000E+00 0. -1.
         -6    2    1    2    0  503  0.23352459725E+02  0.12269415178E+02  0.32344796148E+03  0.36570757366E+03  0.16860477371E+03 0.  0.
        -24    2    3    3    0    0  0.56305875912E+02  0.14225771870E+02  0.31689398146E+03  0.33172523083E+03  0.79038655344E+02 0.  0.
          6    2    1    2  501    0 -0.23352459725E+02 -0.12269415178E+02  0.82633821391E+03  0.84424220340E+03  0.17092155603E+03 0.  0.
         24    2    5    5    0    0  0.41921112610E+02 -0.25895000749E+02  0.30446762367E+03  0.31810790612E+03  0.77872815042E+02 0.  0.
          5    1    5    5  501    0 -0.65273572336E+02  0.13625585571E+02  0.52187059024E+03  0.52613429729E+03  0.47000000000E+01 0. -1.
        -11    1    6    6    0    0  0.56971777888E+02 -0.22751142664E+01  0.25466865178E+03  0.26097333546E+03  0.00000000000E+00 0.  1.
         12    1    6    6    0    0 -0.15050665277E+02 -0.23619886483E+02  0.49798971892E+02  0.57134570658E+02  0.00000000000E+00 0. -1.
         -5    1    3    3    0  503 -0.32953416187E+02 -0.19563566927E+01  0.65539800272E+01  0.33982342828E+02  0.47000000000E+01 0.  1.
         11    1    4    4    0    0  0.28664868651E+02  0.32253299939E+02  0.67207210801E+02  0.79867134889E+02  0.00000000000E+00 0. -1.
        -12    1    4    4    0    0  0.27641007261E+02 -0.18027528069E+02  0.24968677066E+03  0.25185809594E+03  0.00000000000E+00 0.  1.
</event>
<event>
12    1  0.8633375E-002  0.1847080E+03  0.7818608E-02  0.1164973E+00
         21   -1    0    0  501  502  0.00000000000E+00  0.00000000000E+00  0.12090981757E+03  0.12090981757E+03  0.00000000000E+00 0. -1.
         21   -1    0    0  502  503 -0.00000000000E+00 -0.00000000000E+00 -0.27596818917E+03  0.27596818917E+03  0.00000000000E+00 0.  1.
         -6    2    1    2    0  503 -0.17328491821E+02  0.39624367979E+02 -0.51437886289E+02  0.18508976159E+03  0.17245868065E+03 0.  0.
        -24    2    3    3    0    0  0.41933514354E+02 -0.21231295658E+02 -0.26347172198E+02  0.96393475836E+02  0.79927099031E+02 0.  0.
          6    2    1    2  501    0  0.17328491821E+02 -0.39624367979E+02 -0.10362048531E+03  0.21178824515E+03  0.17957363014E+03 0.  0.
         24    2    5    5    0    0 -0.27667420130E+02 -0.70244602416E+02 -0.11150999240E+03  0.15659254630E+03  0.79918438716E+02 0.  0.
          5    1    5    5  501    0  0.44995911952E+02  0.30620234437E+02  0.78895070929E+01  0.55195698850E+02  0.47000000000E+01 0. -1.
        -11    1    6    6    0    0  0.13789024273E+02  0.98086993484E+01 -0.32836157737E+02  0.36939965190E+02  0.00000000000E+00 0.  1.
         12    1    6    6    0    0 -0.41456444404E+02 -0.80053301764E+02 -0.78673834664E+02  0.11965258111E+03  0.00000000000E+00 0. -1.
         -5    1    3    3    0  503 -0.59262006176E+02  0.60855663637E+02 -0.25090714091E+02  0.88696285752E+02  0.47000000000E+01 0.  1.
         13    1    4    4    0    0  0.58586933953E+02  0.78855348613E+01 -0.18534972437E+02  0.61952850567E+02  0.00000000000E+00 0. -1.
        -14    1    4    4    0    0 -0.16653419599E+02 -0.29116830520E+02 -0.78121997604E+01  0.34440625269E+02  0.00000000000E+00 0.  1.
</event>
<event>
12    1  0.8633375E-002  0.2118525E+03  0.7818608E-02  0.1140304E+00
         21   -1    0    0  503  502  0.00000000000E+00  0.00000000000E+00  0.82897618275E+03  0.82897618275E+03  0.00000000000E+00 0.  1.
         21   -1    0    0  501  503 -0.00000000000E+00 -0.00000000000E+00 -0.77325275763E+02  0.77325275763E+02  0.00000000000E+00 0. -1.
          6    2    1    2  501    0  0.31734551907E+02 -0.11804736600E+03  0.12695111280E+03  0.24697786604E+03  0.17302953178E+03 0.  0.
         24    2    3    3    0    0 -0.43775769717E+02 -0.32082878878E+02  0.61653774197E+02  0.11515399056E+03  0.80707029050E+02 0.  0.
         -6    2    1    2    0  502 -0.31734551907E+02  0.11804736600E+03  0.62469979419E+03  0.65932359247E+03  0.17180076927E+03 0.  0.
        -24    2    5    5    0    0  0.39699568691E+02  0.89190191234E+02  0.46705454788E+03  0.48379671759E+03  0.79927262485E+02 0.  0.
          5    1    3    3  501    0  0.75510321624E+02 -0.85964487126E+02  0.65297338600E+02  0.13182387548E+03  0.47000000000E+01 0. -1.
        -13    1    4    4    0    0 -0.44745731550E+02 -0.20958633835E+02  0.79793208323E+02  0.93853081562E+02  0.00000000000E+00 0.  1.
         14    1    4    4    0    0  0.96996183325E+00 -0.11124245043E+02 -0.18139434127E+02  0.21300908999E+02  0.00000000000E+00 0. -1.
         -5    1    5    5    0  502 -0.71434120598E+02  0.28857174770E+02  0.15764524631E+03  0.17552687488E+03  0.47000000000E+01 0.  1.
         11    1    6    6    0    0  0.26252163000E+02  0.46790925404E+02  0.95088371511E+02  0.10918042480E+03  0.00000000000E+00 0. -1.
        -12    1    6    6    0    0  0.13447405691E+02  0.42399265830E+02  0.37196617637E+03  0.37461629279E+03  0.00000000000E+00 0.  1.
</event>
<event>
12    1  0.8633375E-002  0.1896673E+03  0.7818608E-02  0.1158927E+00
         21   -1    0    0  503  502  0.00000000000E+00  0.00000000000E+00  0.12634220745E+03  0.12634220745E+03  0.00000000000E+00 0.  1.
         21   -1    0    0  501  503 -0.00000000000E+00 -0.00000000000E+00 -0.39015181634E+03  0.39015181634E+03  0.00000000000E+00 0.  1.
          6    2    1    2  501    0  0.33314629389E+02 -0.71911084520E+02 -0.26702533345E+03  0.32753047544E+03  0.17231545209E+03 0.  0.
         24    2    3    3    0    0 -0.40088191821E+02 -0.74236025250E+02 -0.15613020521E+03  0.19443953293E+03  0.79448350634E+02 0.  0.
         -6    2    1    2    0  502 -0.33314629389E+02  0.71911084520E+02  0.32157245559E+01  0.18896354836E+03  0.17151038778E+03 0.  0.
        -24    2    5    5    0    0 -0.70971453539E+02  0.10404484954E+02  0.29669913044E+02  0.11200243945E+03  0.80740585696E+02 0.  0.
          5    1    3    3  501    0  0.73402821209E+02  0.23249407298E+01 -0.11089512824E+03  0.13309094251E+03  0.47000000000E+01 0. -1.
        -13    1    4    4    0    0 -0.36210157798E+02 -0.79265933676E+00 -0.83772510589E+02  0.91266847031E+02  0.00000000000E+00 0.  1.
         14    1    4    4    0    0 -0.38780340226E+01 -0.73443365913E+02 -0.72357694620E+02  0.10317268590E+03  0.00000000000E+00 0. -1.
         -5    1    5    5    0  502  0.37656824151E+02  0.61506599566E+02 -0.26454188488E+02  0.76961108905E+02  0.47000000000E+01 0.  1.
         11    1    6    6    0    0 -0.42294231007E+02  0.45712992071E+02  0.20796076923E+02  0.65657874135E+02  0.00000000000E+00 0. -1.
        -12    1    6    6    0    0 -0.28677222532E+02 -0.35308507116E+02  0.88738361216E+01  0.46344565317E+02  0.00000000000E+00 0.  1.
</event>
<event>
12    1  0.8633375E-002  0.1746544E+03  0.7818608E-02  0.1173166E+00
         21   -1    0    0  503  502  0.00000000000E+00  0.00000000000E+00  0.36661200859E+03  0.36661200859E+03  0.00000000000E+00 0.  1.
         21   -1    0    0  501  503 -0.00000000000E+00 -0.00000000000E+00 -0.97376312134E+02  0.97376312134E+02  0.00000000000E+00 0.  1.
          6    2    1    2  501    0 -0.26220261975E+02  0.69062414643E+00  0.45721238200E+02  0.18053973019E+03  0.17267363278E+03 0.  0.
         24    2    3    3    0    0 -0.41960349801E+01 -0.15598311946E+02 -0.39308659834E+02  0.91082647894E+02  0.80560312588E+02 0.  0.
         -6    2    1    2    0  502  0.26220261975E+02 -0.69062414643E+00  0.22351445826E+03  0.28344859053E+03  0.17232646728E+03 0.  0.
        -24    2    5    5    0    0 -0.12280128607E+02  0.11433787662E+02  0.24359397713E+02  0.80189864823E+02  0.74535233980E+02 0.  0.
          5    1    3    3  501    0 -0.22024226995E+02  0.16288936092E+02  0.85029898034E+02  0.89457082298E+02  0.47000000000E+01 0. -1.
        -11    1    4    4    0    0 -0.11044676268E+02 -0.46727544624E+02 -0.33843571523E+02  0.58743813579E+02  0.00000000000E+00 0.  1.
         12    1    4    4    0    0  0.68486412876E+01  0.31129232678E+02 -0.54650883114E+01  0.32338834315E+02  0.00000000000E+00 0. -1.
         -5    1    5    5    0  502  0.38500390582E+02 -0.12124411809E+02  0.19915506055E+03  0.20325872571E+03  0.47000000000E+01 0.  1.
         13    1    6    6    0    0  0.23193167802E+02 -0.18664499057E+02  0.74309127947E+01  0.30683953831E+02  0.00000000000E+00 0. -1.
        -14    1    6    6    0    0 -0.35473296409E+02  0.30098286719E+02  0.16928484918E+02  0.49505910992E+02  0.00000000000E+00 0.  1.
</event>
<event>
12    1  0.8633375E-002  0.1902812E+03  0.7818608E-02  0.1158230E+00
         21   -1    0    0  501  502  0.00000000000E+00  0.00000000000E+00  0.88383242587E+03  0.88383242587E+03  0.00000000000E+00 0.  1.
         21   -1    0    0  502  503 -0.00000000000E+00 -0.00000000000E+00 -0.87798735272E+02  0.87798735272E+02  0.00000000000E+00 0.  1.
         -6    2    1    2    0  503  0.34558337549E+02  0.73698075052E+02  0.43071905483E+02  0.19499844182E+03  0.17188228039E+03 0.  0.
        -24    2    3    3    0    0 -0.33977411257E+02  0.50321600767E+02  0.65926814775E+02  0.11891923775E+03  0.78158251133E+02 0.  0.
          6    2    1    2  501    0 -0.34558337549E+02 -0.73698075052E+02  0.75296178512E+03  0.77663271932E+03  0.17199199375E+03 0.  0.
         24    2    5    5    0    0  0.13661723814E+02 -0.56405273155E+02  0.22339460668E+03  0.24457285259E+03  0.80885922074E+02 0.  0.
          5    1    5    5  501    0 -0.48220061364E+02 -0.17292801898E+02  0.52956717843E+03  0.53205986673E+03  0.47000000000E+01 0. -1.
        -11    1    6    6    0    0 -0.29089118653E+02 -0.35268181509E+02  0.67329068927E+02  0.81383198349E+02  0.00000000000E+00 0.  1.
         12    1    6    6    0    0  0.42750842467E+02 -0.21137091645E+02  0.15606553776E+03  0.16318965424E+03  0.00000000000E+00 0. -1.
         -5    1    3    3    0  503  0.68535748806E+02  0.23376474285E+02 -0.22854909291E+02  0.76079204078E+02  0.47000000000E+01 0.  1.
         11    1    4    4    0    0  0.25316547814E+02  0.19524813241E+02  0.17968842246E+02  0.36674585437E+02  0.00000000000E+00 0. -1.
        -12    1    4    4    0    0 -0.59293959071E+02  0.30796787526E+02  0.47957972529E+02  0.82244652308E+02  0.00000000000E+00 0.  1.
</event>
<event>
12    1  0.8633375E-002  0.1860419E+03  0.7818608E-02  0.1162406E+00
         21   -1    0    0  501  502  0.00000000000E+00  0.00000000000E+00  0.20151422250E+04  0.20151422250E+04  0.00000000000E+00 0. -1.
         21   -1    0    0  502  503 -0.00000000000E+00 -0.00000000000E+00 -0.22607941067E+02  0.22607941067E+02  0.00000000000E+00 0. -1.
         -6    2    1    2    0  503 -0.65856872907E+02  0.27592867172E+02  0.48811923128E+03  0.52187542081E+03  0.17027940827E+03 0.  0.
        -24    2    3    3    0    0 -0.77798795101E+02  0.41368838082E+02  0.19853623328E+03  0.23168102113E+03  0.80594207874E+02 0.  0.
          6    2    1    2  501    0  0.65856872907E+02 -0.27592867172E+02  0.15044150526E+04  0.15158747452E+04  0.17179376765E+03 0.  0.
         24    2    5    5    0    0  0.56075813554E+01 -0.72259762054E+02  0.10251547029E+04  0.10307585927E+04  0.79171922665E+02 0.  0.
          5    1    5    5  501    0  0.60249291552E+02  0.44666894882E+02  0.47926034977E+03  0.48511615258E+03  0.47000000000E+01 0. -1.
        -13    1    6    6    0    0 -0.13032491566E+02  0.83481408907E+01  0.38074974808E+03  0.38106417827E+03  0.00000000000E+00 0.  1.
         14    1    6    6    0    0  0.18640072921E+02 -0.80607902945E+02  0.64440495479E+03  0.64969441439E+03  0.00000000000E+00 0. -1.
         -5    1    3    3    0  503  0.11941922194E+02 -0.13775970910E+02  0.28958299800E+03  0.29019439969E+03  0.47000000000E+01 0.  1.
         11    1    4    4    0    0  0.85932652117E+01  0.29644879671E+02  0.37591090866E+02  0.48639009141E+02  0.00000000000E+00 0. -1.
        -12    1    4    4    0    0 -0.86392060312E+02  0.11723958411E+02  0.16094514241E+03  0.18304201199E+03  0.00000000000E+00 0.  1.
</event>
<event>
12    1  0.8633375E-002  0.2941847E+03  0.7818608E-02  0.1088752E+00
         21   -1    0    0  503  502  0.00000000000E+00  0.00000000000E+00  0.14601436567E+03  0.14601436567E+03  0.00000000000E+00 0.  1.
         21   -1    0    0  501  503 -0.00000000000E+00 -0.00000000000E+00 -0.58425170821E+03  0.58425170821E+03  0.00000000000E+00 0. -1.
          6    2    1    2  501    0  0.20683276986E+03  0.10724897035E+03 -0.22650150169E+03  0.36780682814E+03  0.17232758406E+03 0.  0.
         24    2    3    3    0    0  0.12536376824E+03  0.91483056390E+01 -0.67468229701E+02  0.16390829886E+03  0.80710609795E+02 0.  0.
         -6    2    1    2    0  502 -0.20683276986E+03 -0.10724897035E+03 -0.21173584085E+03  0.36245924575E+03  0.17961765560E+03 0.  0.
        -24    2    5    5    0    0 -0.13684937483E+03  0.89084000535E+01 -0.78927034281E+02  0.17258960789E+03  0.68924487879E+02 0.  0.
          5    1    3    3  501    0  0.81469001616E+02  0.98100664713E+02 -0.15903327199E+03  0.20389852928E+03  0.47000000000E+01 0. -1.
        -13    1    4    4    0    0  0.73756666135E+02 -0.29423796910E+02 -0.58993249572E+02  0.98924259507E+02  0.00000000000E+00 0.  1.
         14    1    4    4    0    0  0.51607102105E+02  0.38572102549E+02 -0.84749801296E+01  0.64984039356E+02  0.00000000000E+00 0. -1.
         -5    1    5    5    0  502 -0.69983395031E+02 -0.11615737041E+03 -0.13280880657E+03  0.18986963786E+03  0.47000000000E+01 0.  1.
         13    1    6    6    0    0 -0.11398337518E+02 -0.11121587346E+02 -0.34512390971E+02  0.38009432169E+02  0.00000000000E+00 0. -1.
        -14    1    6    6    0    0 -0.12545103731E+03  0.20029987399E+02 -0.44414643310E+02  0.13458017572E+03  0.00000000000E+00 0.  1.
</event>
<event>
12    1  0.8633375E-002  0.2608513E+03  0.7818608E-02  0.1107050E+00
         21   -1    0    0  503  502  0.00000000000E+00  0.00000000000E+00  0.43174207535E+03  0.43174207535E+03  0.00000000000E+00 0.  1.
         21   -1    0    0  501  503 -0.00000000000E+00 -0.00000000000E+00 -0.70751099309E+03  0.70751099309E+03  0.00000000000E+00 0.  1.
          6    2    1    2  501    0  0.12699783643E+03 -0.14606594228E+03 -0.64099912694E+03  0.69204283894E+03  0.17487052421E+03 0.  0.
         24    2    3    3    0    0  0.14707863783E+03 -0.15779852818E+03 -0.61672981634E+03  0.65810198460E+03  0.78803899383E+02 0.  0.
         -6    2    1    2    0  502 -0.12699783643E+03  0.14606594228E+03  0.36523020920E+03  0.44721022950E+03  0.17070493171E+03 0.  0.
        -24    2    5    5    0    0  0.27164763268E+00  0.36726702845E+02  0.15496875244E+03  0.17816643929E+03  0.79868901095E+02 0.  0.
          5    1    3    3  501    0 -0.20080801400E+02  0.11732585905E+02 -0.24269310597E+02  0.33940854346E+02  0.47000000000E+01 0. -1.
        -11    1    4    4    0    0  0.48481451125E+02 -0.87757600538E+01 -0.10285939790E+03  0.11405051865E+03  0.00000000000E+00 0.  1.
         12    1    4    4    0    0  0.98597186706E+02 -0.14902276813E+03 -0.51387041844E+03  0.54405146595E+03  0.00000000000E+00 0. -1.
         -5    1    5    5    0  502 -0.12726948406E+03  0.10933923943E+03  0.21026145676E+03  0.26904379021E+03  0.47000000000E+01 0.  1.
         11    1    6    6    0    0  0.21991165143E+02  0.46470152093E+02  0.54525045969E+02  0.74940423123E+02  0.00000000000E+00 0. -1.
        -12    1    6    6    0    0 -0.21719517511E+02 -0.97434492481E+01  0.10044370647E+03  0.10322601617E+03  0.00000000000E+00 0.  1.
</event>
<event>
12    1  0.8633375E-002  0.2236810E+03  0.7818608E-02  0.1131285E+00
         21   -1    0    0  501  502  0.00000000000E+00  0.00000000000E+00  0.17110243663E+04  0.17110243663E+04  0.00000000000E+00 0. -1.
         21   -1    0    0  502  503 -0.00000000000E+00 -0.00000000000E+00 -0.34722075418E+02  0.34722075418E+02  0.00000000000E+00 0. -1.
         -6    2    1    2    0  503 -0.12969704427E+03 -0.57209306662E+02  0.48974073729E+03  0.53840430733E+03  0.17302884246E+03 0.  0.
        -24    2    3    3    0    0 -0.10681379591E+03 -0.43796618335E+02  0.18345426573E+03  0.23093555131E+03  0.79677038546E+02 0.  0.
          6    2    1    2  501    0  0.12969704427E+03  0.57209306662E+02  0.11865615536E+04  0.12073421344E+04  0.17219895747E+03 0.  0.
         24    2    5    5    0    0  0.11385908052E+03  0.59825263173E+02  0.11795614415E+04  0.11892099560E+04  0.79449183748E+02 0.  0.
          5    1    5    5  501    0  0.15837963750E+02 -0.26159565114E+01  0.70001120703E+01  0.18132178391E+02  0.47000000000E+01 0. -1.
        -13    1    6    6    0    0 -0.81623758760E+01 -0.38295483254E+01  0.27112615614E+02  0.28572429819E+02  0.00000000000E+00 0.  1.
         14    1    6    6    0    0  0.12202145640E+03  0.63654811499E+02  0.11524488259E+04  0.11606375262E+04  0.00000000000E+00 0. -1.
         -5    1    3    3    0  503 -0.22883248364E+02 -0.13412688326E+02  0.30628647156E+03  0.30746875602E+03  0.47000000000E+01 0.  1.
         13    1    4    4    0    0 -0.10249522794E+03 -0.57273004333E+02  0.18216620479E+03  0.21672562134E+03  0.00000000000E+00 0. -1.
        -14    1    4    4    0    0 -0.43185679692E+01  0.13476385997E+02  0.12880609339E+01  0.14209929972E+02  0.00000000000E+00 0.  1.
</event>
<event>
12    1  0.8633375E-002  0.2545500E+03  0.7818608E-02  0.1111263E+00
         21   -1    0    0  501  502  0.00000000000E+00  0.00000000000E+00  0.16087912445E+03  0.16087912445E+03  0.00000000000E+00 0. -1.
         21   -1    0    0  502  503 -0.00000000000E+00 -0.00000000000E+00 -0.40348708600E+03  0.40348708600E+03  0.00000000000E+00 0. -1.
         -6    2    1    2    0  503  0.27960012126E+02  0.18590589879E+03 -0.16419681191E+03  0.30291304441E+03  0.17161862938E+03 0.  0.
        -24    2    3    3    0    0 -0.39018475133E+02  0.43663898061E+02 -0.64179506771E+02  0.11651439674E+03  0.77637736713E+02 0.  0.
          6    2    1    2  501    0 -0.27960012126E+02 -0.18590589879E+03 -0.78411149639E+02  0.26145316603E+03  0.16391059806E+03 0.  0.
         24    2    5    5    0    0 -0.56152799223E+02 -0.48646653905E+02 -0.34222139792E+01  0.10245516597E+03  0.70467834427E+02 0.  0.
          5    1    5    5  501    0  0.28192787097E+02 -0.13725924489E+03 -0.74988935660E+02  0.15899800006E+03  0.47000000000E+01 0. -1.
        -13    1    6    6    0    0 -0.24236177584E+02  0.88822337291E+01 -0.22191894614E+02  0.34040660488E+02  0.00000000000E+00 0.  1.
         14    1    6    6    0    0 -0.31916621639E+02 -0.57528887634E+02  0.18769680635E+02  0.68414505483E+02  0.00000000000E+00 0. -1.
         -5    1    3    3    0  503  0.66978487259E+02  0.14224200073E+03 -0.10001730514E+03  0.18639864768E+03  0.47000000000E+01 0.  1.
         13    1    4    4    0    0 -0.43654295299E+02  0.20481373037E+02 -0.76058748834E+02  0.90056190314E+02  0.00000000000E+00 0. -1.
        -14    1    4    4    0    0  0.46358201661E+01  0.23182525025E+02  0.11879242063E+02  0.26458206423E+02  0.00000000000E+00 0.  1.
</event>
<event>
12    1  0.8633375E-002  0.1862813E+03  0.7818608E-02  0.1162825E+00
         21   -1    0    0  501  502  0.00000000000E+00  0.00000000000E+00  0.37231214198E+02  0.37231214198E+02  0.00000000000E+00 0. -1.
         21   -1    0    0  502  503 -0.00000000000E+00 -0.00000000000E+00 -0.93328192343E+03  0.93328192343E+03  0.00000000000E+00 0.  1.
         -6    2    1    2    0  503 -0.69838976000E+02  0.22779128772E+02 -0.52703251961E+03  0.55898480611E+03  0.17118517886E+03 0.  0.
        -24    2    3    3    0    0 -0.48991316601E+02 -0.26011626371E+02 -0.15628633188E+03  0.18443175459E+03  0.80702544931E+02 0.  0.
          6    2    1    2  501    0  0.69838976000E+02 -0.22779128772E+02 -0.36901818962E+03  0.41152833152E+03  0.16668764829E+03 0.  0.
         24    2    5    5    0    0  0.11083811831E+03 -0.22417269498E+02 -0.30915273056E+03  0.33881640814E+03  0.80209258647E+02 0.  0.
          5    1    5    5  501    0 -0.40999142309E+02 -0.36185927401E+00 -0.59865459064E+02  0.72711923377E+02  0.47000000000E+01 0. -1.
        -13    1    6    6    0    0  0.13589787825E+01 -0.13674450354E+02 -0.11446502401E+03  0.11528694261E+03  0.00000000000E+00 0.  1.
         14    1    6    6    0    0  0.10947913953E+03 -0.87428191438E+01 -0.19468770655E+03  0.22352946553E+03  0.00000000000E+00 0. -1.
         -5    1    3    3    0  503 -0.20847659399E+02  0.48790755143E+02 -0.37074618773E+03  0.37455305153E+03  0.47000000000E+01 0.  1.
         13    1    4    4    0    0 -0.24258663715E+02 -0.54640139745E+02 -0.10276188899E+03  0.11888664124E+03  0.00000000000E+00 0. -1.
        -14    1    4    4    0    0 -0.24732652887E+02  0.28628513374E+02 -0.53524442891E+02  0.65545113346E+02  0.00000000000E+00 0.  1.
</event>
<event>
12    1  0.8633375E-002  0.1896379E+03  0.7818608E-02  0.1158965E+00
         21   -1    0    0  503  502  0.00000000000E+00  0.00000000000E+00  0.10993477341E+03  0.10993477341E+03  0.00000000000E+00 0. -1.
         21   -1    0    0  501  503 -0.00000000000E+00 -0.00000000000E+00 -0.53861768748E+03  0.53861768748E+03  0.00000000000E+00 0. -1.
          6    2    1    2  501    0 -0.54283676242E+02  0.59296864023E+02 -0.41791831972E+03  0.45860930502E+03  0.17089159459E+03 0.  0.
         24    2    3    3    0    0 -0.99358272422E+02  0.37069071957E+01 -0.30422738458E+03  0.32418579050E+03  0.51539477861E+02 0.  0.
         -6    2    1    2    0  502  0.54283676242E+02 -0.59296864023E+02 -0.10764594351E+02  0.18994315586E+03  0.17175473903E+03 0.  0.
        -24    2    5    5    0    0 -0.37824740573E+02  0.14605750057E+02  0.17593409595E+02  0.68403766347E+02  0.52206400518E+02 0.  0.
          5    1    3    3  501    0  0.45074596180E+02  0.55589956827E+02 -0.11369093515E+03  0.13442351452E+03  0.47000000000E+01 0. -1.
        -13    1    4    4    0    0 -0.23706133323E+02 -0.14539424863E+02 -0.39861234939E+02  0.48603432835E+02  0.00000000000E+00 0.  1.
         14    1    4    4    0    0 -0.75652139100E+02  0.18246332059E+02 -0.26436614964E+03  0.27558235767E+03  0.00000000000E+00 0. -1.
         -5    1    5    5    0  502  0.92108416816E+02 -0.73902614080E+02 -0.28358003946E+02  0.12153938952E+03  0.47000000000E+01 0.  1.
         11    1    6    6    0    0 -0.88829281199E+01 -0.13969722708E+02  0.21957147178E+02  0.27498652271E+02  0.00000000000E+00 0. -1.
        -12    1    6    6    0    0 -0.28941812453E+02  0.28575472765E+02 -0.43637375832E+01  0.40905114075E+02  0.00000000000E+00 0.  1.
</event>
<event>
12    1  0.8633375E-002  0.1780175E+03  0.7818608E-02  0.1169744E+00
         21   -1    0    0  503  502  0.00000000000E+00  0.00000000000E+00  0.22487150438E+03  0.22487150438E+03  0.00000000000E+00 0.  1.
         21   -1    0    0  501  503 -0.00000000000E+00 -0.00000000000E+00 -0.28367980084E+03  0.28367980084E+03  0.00000000000E+00 0.  1.
          6    2    1    2  501    0  0.22791978053E+02 -0.38231496025E+02 -0.20980121106E+03  0.27514867292E+03  0.17236334440E+03 0.  0.
         24    2    3    3    0    0  0.13893793259E+02 -0.69224119756E+02 -0.21877421349E+03  0.24135037132E+03  0.73503938686E+02 0.  0.
         -6    2    1    2    0  502 -0.22791978053E+02  0.38231496025E+02  0.15099291460E+03  0.23340263231E+03  0.17232761519E+03 0.  0.
        -24    2    5    5    0    0  0.17052524776E+02  0.64787927566E+02  0.41277833278E+02  0.11360147400E+03  0.81933944217E+02 0.  0.
          5    1    3    3  501    0  0.88981847935E+01  0.30992623731E+02  0.89730024263E+01  0.33798301597E+02  0.47000000000E+01 0. -1.
        -13    1    4    4    0    0 -0.27058101245E+02 -0.28864811877E+02 -0.12730115125E+03  0.13330754412E+03  0.00000000000E+00 0.  1.
         14    1    4    4    0    0  0.40951894505E+02 -0.40359307878E+02 -0.91473062235E+02  0.10804282721E+03  0.00000000000E+00 0. -1.
         -5    1    5    5    0  502 -0.39844502829E+02 -0.26556431541E+02  0.10971508132E+03  0.11980115831E+03  0.47000000000E+01 0.  1.
         13    1    6    6    0    0 -0.29312669098E+02  0.27524467805E+02 -0.16529906211E+01  0.40243773128E+02  0.00000000000E+00 0. -1.
        -14    1    6    6    0    0  0.46365193874E+02  0.37263459761E+02  0.42930823899E+02  0.73357700871E+02  0.00000000000E+00 0.  1.
</event>
<event>
12    1  0.8633375E-002  0.1748438E+03  0.7818608E-02  0.1172903E+00
         21   -1    0    0  503  502  0.00000000000E+00  0.00000000000E+00  0.12154125953E+03  0.12154125953E+03  0.00000000000E+00 0. -1.
         21   -1    0    0  501  503 -0.00000000000E+00 -0.00000000000E+00 -0.32563577742E+03  0.32563577742E+03  0.00000000000E+00 0. -1.
          6    2    1    2  501    0  0.16497444434E+02  0.24741018699E+02 -0.20878465385E+03  0.27232586584E+03  0.17229643596E+03 0.  0.
         24    2    3    3    0    0 -0.16037935897E+02  0.74514344128E+02 -0.16541463307E+03  0.19857640076E+03  0.79126375093E+02 0.  0.
         -6    2    1    2    0  502 -0.16497444434E+02 -0.24741018699E+02  0.46901359637E+01  0.17485117111E+03  0.17224009692E+03 0.  0.
        -24    2    5    5    0    0  0.25338787850E+02 -0.67155997166E+02 -0.20449873524E+02  0.11001745452E+03  0.80831063630E+02 0.  0.
          5    1    3    3  501    0  0.32535380331E+02 -0.49773325429E+02 -0.43370020780E+02  0.73749465083E+02  0.47000000000E+01 0. -1.
        -13    1    4    4    0    0  0.82733315818E+01  0.13345171141E+01 -0.91094682420E+02  0.91479342567E+02  0.00000000000E+00 0.  1.
         14    1    4    4    0    0 -0.24311267479E+02  0.73179827014E+02 -0.74319950649E+02  0.10709705819E+03  0.00000000000E+00 0. -1.
         -5    1    5    5    0  502 -0.41836232284E+02  0.42414978467E+02  0.25140009488E+02  0.64833716592E+02  0.47000000000E+01 0.  1.
         13    1    6    6    0    0 -0.20390629807E+02 -0.34321686597E+02 -0.33629894921E+02  0.52198905996E+02  0.00000000000E+00 0. -1.
        -14    1    6    6    0    0  0.45729417657E+02 -0.32834310569E+02  0.13180021396E+02  0.57818548527E+02  0.00000000000E+00 0.  1.
</event>
<event>
12    1  0.8633375E-002  0.2051048E+03  0.7818608E-02  0.1145550E+00
         21   -1    0    0  503  502  0.00000000000E+00  0.00000000000E+00  0.22568595728E+03  0.22568595728E+03  0.00000000000E+00 0. -1.
         21   -1    0    0  501  503 -0.00000000000E+00 -0.00000000000E+00 -0.18961180113E+03  0.18961180113E+03  0.00000000000E+00 0. -1.
          6    2    1    2  501    0  0.91675052263E+01  0.11147059327E+03 -0.98485191920E+01  0.20534115799E+03  0.17192516254E+03 0.  0.
         24    2    3    3    0    0  0.56579728751E+02  0.25932980400E+02 -0.28540833757E+02  0.10566119621E+03  0.80473126043E+02 0.  0.
         -6    2    1    2    0  502 -0.91675052263E+01 -0.11147059327E+03  0.45922675339E+02  0.20995660042E+03  0.17164831963E+03 0.  0.
        -24    2    5    5    0    0  0.49699602568E+01 -0.11139483290E+03  0.89610654007E+02  0.16379814345E+03  0.79788803620E+02 0.  0.
          5    1    3    3  501    0 -0.47412223525E+02  0.85537612875E+02  0.18692314565E+02  0.99679961776E+02  0.47000000000E+01 0. -1.
        -13    1    4    4    0    0 -0.20185562465E+02 -0.10471888573E+01 -0.80138708865E+01  0.21743405049E+02  0.00000000000E+00 0.  1.
         14    1    4    4    0    0  0.76765291217E+02  0.26980169257E+02 -0.20526962870E+02  0.83917791161E+02  0.00000000000E+00 0. -1.
         -5    1    5    5    0  502 -0.14137465483E+02 -0.75760374562E-01 -0.43687978668E+02  0.46158456972E+02  0.47000000000E+01 0.  1.
         13    1    6    6    0    0 -0.33636257024E+02 -0.46497906358E+02  0.19098730005E+02  0.60483175925E+02  0.00000000000E+00 0. -1.
        -14    1    6    6    0    0  0.38606217281E+02 -0.64896926543E+02  0.70511924002E+02  0.10331496752E+03  0.00000000000E+00 0.  1.
</event>
<event>
12    1  0.8633375E-002  0.1996240E+03  0.7818608E-02  0.1150141E+00
         21   -1    0    0  501  502  0.00000000000E+00  0.00000000000E+00  0.16872254108E+03  0.16872254108E+03  0.00000000000E+00 0.  1.
         21   -1    0    0  502  503 -0.00000000000E+00 -0.00000000000E+00 -0.23982000123E+03  0.23982000123E+03  0.00000000000E+00 0.  1.
         -6    2    1    2    0  503 -0.40902519374E+02 -0.94099736744E+02 -0.62245495798E+02  0.20872235405E+03  0.17077102444E+03 0.  0.
        -24    2    3    3    0    0 -0.55787947401E+02 -0.83509901614E+02 -0.10349843913E+03  0.16336140269E+03  0.76738661985E+02 0.  0.
          6    2    1    2  501    0  0.40902519374E+02  0.94099736744E+02 -0.88519643565E+01  0.19982018826E+03  0.17123660186E+03 0.  0.
         24    2    5    5    0    0  0.54399801601E+02  0.69485620952E+02 -0.66231994279E+02  0.13576873116E+03  0.79113092216E+02 0.  0.
          5    1    5    5  501    0 -0.13497282227E+02  0.24614115792E+02  0.57380029923E+02  0.64051457108E+02  0.47000000000E+01 0. -1.
        -13    1    6    6    0    0 -0.15298856209E+02  0.39989296696E+02 -0.25095699306E+02  0.49628550001E+02  0.00000000000E+00 0.  1.
         14    1    6    6    0    0  0.69698657810E+02  0.29496324256E+02 -0.41136294973E+02  0.86140181154E+02  0.00000000000E+00 0. -1.
         -5    1    3    3    0  503  0.14885428028E+02 -0.10589835131E+02  0.41252943328E+02  0.45360951366E+02  0.47000000000E+01 0.  1.
         11    1    4    4    0    0  0.10109167082E+02  0.60242561013E+01 -0.23876743247E+02  0.26619274760E+02  0.00000000000E+00 0. -1.
        -12    1    4    4    0    0 -0.65897114484E+02 -0.89534157715E+02 -0.79621695878E+02  0.13674212793E+03  0.00000000000E+00 0.  1.
</event>
<event>
12    1  0.8633375E-002  0.1988879E+03  0.7818608E-02  0.1150907E+00
         21   -1    0    0  503  502  0.00000000000E+00  0.00000000000E+00  0.17851670917E+03  0.17851670917E+03  0.00000000000E+00 0. -1.
         21   -1    0    0  501  503 -0.00000000000E+00 -0.00000000000E+00 -0.40298084223E+03  0.40298084223E+03  0.00000000000E+00 0. -1.
          6    2    1    2  501    0 -0.24810705585E+02  0.93911639132E+02 -0.30777142096E+03  0.36586711903E+03  0.17233842911E+03 0.  0.
         24    2    3    3    0    0 -0.49415231503E+01  0.66445820374E+02 -0.65560614947E+02  0.12125043897E+03  0.77226996723E+02 0.  0.
         -6    2    1    2    0  502  0.24810705585E+02 -0.93911639132E+02  0.83307287894E+02  0.21563043237E+03  0.17355521333E+03 0.  0.
        -24    2    5    5    0    0 -0.27023737821E+02 -0.32565461153E+02  0.98568820487E+02  0.13374534550E+03  0.79882497481E+02 0.  0.
          5    1    3    3  501    0 -0.19869182434E+02  0.27465818758E+02 -0.24221080601E+03  0.24461668005E+03  0.47000000000E+01 0. -1.
        -13    1    4    4    0    0  0.34168666322E+02  0.29869656391E+02 -0.44938821708E+02  0.63868551163E+02  0.00000000000E+00 0.  1.
         14    1    4    4    0    0 -0.39110189473E+02  0.36576163983E+02 -0.20621793239E+02  0.57381887810E+02  0.00000000000E+00 0. -1.
         -5    1    5    5    0  502  0.51834443406E+02 -0.61346177979E+02 -0.15261532593E+02  0.81885086877E+02  0.47000000000E+01 0.  1.
         13    1    6    6    0    0  0.17058265240E+01 -0.45310257967E+02  0.20839101034E+02  0.49901878253E+02  0.00000000000E+00 0. -1.
        -14    1    6    6    0    0 -0.28729564345E+02  0.12744796815E+02  0.77729719452E+02  0.83843467244E+02  0.00000000000E+00 0.  1.
</event>
<event>
12    1  0.8633375E-002  0.2613999E+03  0.7818608E-02  0.1106319E+00
         21   -1    0    0  503  502  0.00000000000E+00  0.00000000000E+00  0.80189657269E+03  0.80189657269E+03  0.00000000000E+00 0. -1.
         21   -1    0    0  501  503 -0.00000000000E+00 -0.00000000000E+00 -0.13083722633E+03  0.13083722633E+03  0.00000000000E+00 0.  1.
          6    2    1    2  501    0  0.15424472758E+03  0.12270633571E+03  0.60071803084E+02  0.26821362686E+03  0.17170220529E+03 0.  0.
         24    2    3    3    0    0  0.12376159108E+03  0.15323072968E+03  0.28016279789E+02  0.21426358690E+03  0.79544860272E+02 0.  0.
         -6    2    1    2    0  502 -0.15424472758E+03 -0.12270633571E+03  0.61098754327E+03  0.66452017216E+03  0.17156048603E+03 0.  0.
        -24    2    5    5    0    0 -0.55924441559E+01 -0.49898573871E+02  0.26107262158E+03  0.27740130931E+03  0.79192357984E+02 0.  0.
          5    1    3    3  501    0  0.30483136499E+02 -0.30524393971E+02  0.32055523295E+02  0.53950039961E+02  0.47000000000E+01 0. -1.
        -13    1    4    4    0    0  0.93913459980E+02  0.55426745696E+02  0.25420361926E+02  0.11197346518E+03  0.00000000000E+00 0.  1.
         14    1    4    4    0    0  0.29848131099E+02  0.97803983981E+02  0.25959178628E+01  0.10229012172E+03  0.00000000000E+00 0. -1.
         -5    1    5    5    0  502 -0.14865228342E+03 -0.72807761836E+02  0.34991492170E+03  0.38711886285E+03  0.47000000000E+01 0.  1.
         13    1    6    6    0    0 -0.35341422888E+02 -0.40759733700E+02  0.10277552809E+03  0.11607403343E+03  0.00000000000E+00 0. -1.
        -14    1    6    6    0    0  0.29748978732E+02 -0.91388401709E+01  0.15829709349E+03  0.16132727588E+03  0.00000000000E+00 0.  1.
</event>
<event>
12    1  0.8633375E-002  0.1976220E+03  0.7818608E-02  0.1152528E+00
         21   -1    0    0  503  502  0.00000000000E+00  0.00000000000E+00  0.10574664243E+02  0.10574664243E+02  0.00000000000E+00 0.  1.
         21   -1    0    0  501  503 -0.00000000000E+00 -0.00000000000E+00 -0.36438334238E+04  0.36438334238E+04  0.00000000000E+00 0.  1.
          6    2    1    2  501    0  0.84799893431E+02  0.39442842706E+02 -0.19236843592E+04  0.19334493235E+04  0.17005297141E+03 0.  0.
         24    2    3    3    0    0  0.75650754177E+02  0.38322583352E+02 -0.19181996051E+04  0.19217388898E+04  0.79993615591E+02 0.  0.
         -6    2    1    2    0  502 -0.84799893431E+02 -0.39442842706E+02 -0.17095744004E+04  0.17209587645E+04  0.17409100784E+03 0.  0.
        -24    2    5    5    0    0 -0.61137595406E+01 -0.24944751176E+00 -0.37449115441E+03  0.38297633057E+03  0.79936254428E+02 0.  0.
          5    1    3    3  501    0  0.91491392541E+01  0.11202593539E+01 -0.54847540343E+01  0.11710433678E+02  0.47000000000E+01 0. -1.
        -11    1    4    4    0    0  0.64252331600E+02  0.48290598311E+02 -0.94228142644E+03  0.94570324659E+03  0.00000000000E+00 0.  1.
         12    1    4    4    0    0  0.11398422576E+02 -0.99680149586E+01 -0.97591817869E+03  0.97603564323E+03  0.00000000000E+00 0. -1.
         -5    1    5    5    0  502 -0.78686133890E+02 -0.39193395194E+02 -0.13350832459E+04  0.13379824339E+04  0.47000000000E+01 0.  1.
         13    1    6    6    0    0 -0.32866714451E+02  0.67820538176E+01 -0.74465314599E+02  0.81678027958E+02  0.00000000000E+00 0. -1.
        -14    1    6    6    0    0  0.26752954911E+02 -0.70315013294E+01 -0.30002583981E+03  0.30129830262E+03  0.00000000000E+00 0.  1.
</event>
<event>
12    1  0.8633375E-002  0.2035491E+03  0.7818608E-02  0.1147068E+00
         21   -1    0    0  501  502  0.00000000000E+00  0.00000000000E+00  0.63696457146E+03  0.63696457146E+03  0.00000000000E+00 0.  1.
         21   -1    0    0  502  503 -0.00000000000E+00 -0.00000000000E+00 -0.14596868482E+03  0.14596868482E+03  0.00000000000E+00 0.  1.
         -6    2    1    2    0  503  0.10294666029E+03 -0.31769732113E+02 -0.46401876707E+02  0.20877107790E+03  0.17269886527E+03 0.  0.
        -24    2    3    3    0    0  0.50754239149E+02  0.62663741786E+01 -0.89290757710E+02  0.13110293566E+03  0.81239646039E+02 0.  0.
          6    2    1    2  501    0 -0.10294666029E+03  0.31769732113E+02  0.53739776334E+03  0.57416217838E+03  0.17105122125E+03 0.  0.
         24    2    5    5    0    0 -0.91054397619E+02 -0.25022578100E+02  0.46505720008E+03  0.48130724042E+03  0.80383005606E+02 0.  0.
          5    1    5    5  501    0 -0.11892262668E+02  0.56792310213E+02  0.72340563262E+02  0.92854937961E+02  0.47000000000E+01 0. -1.
        -11    1    6    6    0    0 -0.58558525659E+02 -0.47932575312E+02  0.21104681886E+03  0.22420390821E+03  0.00000000000E+00 0.  1.
         12    1    6    6    0    0 -0.32495871960E+02  0.22909997212E+02  0.25401038121E+03  0.25710333221E+03  0.00000000000E+00 0. -1.
         -5    1    3    3    0  503  0.52192421138E+02 -0.38036106291E+02  0.42888881004E+02  0.77668142245E+02  0.47000000000E+01 0.  1.
         13    1    4    4    0    0  0.15815719204E+02  0.38468224037E+02 -0.17752057860E+02  0.45222525280E+02  0.00000000000E+00 0. -1.
        -14    1    4    4    0    0  0.34938519945E+02 -0.32201849858E+02 -0.71538699851E+02  0.85880410378E+02  0.00000000000E+00 0.  1.
</event>
<event>
12    1  0.8633375E-002  0.2303339E+03  0.7818608E-02  0.1126587E+00
         21   -1    0    0  501  502  0.00000000000E+00  0.00000000000E+00  0.21268786370E+03  0.21268786370E+03  0.00000000000E+00 0. -1.
         21   -1    0    0  502  503 -0.00000000000E+00 -0.00000000000E+00 -0.25327766274E+03  0.25327766274E+03  0.00000000000E+00 0. -1.
         -6    2    1    2    0  503  0.48721438830E+02  0.14482759527E+03 -0.52826754031E+02  0.23530679749E+03  0.17096728357E+03 0.  0.
        -24    2    3    3    0    0 -0.42949705101E+02  0.56317257143E+02 -0.13115810479E+02  0.10175258520E+03  0.71869697990E+02 0.  0.
          6    2    1    2  501    0 -0.48721438830E+02 -0.14482759527E+03  0.12236954993E+02  0.23065872894E+03  0.17235108127E+03 0.  0.
         24    2    5    5    0    0 -0.25648745648E+02 -0.54078990006E+01 -0.19916249252E+02  0.85654868918E+02  0.79075887983E+02 0.  0.
          5    1    5    5  501    0 -0.23072693182E+02 -0.13941969627E+03  0.32153204244E+02  0.14500386002E+03  0.47000000000E+01 0. -1.
        -11    1    6    6    0    0 -0.88236781754E+01  0.34194247583E+02  0.54103855343E+01  0.35726406704E+02  0.00000000000E+00 0.  1.
         12    1    6    6    0    0 -0.16825067473E+02 -0.39602146584E+02 -0.25326634786E+02  0.49928462214E+02  0.00000000000E+00 0. -1.
         -5    1    3    3    0  503  0.91671143931E+02  0.88510338125E+02 -0.39710943552E+02  0.13355421230E+03  0.47000000000E+01 0.  1.
         13    1    4    4    0    0  0.22675662866E+01  0.22609073518E+02  0.24921707141E+02  0.33725413994E+02  0.00000000000E+00 0. -1.
        -14    1    4    4    0    0 -0.45217271387E+02  0.33708183624E+02 -0.38037517620E+02  0.68027171201E+02  0.00000000000E+00 0.  1.
</event>
<event>
12    1  0.8633375E-002  0.3311457E+03  0.7818608E-02  0.1070854E+00
         21   -1    0    0  503  502  0.00000000000E+00  0.00000000000E+00  0.10699353215E+04  0.10699353215E+04  0.00000000000E+00 0. -1.
         21   -1    0    0  501  503 -0.00000000000E+00 -0.00000000000E+00 -0.16720787651E+03  0.16720787651E+03  0.00000000000E+00 0.  1.
          6    2    1    2  501    0  0.24729877872E+03  0.13606239680E+03  0.65522221540E+02  0.33756570662E+03  0.17316980970E+03 0.  0.
         24    2    3    3    0    0  0.34755933719E+02  0.27312944837E+02  0.27671541833E+02  0.95789636225E+02  0.80349040419E+02 0.  0.
         -6    2    1    2    0  502 -0.24729877872E+03 -0.13606239680E+03  0.83720522342E+03  0.89957749136E+03  0.16928501135E+03 0.  0.
        -24    2    5    5    0    0 -0.19334810304E+03 -0.95484571746E+02  0.77233235030E+03  0.80583414515E+03  0.79816149883E+02 0.  0.
          5    1    3    3  501    0  0.21254284500E+03  0.10874945196E+03  0.37850679708E+02  0.24177607040E+03  0.47000000000E+01 0. -1.
        -13    1    4    4    0    0  0.26975145339E+02  0.25903546480E+01 -0.25137676603E+02  0.36963105771E+02  0.00000000000E+00 0.  1.
         14    1    4    4    0    0  0.77807883807E+01  0.24722590189E+02  0.52809218435E+02  0.58826530454E+02  0.00000000000E+00 0. -1.
         -5    1    5    5    0  502 -0.53950675679E+02 -0.40577825053E+02  0.64872873122E+02  0.93743346214E+02  0.47000000000E+01 0.  1.
         13    1    6    6    0    0 -0.13049552855E+03 -0.79600710721E+02  0.64600842726E+03  0.66384655170E+03  0.00000000000E+00 0. -1.
        -14    1    6    6    0    0 -0.62852574487E+02 -0.15883861025E+02  0.12632392304E+03  0.14198759345E+03  0.00000000000E+00 0.  1.
</event>
<event>
12    1  0.8633375E-002  0.1955217E+03  0.7818608E-02  0.1153720E+00
         21   -1    0    0  503  502  0.00000000000E+00  0.00000000000E+00  0.15460602566E+04  0.15460602566E+04  0.00000000000E+00 0. -1.
         21   -1    0    0  501  503 -0.00000000000E+00 -0.00000000000E+00 -0.28433969143E+02  0.28433969143E+02  0.00000000000E+00 0. -1.
          6    2    1    2  501    0 -0.78547409053E+02  0.52091899300E+02  0.47243632032E+03  0.51129719101E+03  0.17130522273E+03 0.  0.
         24    2    3    3    0    0 -0.83461845341E+02  0.39694875470E+02  0.17531995643E+03  0.21384457029E+03  0.80317185908E+02 0.  0.
         -6    2    1    2    0  502  0.78547409053E+02 -0.52091899300E+02  0.10451899671E+04  0.10631970347E+04  0.17053623022E+03 0.  0.
        -24    2    5    5    0    0  0.10325893808E+03 -0.38930097909E+01  0.86939851343E+03  0.87919019298E+03  0.80274880581E+02 0.  0.
          5    1    3    3  501    0  0.49144362880E+01  0.12397023830E+02  0.29711636389E+03  0.29745262073E+03  0.47000000000E+01 0. -1.
        -13    1    4    4    0    0  0.10567579390E+01 -0.81300424441E+01  0.70417045574E+02  0.70892698036E+02  0.00000000000E+00 0.  1.
         14    1    4    4    0    0 -0.84518603281E+02  0.47824917914E+02  0.10490291086E+03  0.14295187225E+03  0.00000000000E+00 0. -1.
         -5    1    5    5    0  502 -0.24711529022E+02 -0.48198889509E+02  0.17579145369E+03  0.18400684174E+03  0.47000000000E+01 0.  1.
         13    1    6    6    0    0  0.84422984355E+02 -0.10644659774E+02  0.38119173762E+03  0.39057353968E+03  0.00000000000E+00 0. -1.
        -14    1    6    6    0    0  0.18835953721E+02  0.67516499829E+01  0.48820677581E+03  0.48861665330E+03  0.00000000000E+00 0.  1.
</event>
<event>
12    1  0.8633375E-002  0.1770554E+03  0.7818608E-02  0.1170713E+00
         21   -1    0    0  503  502  0.00000000000E+00  0.00000000000E+00  0.27948081133E+03  0.27948081133E+03  0.00000000000E+00 0.  1.
         21   -1    0    0  501  503 -0.00000000000E+00 -0.00000000000E+00 -0.33013400864E+03  0.33013400864E+03  0.00000000000E+00 0.  1.
          6    2    1    2  501    0  0.16573196041E+02 -0.20910050684E+02 -0.27304271919E+03  0.32542424121E+03  0.17503345171E+03 0.  0.
         24    2    3    3    0    0 -0.19669299465E+02 -0.35167828811E+02 -0.27178938368E+03  0.28617550151E+03  0.80020566493E+02 0.  0.
         -6    2    1    2    0  502 -0.16573196041E+02  0.20910050684E+02  0.22238952187E+03  0.28419057876E+03  0.17491507816E+03 0.  0.
        -24    2    5    5    0    0  0.34296087401E+02 -0.84107408503E+01  0.47033728609E+02  0.99206425260E+02  0.79892308849E+02 0.  0.
          5    1    3    3  501    0  0.36242495506E+02  0.14257778128E+02 -0.12533355097E+01  0.39248739694E+02  0.47000000000E+01 0. -1.
        -13    1    4    4    0    0  0.19993875535E+02  0.10529573986E+02 -0.13098440613E+03  0.13291930498E+03  0.00000000000E+00 0.  1.
         14    1    4    4    0    0 -0.39663175000E+02 -0.45697402798E+02 -0.14080497755E+03  0.15325619653E+03  0.00000000000E+00 0. -1.
         -5    1    5    5    0  502 -0.50869283443E+02  0.29320791534E+02  0.17535579326E+03  0.18498415350E+03  0.47000000000E+01 0.  1.
         11    1    6    6    0    0 -0.25325921599E+02 -0.10360156890E+02  0.18867805211E+02  0.33237467249E+02  0.00000000000E+00 0. -1.
        -12    1    6    6    0    0  0.59622009000E+02  0.19494160401E+01  0.28165923398E+02  0.65968958011E+02  0.00000000000E+00 0.  1.
</event>
<event>
12    1  0.8633375E-002  0.2344162E+03  0.7818608E-02  0.1123776E+00
         21   -1    0    0  501  502  0.00000000000E+00  0.00000000000E+00  0.12151019958E+04  0.12151019958E+04  0.00000000000E+00 0.  1.
         21   -1    0    0  502  503 -0.00000000000E+00 -0.00000000000E+00 -0.47685775403E+02  0.47685775403E+02  0.00000000000E+00 0. -1.
         -6    2    1    2    0  503  0.16295494431E+02  0.15717603093E+03  0.73518070575E+03  0.77164864729E+03  0.17315056143E+03 0.  0.
        -24    2    3    3    0    0  0.72845338336E+02  0.13583569366E+03  0.51679801158E+03  0.54500711105E+03  0.78706971269E+02 0.  0.
          6    2    1    2  501    0 -0.16295494431E+02 -0.15717603093E+03  0.43223551462E+03  0.49113912389E+03  0.17152332515E+03 0.  0.
         24    2    5    5    0    0 -0.16092465458E+02 -0.17976908472E+03  0.31657693940E+03  0.37320065127E+03  0.80510100508E+02 0.  0.
          5    1    5    5  501    0 -0.20302897318E+00  0.22593053788E+02  0.11565857522E+03  0.11793847261E+03  0.47000000000E+01 0. -1.
        -13    1    6    6    0    0 -0.30744451324E+00 -0.12709284152E+03  0.27903931210E+03  0.30661967090E+03  0.00000000000E+00 0.  1.
         14    1    6    6    0    0 -0.15785020945E+02 -0.52676243196E+02  0.37537627306E+02  0.66580980371E+02  0.00000000000E+00 0. -1.
         -5    1    3    3    0  503 -0.56549843905E+02  0.21340337269E+02  0.21838269416E+03  0.22664153624E+03  0.47000000000E+01 0.  1.
         13    1    4    4    0    0  0.45159921374E+02  0.18782593321E+02  0.20646311910E+03  0.21217734059E+03  0.00000000000E+00 0. -1.
        -14    1    4    4    0    0  0.27685416962E+02  0.11705310034E+03  0.31033489248E+03  0.33282977046E+03  0.00000000000E+00 0.  1.
</event>
<event>
12    1  0.8633375E-002  0.2440118E+03  0.7818608E-02  0.1117327E+00
         21   -1    0    0  501  502  0.00000000000E+00  0.00000000000E+00  0.23805970418E+03  0.23805970418E+03  0.00000000000E+00 0.  1.
         21   -1    0    0  502  503 -0.00000000000E+00 -0.00000000000E+00 -0.83404871592E+03  0.83404871592E+03  0.00000000000E+00 0.  1.
         -6    2    1    2    0  503 -0.55537582777E+01 -0.17411098703E+03 -0.74715553206E+03  0.78599181803E+03  0.17086915723E+03 0.  0.
        -24    2    3    3    0    0  0.83213165621E+01 -0.13595718355E+02 -0.21336408079E+03  0.22839602121E+03  0.79915102881E+02 0.  0.
          6    2    1    2  501    0  0.55537582777E+01  0.17411098703E+03  0.15116652032E+03  0.28611660207E+03  0.16931010921E+03 0.  0.
         24    2    5    5    0    0 -0.47087487461E+02  0.78493660433E+02  0.36577649071E+02  0.12779265154E+03  0.81329891014E+02 0.  0.
          5    1    5    5  501    0  0.52641245738E+02  0.95617326601E+02  0.11458887125E+03  0.15832395053E+03  0.47000000000E+01 0. -1.
        -11    1    6    6    0    0 -0.92645489185E+00  0.74351379084E+02  0.11956929073E+02  0.75312376427E+02  0.00000000000E+00 0.  1.
         12    1    6    6    0    0 -0.46161032569E+02  0.41422813497E+01  0.24620719998E+02  0.52480275112E+02  0.00000000000E+00 0. -1.
         -5    1    3    3    0  503 -0.13875074840E+02 -0.16051526868E+03 -0.53379145127E+03  0.55759579682E+03  0.47000000000E+01 0.  1.
         13    1    4    4    0    0 -0.27403422981E+02 -0.22976840736E+02 -0.53718847181E+02  0.64533691540E+02  0.00000000000E+00 0. -1.
        -14    1    4    4    0    0  0.35724739543E+02  0.93811223808E+01 -0.15964523361E+03  0.16386232967E+03  0.00000000000E+00 0.  1.
</event>
<event>
12    1  0.8633375E-002  0.3511748E+03  0.7818608E-02  0.1062217E+00
         21   -1    0    0  503  502  0.00000000000E+00  0.00000000000E+00  0.85831936859E+02  0.85831936859E+02  0.00000000000E+00 0. -1.
         21   -1    0    0  501  503 -0.00000000000E+00 -0.00000000000E+00 -0.15281122667E+04  0.15281122667E+04  0.00000000000E+00 0.  1.
          6    2    1    2  501    0 -0.28639562518E+03  0.11185704825E+03 -0.92271403586E+03  0.98728160415E+03  0.16967415995E+03 0.  0.
         24    2    3    3    0    0 -0.79733630742E+02 -0.42540890813E+01 -0.33793590672E+03  0.35626771645E+03  0.79689770892E+02 0.  0.
         -6    2    1    2    0  502  0.28639562518E+03 -0.11185704825E+03 -0.51956629398E+03  0.62666259941E+03  0.16799531627E+03 0.  0.
        -24    2    5    5    0    0  0.53494321699E+02 -0.14121418517E+02 -0.14769222975E+03  0.17709872171E+03  0.80559950270E+02 0.  0.
          5    1    3    3  501    0 -0.20666199444E+03  0.11611113733E+03 -0.58477812913E+03  0.63101388770E+03  0.47000000000E+01 0. -1.
        -13    1    4    4    0    0  0.83825610020E+01 -0.18357739516E+02 -0.34367038705E+02  0.39854325718E+02  0.00000000000E+00 0.  1.
         14    1    4    4    0    0 -0.88116191744E+02  0.14103650435E+02 -0.30356886802E+03  0.31641339073E+03  0.00000000000E+00 0. -1.
         -5    1    5    5    0  502  0.23290130348E+03 -0.97735629732E+02 -0.37187406424E+03  0.44956387770E+03  0.47000000000E+01 0.  1.
         11    1    6    6    0    0  0.29184212254E+02  0.32918889369E+02 -0.55974531122E+02  0.71193536620E+02  0.00000000000E+00 0. -1.
        -12    1    6    6    0    0  0.24310109445E+02 -0.47040307885E+02 -0.91717698624E+02  0.10590518509E+03  0.00000000000E+00 0.  1.
</event>
<event>
12    1  0.8633375E-002  0.2521001E+03  0.7818608E-02  0.1112415E+00
         21   -1    0    0  503  502  0.00000000000E+00  0.00000000000E+00  0.69777027199E+03  0.69777027199E+03  0.00000000000E+00 0.  1.
         21   -1    0    0  501  503 -0.00000000000E+00 -0.00000000000E+00 -0.18729493772E+03  0.18729493772E+03  0.00000000000E+00 0. -1.
          6    2    1    2  501    0  0.17270046567E+03  0.60432290630E+02 -0.62886223316E+02  0.25982519261E+03  0.17342704817E+03 0.  0.
         24    2    3    3    0    0  0.80867524342E+02  0.90948535010E+02 -0.71222565086E+02  0.16258263568E+03  0.80927542493E+02 0.  0.
         -6    2    1    2    0  502 -0.17270046567E+03 -0.60432290630E+02  0.57336155758E+03  0.62524001710E+03  0.16942281627E+03 0.  0.
        -24    2    5    5    0    0 -0.17509757574E+03 -0.63214388621E+02  0.58077966368E+03  0.61572137728E+03  0.84572907760E+02 0.  0.
          5    1    3    3  501    0  0.91832941324E+02 -0.30516244380E+02  0.83363417700E+01  0.97242556925E+02  0.47000000000E+01 0. -1.
        -11    1    4    4    0    0  0.51298694243E+02  0.74642467822E+01 -0.51663787347E+01  0.52095705008E+02  0.00000000000E+00 0.  1.
         12    1    4    4    0    0  0.29568830099E+02  0.83484288228E+02 -0.66056186351E+02  0.11048693067E+03  0.00000000000E+00 0. -1.
         -5    1    5    5    0  502  0.23971100770E+01  0.27820979905E+01 -0.74181060997E+01  0.95186398218E+01  0.47000000000E+01 0.  1.
         13    1    6    6    0    0 -0.84561160336E+02 -0.45319205348E+02  0.17493669715E+03  0.19951758875E+03  0.00000000000E+00 0. -1.
        -14    1    6    6    0    0 -0.90536415407E+02 -0.17895183272E+02  0.40584296653E+03  0.41620378853E+03  0.00000000000E+00 0.  1.
</event>
<event>
12    1  0.8633375E-002  0.2328862E+03  0.7818608E-02  0.1124917E+00
         21   -1    0    0  501  502  0.00000000000E+00  0.00000000000E+00  0.43746371432E+02  0.43746371432E+02  0.00000000000E+00 0.  1.
         21   -1    0    0  502  503 -0.00000000000E+00 -0.00000000000E+00 -0.24079101314E+04  0.24079101314E+04  0.00000000000E+00 0. -1.
         -6    2    1    2    0  503  0.13529718866E+03 -0.74417859695E+02 -0.32283254964E+03  0.39708377100E+03  0.17207939733E+03 0.  0.
        -24    2    3    3    0    0  0.94657828684E+02  0.21197665584E+02 -0.22233370405E+03  0.25246014148E+03  0.69959999417E+02 0.  0.
          6    2    1    2  501    0 -0.13529718866E+03  0.74417859695E+02 -0.20413312104E+04  0.20545727319E+04  0.17433488752E+03 0.  0.
         24    2    5    5    0    0 -0.35158710295E+02  0.79607899820E+02 -0.74409406890E+03  0.75345746312E+03  0.80303254809E+02 0.  0.
          5    1    5    5  501    0 -0.10013847837E+03 -0.51900401248E+01 -0.12972371415E+04  0.13011152687E+04  0.47000000000E+01 0. -1.
        -11    1    6    6    0    0  0.63270770799E+01 -0.98950356635E+00 -0.30680431505E+03  0.30687114357E+03  0.00000000000E+00 0.  1.
         12    1    6    6    0    0 -0.41485787375E+02  0.80597403386E+02 -0.43728975385E+03  0.44658631955E+03  0.00000000000E+00 0. -1.
         -5    1    3    3    0  503  0.40639359977E+02 -0.95615525279E+02 -0.10049884558E+03  0.14462362953E+03  0.47000000000E+01 0.  1.
         11    1    4    4    0    0  0.71288035987E+02  0.30682328590E+02 -0.21097859119E+03  0.22480070129E+03  0.00000000000E+00 0. -1.
        -12    1    4    4    0    0  0.23369792697E+02 -0.94846630063E+01 -0.11355112868E+02  0.27659440184E+02  0.00000000000E+00 0.  1.
</event>
<event>
12    1  0.8633375E-002  0.2044916E+03  0.7818608E-02  0.1146166E+00
         21   -1    0    0  503  502  0.00000000000E+00  0.00000000000E+00  0.59391826571E+02  0.59391826571E+02  0.00000000000E+00 0.  1.
         21   -1    0    0  501  503 -0.00000000000E+00 -0.00000000000E+00 -0.88552383355E+03  0.88552383355E+03  0.00000000000E+00 0. -1.
          6    2    1    2  501    0  0.20695332629E+02  0.10878379650E+03 -0.62915669974E+03  0.66155496680E+03  0.17191454301E+03 0.  0.
         24    2    3    3    0    0  0.39255678920E+02  0.74851618705E+02 -0.20367466894E+03  0.23429283686E+03  0.79158003313E+02 0.  0.
         -6    2    1    2    0  502 -0.20695332629E+02 -0.10878379650E+03 -0.19697530724E+03  0.28336069332E+03  0.17097309637E+03 0.  0.
        -24    2    5    5    0    0 -0.45831409037E+02 -0.88104659068E+02 -0.21170603676E+03  0.24732552364E+03  0.80545140362E+02 0.  0.
          5    1    3    3  501    0 -0.18560346290E+02  0.33932177792E+02 -0.42548203080E+03  0.42726212993E+03  0.47000000000E+01 0. -1.
        -13    1    4    4    0    0  0.28036490063E+02  0.83994378046E+02 -0.11867823017E+03  0.14807303142E+03  0.00000000000E+00 0.  1.
         14    1    4    4    0    0  0.11219188856E+02 -0.91427593407E+01 -0.84996438773E+02  0.86219805445E+02  0.00000000000E+00 0. -1.
         -5    1    5    5    0  502  0.25136076408E+02 -0.20679137429E+02  0.14730729522E+02  0.36035169685E+02  0.47000000000E+01 0.  1.
         13    1    6    6    0    0 -0.60744206346E+02 -0.33423941598E+02 -0.13708081827E+03  0.15361695614E+03  0.00000000000E+00 0. -1.
        -14    1    6    6    0    0  0.14912797309E+02 -0.54680717470E+02 -0.74625218489E+02  0.93708567491E+02  0.00000000000E+00 0.  1.
</event>
<event>
12    1  0.8633375E-002  0.2607302E+03  0.7818608E-02  0.1109151E+00
         21   -1    0    0  501  502  0.00000000000E+00  0.00000000000E+00  0.99452038875E+03  0.99452038875E+03  0.00000000000E+00 0.  1.
         21   -1    0    0  502  503 -0.00000000000E+00 -0.00000000000E+00 -0.71721594225E+02  0.71721594225E+02  0.00000000000E+00 0.  1.
         -6    2    1    2    0  503 -0.66061714257E+02 -0.16200099302E+03  0.62019382518E+03  0.66680485979E+03  0.17140556704E+03 0.  0.
        -24    2    3    3    0    0  0.15308305931E+01 -0.12260266410E+03  0.26332383989E+03  0.30142935863E+03  0.80538542984E+02 0.  0.
          6    2    1    2  501    0  0.66061714257E+02  0.16200099302E+03  0.30260496935E+03  0.39943712319E+03  0.19331781108E+03 0.  0.
         24    2    5    5    0    0  0.63668070447E+01  0.13542551156E+03  0.99026699335E+02  0.18557749591E+03  0.79070312964E+02 0.  0.
          5    1    5    5  501    0  0.59694907212E+02  0.26575481458E+02  0.20357827001E+03  0.21385962729E+03  0.47000000000E+01 0. -1.
        -13    1    6    6    0    0  0.12508734210E+02  0.24240323080E+02 -0.10647521152E+02  0.29281929603E+02  0.00000000000E+00 0.  1.
         14    1    6    6    0    0 -0.61419271658E+01  0.11118518848E+03  0.10967422049E+03  0.15629556630E+03  0.00000000000E+00 0. -1.
         -5    1    3    3    0  503 -0.67592544850E+02 -0.39398328922E+02  0.35686998529E+03  0.36537550115E+03  0.47000000000E+01 0.  1.
         13    1    4    4    0    0 -0.23572957328E+02 -0.31125071985E+02  0.29008963561E+02  0.48641282776E+02  0.00000000000E+00 0. -1.
        -14    1    4    4    0    0  0.25103787921E+02 -0.91477592111E+02  0.23431487633E+03  0.25278807586E+03  0.00000000000E+00 0.  1.
</event>
<event>
12    1  0.8633375E-002  0.2109790E+03  0.7818608E-02  0.1140820E+00
         21   -1    0    0  503  502  0.00000000000E+00  0.00000000000E+00  0.12644195311E+03  0.12644195311E+03  0.00000000000E+00 0. -1.
         21   -1    0    0  501  503 -0.00000000000E+00 -0.00000000000E+00 -0.35303211964E+03  0.35303211964E+03  0.00000000000E+00 0. -1.
          6    2    1    2  501    0 -0.91867131606E+02 -0.81195246088E+02 -0.12737212363E+03  0.24632960240E+03  0.17152952307E+03 0.  0.
         24    2    3    3    0    0 -0.36927173024E+02 -0.14174609174E+02 -0.13010423392E+03  0.15949804565E+03  0.83354539350E+02 0.  0.
         -6    2    1    2    0  502  0.91867131606E+02  0.81195246088E+02 -0.99218042890E+02  0.23314447035E+03  0.17169707675E+03 0.  0.
        -24    2    5    5    0    0 -0.11327354579E+02 -0.27838913819E+00 -0.29410718201E+02  0.84207544787E+02  0.78086706882E+02 0.  0.
          5    1    3    3  501    0 -0.54939958582E+02 -0.67020636914E+02  0.27321102829E+01  0.86831556751E+02  0.47000000000E+01 0. -1.
        -13    1    4    4    0    0  0.12956795589E+02  0.19270420475E+02 -0.10137395269E+02  0.25337609202E+02  0.00000000000E+00 0.  1.
         14    1    4    4    0    0 -0.49883968614E+02 -0.33445029649E+02 -0.11996683865E+03  0.13416043645E+03  0.00000000000E+00 0. -1.
         -5    1    5    5    0  502  0.10319448618E+03  0.81473635226E+02 -0.69807324689E+02  0.14893692556E+03  0.47000000000E+01 0.  1.
         11    1    6    6    0    0  0.20602151366E+02  0.27911036960E+02 -0.21710023183E+02  0.40924317119E+02  0.00000000000E+00 0. -1.
        -12    1    6    6    0    0 -0.31929505944E+02 -0.28189426098E+02 -0.77006950183E+01  0.43283227668E+02  0.00000000000E+00 0.  1.
</event>
<event>
12    1  0.8633375E-002  0.1776796E+03  0.7818608E-02  0.1170137E+00
         21   -1    0    0  501  502  0.00000000000E+00  0.00000000000E+00  0.59190199071E+02  0.59190199071E+02  0.00000000000E+00 0.  1.
         21   -1    0    0  502  503 -0.00000000000E+00 -0.00000000000E+00 -0.53469372203E+03  0.53469372203E+03  0.00000000000E+00 0.  1.
         -6    2    1    2    0  503  0.14216447788E+02 -0.38216108474E+02 -0.25687761976E+03  0.31233978620E+03  0.17293771183E+03 0.  0.
        -24    2    3    3    0    0  0.22151389487E+02  0.31621610236E+02 -0.72116819713E+02  0.11460533425E+03  0.80267905554E+02 0.  0.
          6    2    1    2  501    0 -0.14216447788E+02  0.38216108474E+02 -0.21862590319E+03  0.28154413490E+03  0.17264772229E+03 0.  0.
         24    2    5    5    0    0 -0.49502196254E+02  0.61784386562E+02 -0.10784595682E+03  0.16282246756E+03  0.92804243884E+02 0.  0.
          5    1    5    5  501    0  0.35285748466E+02 -0.23568278088E+02 -0.11077994638E+03  0.11872166734E+03  0.47000000000E+01 0. -1.
        -13    1    6    6    0    0 -0.28757949050E+01  0.22495354065E+02 -0.98573834224E+02  0.10114895919E+03  0.00000000000E+00 0.  1.
         14    1    6    6    0    0 -0.46626401349E+02  0.39289032497E+02 -0.92721225914E+01  0.61673508370E+02  0.00000000000E+00 0. -1.
         -5    1    3    3    0  503 -0.79349416989E+01 -0.69837718710E+02 -0.18476080005E+03  0.19773445196E+03  0.47000000000E+01 0.  1.
         11    1    4    4    0    0 -0.20184285864E+02  0.36619516362E+02 -0.17517271355E+02  0.45334856017E+02  0.00000000000E+00 0. -1.
        -12    1    4    4    0    0  0.42335675351E+02 -0.49979061254E+01 -0.54599548358E+02  0.69270478228E+02  0.00000000000E+00 0.  1.
</event>
<event>
12    1  0.8633375E-002  0.2477897E+03  0.7818608E-02  0.1116076E+00
         21   -1    0    0  503  502  0.00000000000E+00  0.00000000000E+00  0.11022213312E+03  0.11022213312E+03  0.00000000000E+00 0.  1.
         21   -1    0    0  501  503 -0.00000000000E+00 -0.00000000000E+00 -0.73610314233E+03  0.73610314233E+03  0.00000000000E+00 0. -1.
          6    2    1    2  501    0 -0.45484545915E+00 -0.17795994054E+03 -0.52830733619E+03  0.58001650463E+03  0.16012668999E+03 0.  0.
         24    2    3    3    0    0 -0.19291252443E+02 -0.25066112040E+02 -0.20669948377E+03  0.22338639687E+03  0.78589715117E+02 0.  0.
         -6    2    1    2    0  502  0.45484545915E+00  0.17795994054E+03 -0.97573673014E+02  0.26630877082E+03  0.17242329433E+03 0.  0.
        -24    2    5    5    0    0 -0.52820677108E+02  0.48986827629E+02 -0.50368808860E+02  0.11892242695E+03  0.80098648647E+02 0.  0.
          5    1    3    3  501    0  0.18836406984E+02 -0.15289382850E+03 -0.32160785242E+03  0.35663010776E+03  0.47000000000E+01 0. -1.
        -11    1    4    4    0    0  0.15123864275E+02  0.73189914749E+01 -0.70509679561E+01  0.18221280305E+02  0.00000000000E+00 0.  1.
         12    1    4    4    0    0 -0.34415116718E+02 -0.32385103515E+02 -0.19964851582E+03  0.20516511657E+03  0.00000000000E+00 0. -1.
         -5    1    5    5    0  502  0.53275522567E+02  0.12897311291E+03 -0.47204864154E+02  0.14738634387E+03  0.47000000000E+01 0.  1.
         11    1    6    6    0    0  0.20084596515E+02  0.14926135434E+02 -0.22824727473E+02  0.33869584001E+02  0.00000000000E+00 0. -1.
        -12    1    6    6    0    0 -0.72905273623E+02  0.34060692196E+02 -0.27544081387E+02  0.85052842952E+02  0.00000000000E+00 0.  1.
</event>
<event>
12    1  0.8633375E-002  0.2143659E+03  0.7818608E-02  0.1138338E+00
         21   -1    0    0  503  502  0.00000000000E+00  0.00000000000E+00  0.11996962612E+03  0.11996962612E+03  0.00000000000E+00 0.  1.
         21   -1    0    0  501  503 -0.00000000000E+00 -0.00000000000E+00 -0.40249767359E+03  0.40249767359E+03  0.00000000000E+00 0.  1.
          6    2    1    2  501    0 -0.10431686124E+03 -0.71634100433E+02 -0.20145791238E+03  0.29417349297E+03  0.17302977092E+03 0.  0.
         24    2    3    3    0    0 -0.12333651360E+02 -0.78094354914E+02 -0.69554563554E+02  0.13316657008E+03  0.81514727821E+02 0.  0.
         -6    2    1    2    0  502  0.10431686124E+03  0.71634100433E+02 -0.81070135097E+02  0.22829380673E+03  0.17184947921E+03 0.  0.
        -24    2    5    5    0    0  0.54625664996E+00  0.54443644762E+02 -0.27758620385E+01  0.97084305033E+02  0.80332110780E+02 0.  0.
          5    1    3    3  501    0 -0.91983209879E+02  0.64602544809E+01 -0.13190334882E+03  0.16100692289E+03  0.47000000000E+01 0. -1.
        -13    1    4    4    0    0 -0.35580002044E+02 -0.80500637961E+02 -0.64857197305E+02  0.10932861153E+03  0.00000000000E+00 0.  1.
         14    1    4    4    0    0  0.23246350684E+02  0.24062830473E+01 -0.46973662490E+01  0.23837958551E+02  0.00000000000E+00 0. -1.
         -5    1    5    5    0  502  0.10377060459E+03  0.17190455670E+02 -0.78294273059E+02  0.13120950170E+03  0.47000000000E+01 0.  1.
         13    1    6    6    0    0  0.12587047244E+02  0.72128177364E+02 -0.11240826435E+02  0.74076068384E+02  0.00000000000E+00 0. -1.
        -14    1    6    6    0    0 -0.12040790595E+02 -0.17684532602E+02  0.84649643961E+01  0.23008236650E+02  0.00000000000E+00 0.  1.
</event>
<event>
12    1  0.8633375E-002  0.1785961E+03  0.7818608E-02  0.1169254E+00
         21   -1    0    0  501  502  0.00000000000E+00  0.00000000000E+00  0.21627544675E+03  0.21627544675E+03  0.00000000000E+00 0. -1.
         21   -1    0    0  502  503 -0.00000000000E+00 -0.00000000000E+00 -0.15877933631E+03  0.15877933631E+03  0.00000000000E+00 0. -1.
         -6    2    1    2    0  503 -0.23272720753E+02 -0.41862121295E+02  0.79376903908E+02  0.19512328049E+03  0.17169258862E+03 0.  0.
        -24    2    3    3    0    0  0.27037756508E+02 -0.64628227403E+02  0.95107608419E+01  0.10594476483E+03  0.78904946410E+02 0.  0.
          6    2    1    2  501    0  0.23272720753E+02  0.41862121295E+02 -0.21880793460E+02  0.17993150257E+03  0.17205382810E+03 0.  0.
         24    2    5    5    0    0 -0.40576209682E+02  0.63389988394E+02  0.36562815614E+01  0.10772092730E+03  0.76978635758E+02 0.  0.
          5    1    5    5  501    0  0.63848930435E+02 -0.21527867099E+02 -0.25537075022E+02  0.72210575265E+02  0.47000000000E+01 0. -1.
        -13    1    6    6    0    0 -0.32136073250E+02  0.61727934225E+02 -0.27927429245E+02  0.74986707968E+02  0.00000000000E+00 0.  1.
         14    1    6    6    0    0 -0.84401364312E+01  0.16620541691E+01  0.31583710807E+02  0.32734219333E+02  0.00000000000E+00 0. -1.
         -5    1    3    3    0  503 -0.50310477260E+02  0.22766106108E+02  0.69866143066E+02  0.89178515666E+02  0.47000000000E+01 0.  1.
         11    1    4    4    0    0 -0.19153802205E+02 -0.49476213378E+02 -0.92168917179E+01  0.53849001124E+02  0.00000000000E+00 0. -1.
        -12    1    4    4    0    0  0.46191558712E+02 -0.15152014026E+02  0.18727652560E+02  0.52095763702E+02  0.00000000000E+00 0.  1.
</event>
<event>
12    1  0.8633375E-002  0.2034736E+03  0.7818608E-02  0.1148543E+00
         21   -1    0    0  501  502  0.00000000000E+00  0.00000000000E+00  0.52068546084E+03  0.52068546084E+03  0.00000000000E+00 0.  1.
         21   -1    0    0  502  503 -0.00000000000E+00 -0.00000000000E+00 -0.76700777067E+02  0.76700777067E+02  0.00000000000E+00 0. -1.
         -6    2    1    2    0  503 -0.91460057314E+02 -0.13935664124E+02  0.20745613915E+03  0.29058484090E+03  0.18122459897E+03 0.  0.
        -24    2    3    3    0    0 -0.50942401365E+02  0.49010064003E+02  0.55423736414E+02  0.12105671163E+03  0.81153079063E+02 0.  0.
          6    2    1    2  501    0  0.91460057314E+02  0.13935664124E+02  0.23652854463E+03  0.30680139701E+03  0.17211101059E+03 0.  0.
         24    2    5    5    0    0  0.37968099654E+02  0.33453258536E+02  0.18986141847E+02  0.81881159965E+02  0.61508972329E+02 0.  0.
          5    1    5    5  501    0  0.53491957659E+02 -0.19517594412E+02  0.21754240278E+03  0.22492023705E+03  0.47000000000E+01 0. -1.
        -11    1    6    6    0    0 -0.55603612870E+01  0.22588875928E-01  0.25965704079E+02  0.26554395422E+02  0.00000000000E+00 0.  1.
         12    1    6    6    0    0  0.43528460941E+02  0.33430669660E+02 -0.69795622320E+01  0.55326764543E+02  0.00000000000E+00 0. -1.
         -5    1    3    3    0  503 -0.40517655949E+02 -0.62945728127E+02  0.15203240274E+03  0.16952812927E+03  0.47000000000E+01 0.  1.
         13    1    4    4    0    0 -0.62564619670E+02  0.47762816034E+02  0.16509728887E+02  0.80425054416E+02  0.00000000000E+00 0. -1.
        -14    1    4    4    0    0  0.11622218306E+02  0.12472479697E+01  0.38914007527E+02  0.40631657210E+02  0.00000000000E+00 0.  1.
</event>
<event>
12    1  0.8633375E-002  0.2470337E+03  0.7818608E-02  0.1115204E+00
         21   -1    0    0  503  502  0.00000000000E+00  0.00000000000E+00  0.42110351896E+03  0.42110351896E+03  0.00000000000E+00 0. -1.
         21   -1    0    0  501  503 -0.00000000000E+00 -0.00000000000E+00 -0.15459232047E+03  0.15459232047E+03  0.00000000000E+00 0. -1.
          6    2    1    2  501    0 -0.14615257354E+03 -0.10133075081E+03  0.61124610571E+02  0.25448351069E+03  0.17145595173E+03 0.  0.
         24    2    3    3    0    0 -0.18653897509E+02 -0.80553685458E+02  0.10088177945E+02  0.11550723110E+03  0.80020528422E+02 0.  0.
         -6    2    1    2    0  502  0.14615257354E+03  0.10133075081E+03  0.20538658792E+03  0.32121232873E+03  0.17136281341E+03 0.  0.
        -24    2    5    5    0    0  0.80648754772E+02  0.12942595230E+03  0.11398594513E+03  0.20521121614E+03  0.76573812538E+02 0.  0.
          5    1    3    3  501    0 -0.12749867603E+03 -0.20777065353E+02  0.51036432626E+02  0.13897627959E+03  0.47000000000E+01 0. -1.
        -11    1    4    4    0    0  0.15299312997E+02  0.42545572320E+01 -0.13849310124E+02  0.21070681677E+02  0.00000000000E+00 0.  1.
         12    1    4    4    0    0 -0.33953210506E+02 -0.84808242690E+02  0.23937488069E+02  0.94436549423E+02  0.00000000000E+00 0. -1.
         -5    1    5    5    0  502  0.65503818767E+02 -0.28095201493E+02  0.91400642789E+02  0.11600111259E+03  0.47000000000E+01 0.  1.
         13    1    6    6    0    0  0.61927304515E+02  0.58651112706E+02  0.22828101060E+02  0.88295335461E+02  0.00000000000E+00 0. -1.
        -14    1    6    6    0    0  0.18721450258E+02  0.70774839598E+02  0.91157844067E+02  0.11691588068E+03  0.00000000000E+00 0.  1.
</event>
<event>
12    1  0.8633375E-002  0.2367137E+03  0.7818608E-02  0.1122011E+00
         21   -1    0    0  501  502  0.00000000000E+00  0.00000000000E+00  0.76108071578E+02  0.76108071578E+02  0.00000000000E+00 0.  1.
         21   -1    0    0  502  503 -0.00000000000E+00 -0.00000000000E+00 -0.74615115560E+03  0.74615115560E+03  0.00000000000E+00 0.  1.
         -6    2    1    2    0  503 -0.63729818625E+02 -0.14892044588E+03 -0.38280409635E+03  0.45005010654E+03  0.17253212232E+03 0.  0.
        -24    2    3    3    0    0 -0.33723848681E+02 -0.57765834026E+01 -0.14726251323E+03  0.17275522564E+03  0.83590988125E+02 0.  0.
          6    2    1    2  501    0  0.63729818625E+02  0.14892044588E+03 -0.28723898767E+03  0.37220912064E+03  0.17261113656E+03 0.  0.
         24    2    5    5    0    0  0.69732554650E+01  0.10660935261E+02 -0.61572588475E+02  0.10149817985E+03  0.79676941634E+02 0.  0.
          5    1    5    5  501    0  0.56756563160E+02  0.13825951062E+03 -0.22566639920E+03  0.27071094079E+03  0.47000000000E+01 0. -1.
        -11    1    6    6    0    0 -0.84590134764E+01  0.41015339772E+02 -0.50685011117E+02  0.65747877210E+02  0.00000000000E+00 0.  1.
         12    1    6    6    0    0  0.15432268941E+02 -0.30354404511E+02 -0.10887577358E+02  0.35750302637E+02  0.00000000000E+00 0. -1.
         -5    1    3    3    0  503 -0.30005969943E+02 -0.14314386248E+03 -0.23554158312E+03  0.27729488090E+03  0.47000000000E+01 0.  1.
         11    1    4    4    0    0  0.25548869135E+02 -0.20602143933E+01 -0.74771582355E+02  0.79042891681E+02  0.00000000000E+00 0. -1.
        -12    1    4    4    0    0 -0.59272717816E+02 -0.37163690093E+01 -0.72490930876E+02  0.93712333955E+02  0.00000000000E+00 0.  1.
</event>
<event>
12    1  0.8633375E-002  0.2221571E+03  0.7818608E-02  0.1132323E+00
         21   -1    0    0  501  502  0.00000000000E+00  0.00000000000E+00  0.15592965991E+02  0.15592965991E+02  0.00000000000E+00 0.  1.
         21   -1    0    0  502  503 -0.00000000000E+00 -0.00000000000E+00 -0.31664356237E+04  0.31664356237E+04  0.00000000000E+00 0.  1.
         -6    2    1    2    0  503  0.13632323531E+03 -0.31827989346E+02 -0.15163264694E+04  0.15324841218E+04  0.17223407474E+03 0.  0.
        -24    2    3    3    0    0  0.17689922927E+02 -0.27784878036E+02 -0.38381547691E+03  0.39375963906E+03  0.81531590338E+02 0.  0.
          6    2    1    2  501    0 -0.13632323531E+03  0.31827989346E+02 -0.16345161883E+04  0.16495444679E+04  0.17250140920E+03 0.  0.
         24    2    5    5    0    0 -0.16329117331E+03  0.48562053957E+02 -0.14640773296E+04  0.14761120800E+04  0.79763182595E+02 0.  0.
          5    1    5    5  501    0  0.26967938000E+02 -0.16734064611E+02 -0.17043885872E+03  0.17343238786E+03  0.47000000000E+01 0. -1.
        -13    1    6    6    0    0  0.44333411789E+00  0.17979809523E+02 -0.25234908914E+03  0.25298919519E+03  0.00000000000E+00 0.  1.
         14    1    6    6    0    0 -0.16373450743E+03  0.30582244434E+02 -0.12117282405E+04  0.12231228848E+04  0.00000000000E+00 0. -1.
         -5    1    3    3    0  503  0.11863331238E+03 -0.40431113103E+01 -0.11325109925E+04  0.11387244828E+04  0.47000000000E+01 0.  1.
         13    1    4    4    0    0 -0.15198567645E+02 -0.87015133402E+01 -0.31206855133E+03  0.31255958395E+03  0.00000000000E+00 0. -1.
        -14    1    4    4    0    0  0.32888490572E+02 -0.19083364695E+02 -0.71746925576E+02  0.81200055109E+02  0.00000000000E+00 0.  1.
</event>
<event>
12    1  0.8633375E-002  0.1837527E+03  0.7818608E-02  0.1164341E+00
         21   -1    0    0  503  502  0.00000000000E+00  0.00000000000E+00  0.99537315063E+03  0.99537315063E+03  0.00000000000E+00 0. -1.
         21   -1    0    0  501  503 -0.00000000000E+00 -0.00000000000E+00 -0.34077119218E+02  0.34077119218E+02  0.00000000000E+00 0. -1.
          6    2    1    2  501    0  0.63227262885E+02 -0.61747820086E+00  0.43591049342E+03  0.47285794208E+03  0.17198432215E+03 0.  0.
         24    2    3    3    0    0  0.93450447785E+02  0.26114307860E+02  0.40181146956E+03  0.41982151385E+03  0.73366907764E+02 0.  0.
         -6    2    1    2    0  502 -0.63227262885E+02  0.61747820086E+00  0.52538553800E+03  0.55659232777E+03  0.17253112108E+03 0.  0.
        -24    2    5    5    0    0 -0.87808710164E+00 -0.21350613509E+02  0.44384428685E+03  0.45151577275E+03  0.80075728818E+02 0.  0.
          5    1    3    3  501    0 -0.30223184899E+02 -0.26731786061E+02  0.34099023855E+02  0.53036428230E+02  0.47000000000E+01 0. -1.
        -13    1    4    4    0    0  0.60732937323E+02  0.37621497717E+02  0.15606285844E+03  0.17163764899E+03  0.00000000000E+00 0.  1.
         14    1    4    4    0    0  0.32717510461E+02 -0.11507189857E+02  0.24574861112E+03  0.24818386486E+03  0.00000000000E+00 0. -1.
         -5    1    5    5    0  502 -0.62349175784E+02  0.21968091710E+02  0.81541251151E+02  0.10507655501E+03  0.47000000000E+01 0.  1.
         13    1    6    6    0    0 -0.50973297400E+01  0.28619713081E+02  0.23213741455E+03  0.23395052892E+03  0.00000000000E+00 0. -1.
        -14    1    6    6    0    0  0.42192426384E+01 -0.49970326589E+02  0.21170687229E+03  0.21756524383E+03  0.00000000000E+00 0.  1.
</event>
<event>
12    1  0.8633375E-002  0.1764040E+03  0.7818608E-02  0.1171447E+00
         21   -1    0    0  501  502  0.00000000000E+00  0.00000000000E+00  0.18349180339E+03  0.18349180339E+03  0.00000000000E+00 0. -1.
         21   -1    0    0  502  503 -0.00000000000E+00 -0.00000000000E+00 -0.20564442166E+03  0.20564442166E+03  0.00000000000E+00 0. -1.
         -6    2    1    2    0  503 -0.22879877295E+02  0.27279385963E+02 -0.93067605398E+02  0.19944914535E+03  0.17277363434E+03 0.  0.
        -24    2    3    3    0    0 -0.61718401033E+02  0.96094122300E+01 -0.11342613200E+03  0.15193895167E+03  0.79488714821E+02 0.  0.
          6    2    1    2  501    0  0.22879877295E+02 -0.27279385963E+02  0.70914987129E+02  0.18968707970E+03  0.17229219113E+03 0.  0.
         24    2    5    5    0    0  0.49865665937E+02  0.33140114264E+02  0.64431171463E+02  0.12303215744E+03  0.86027228802E+02 0.  0.
          5    1    5    5  501    0 -0.26985788642E+02 -0.60419500227E+02  0.64838156665E+01  0.66654922264E+02  0.47000000000E+01 0. -1.
        -11    1    6    6    0    0  0.82250261353E+01 -0.11134125058E+02 -0.16679777095E+02  0.21675672069E+02  0.00000000000E+00 0.  1.
         12    1    6    6    0    0  0.41640639802E+02  0.44274239322E+02  0.81110948557E+02  0.10135648537E+03  0.00000000000E+00 0. -1.
         -5    1    3    3    0  503  0.38838523737E+02  0.17669973733E+02  0.20358526606E+02  0.47510193679E+02  0.47000000000E+01 0.  1.
         13    1    4    4    0    0 -0.65560849111E+02  0.23681885459E+01 -0.37486997813E+02  0.75558641188E+02  0.00000000000E+00 0. -1.
        -14    1    4    4    0    0  0.38424480786E+01  0.72412236841E+01 -0.75939134192E+02  0.76380310483E+02  0.00000000000E+00 0.  1.
</event>
<event>
12    1  0.8633375E-002  0.1977223E+03  0.7818608E-02  0.1156802E+00
         21   -1    0    0  501  502  0.00000000000E+00  0.00000000000E+00  0.21947721928E+03  0.21947721928E+03  0.00000000000E+00 0.  1.
         21   -1    0    0  502  503 -0.00000000000E+00 -0.00000000000E+00 -0.39574249622E+03  0.39574249622E+03  0.00000000000E+00 0.  1.
         -6    2    1    2    0  503  0.35937637183E+02 -0.16293420918E+02 -0.32827383207E+03  0.38322034012E+03  0.19374501523E+03 0.  0.
        -24    2    3    3    0    0 -0.49792216375E+02  0.65710812716E+01 -0.99399871249E+02  0.13770501841E+03  0.80993171133E+02 0.  0.
          6    2    1    2  501    0 -0.35937637183E+02  0.16293420918E+02  0.15200855513E+03  0.23199937538E+03  0.17076334505E+03 0.  0.
         24    2    5    5    0    0 -0.57945356913E+02  0.65291216708E+02  0.85709080094E+02  0.14654275416E+03  0.80672950981E+02 0.  0.
          5    1    5    5  501    0  0.22007719730E+02 -0.48997795790E+02  0.66299475037E+02  0.85456621219E+02  0.47000000000E+01 0. -1.
        -11    1    6    6    0    0 -0.46984377064E+01 -0.18759580024E+02  0.12792528488E+02  0.23187193549E+02  0.00000000000E+00 0.  1.
         12    1    6    6    0    0 -0.53246919207E+02  0.84050796732E+02  0.72916551605E+02  0.12335556061E+03  0.00000000000E+00 0. -1.
         -5    1    3    3    0  503  0.85729853558E+02 -0.22864502190E+02 -0.22887396082E+03  0.24551532171E+03  0.47000000000E+01 0.  1.
         13    1    4    4    0    0 -0.66963427458E+02  0.12505955562E+02 -0.98177384188E+02  0.11949601796E+03  0.00000000000E+00 0. -1.
        -14    1    4    4    0    0  0.17171211083E+02 -0.59348742908E+01 -0.12224870611E+01  0.18209000453E+02  0.00000000000E+00 0.  1.
</event>
<event>
12    1  0.8633375E-002  0.2495152E+03  0.7818608E-02  0.1114128E+00
         21   -1    0    0  501  502  0.00000000000E+00  0.00000000000E+00  0.99683626337E+03  0.99683626337E+03  0.00000000000E+00 0. -1.
         21   -1    0    0  502  503 -0.00000000000E+00 -0.00000000000E+00 -0.10991895690E+03  0.10991895690E+03  0.00000000000E+00 0.  1.
         -6    2    1    2    0  503  0.12805140780E+03  0.11604977984E+03  0.80854738181E+03  0.84522194176E+03  0.17546095794E+03 0.  0.
        -24    2    3    3    0    0  0.14439917159E+03  0.11970167048E+03  0.80068534881E+03  0.82613039261E+03  0.78833921210E+02 0.  0.
          6    2    1    2  501    0 -0.12805140780E+03 -0.11604977984E+03  0.78369924658E+02  0.26153327851E+03  0.17998082186E+03 0.  0.
         24    2    5    5    0    0 -0.25232213985E+02 -0.12109829073E+03  0.47754078274E+02  0.15403121281E+03  0.78381770122E+02 0.  0.
          5    1    5    5  501    0 -0.10281919382E+03  0.50485108916E+01  0.30615846384E+02  0.10750206570E+03  0.47000000000E+01 0. -1.
        -13    1    6    6    0    0 -0.26642832390E+02 -0.40796607564E+02 -0.16217197257E+02  0.51353687242E+02  0.00000000000E+00 0.  1.
         14    1    6    6    0    0  0.14106184049E+01 -0.80301683169E+02  0.63971275531E+02  0.10267752557E+03  0.00000000000E+00 0. -1.
         -5    1    3    3    0  503 -0.16347763783E+02 -0.36518906422E+01  0.78620330048E+01  0.19091549150E+02  0.47000000000E+01 0.  1.
         13    1    4    4    0    0  0.13826794474E+03  0.12161717819E+03  0.65745452865E+03  0.68275560768E+03  0.00000000000E+00 0. -1.
        -14    1    4    4    0    0  0.61312268511E+01 -0.19155077077E+01  0.14323082016E+03  0.14337478494E+03  0.00000000000E+00 0.  1.
</event>
<event>
12    1  0.8633375E-002  0.2141403E+03  0.7818608E-02  0.1138854E+00
         21   -1    0    0  501  502  0.00000000000E+00  0.00000000000E+00  0.14057526967E+04  0.14057526967E+04  0.00000000000E+00 0. -1.
         21   -1    0    0  502  503 -0.00000000000E+00 -0.00000000000E+00 -0.57895440099E+02  0.57895440099E+02  0.00000000000E+00 0. -1.
         -6    2    1    2    0  503  0.11368238903E+03  0.56049097907E+02  0.18410203446E+03  0.28035516149E+03  0.16923436569E+03 0.  0.
        -24    2    3    3    0    0  0.72294569809E+02 -0.27051955912E+02  0.13657413130E+03  0.17595339760E+03  0.79679304986E+02 0.  0.
          6    2    1    2  501    0 -0.11368238903E+03 -0.56049097907E+02  0.11637552222E+04  0.11832929753E+04  0.17260029375E+03 0.  0.
         24    2    5    5    0    0 -0.22852821284E+02 -0.57550900244E+02  0.35053705788E+03  0.36500321094E+03  0.80726436125E+02 0.  0.
          5    1    5    5  501    0 -0.90829567743E+02  0.15018023380E+01  0.81321816431E+03  0.81828976441E+03  0.47000000000E+01 0. -1.
        -13    1    6    6    0    0 -0.91061908758E+01  0.18243701848E+02  0.38131048881E+02  0.43240400763E+02  0.00000000000E+00 0.  1.
         14    1    6    6    0    0 -0.13746630409E+02 -0.75794602093E+02  0.31240600900E+03  0.32176281017E+03  0.00000000000E+00 0. -1.
         -5    1    3    3    0  503  0.41387819218E+02  0.83101053818E+02  0.47527903161E+02  0.10440176389E+03  0.47000000000E+01 0.  1.
         11    1    4    4    0    0  0.73716995686E+02  0.15689284778E+01  0.62954493550E+02  0.96953211642E+02  0.00000000000E+00 0. -1.
        -12    1    4    4    0    0 -0.14224258765E+01 -0.28620884390E+02  0.73619637748E+02  0.79000185954E+02  0.00000000000E+00 0.  1.
</event>
<event>
12    1  0.8633375E-002  0.2151090E+03  0.7818608E-02  0.1137772E+00
         21   -1    0    0  503  502  0.00000000000E+00  0.00000000000E+00  0.22092593501E+03  0.22092593501E+03  0.00000000000E+00 0. -1.
         21   -1    0    0  501  503 -0.00000000000E+00 -0.00000000000E+00 -0.39715228379E+03  0.39715228379E+03  0.00000000000E+00 0. -1.
          6    2    1    2  501    0 -0.86933088357E+02 -0.92273366415E+02 -0.30121707903E+03  0.37014000372E+03  0.17378192556E+03 0.  0.
         24    2    3    3    0    0 -0.13868033762E+02 -0.89381570994E+02 -0.25937943336E+03  0.28576380281E+03  0.78751971110E+02 0.  0.
         -6    2    1    2    0  502  0.86933088357E+02  0.92273366415E+02  0.12499073026E+03  0.24793821508E+03  0.17256575514E+03 0.  0.
        -24    2    5    5    0    0  0.26433477130E+02  0.11989227094E+03  0.94521068736E+02  0.17463407387E+03  0.80560176117E+02 0.  0.
          5    1    3    3  501    0 -0.73065054596E+02 -0.28917954207E+01 -0.41837645675E+02  0.84376200907E+02  0.47000000000E+01 0. -1.
        -11    1    4    4    0    0  0.18657554341E+02  0.19521706327E+01 -0.19627096643E+02  0.27150289626E+02  0.00000000000E+00 0.  1.
         12    1    4    4    0    0 -0.32525588103E+02 -0.91333741627E+02 -0.23975233672E+03  0.25861351318E+03  0.00000000000E+00 0. -1.
         -5    1    5    5    0  502  0.60499611227E+02 -0.27618904526E+02  0.30469661522E+02  0.73304141214E+02  0.47000000000E+01 0.  1.
         13    1    6    6    0    0  0.34711298530E+02  0.37149406550E+02  0.29319816700E+01  0.50926900250E+02  0.00000000000E+00 0. -1.
        -14    1    6    6    0    0 -0.82778213991E+01  0.82742864392E+02  0.91589087066E+02  0.12370717362E+03  0.00000000000E+00 0.  1.
</event>
<event>
12    1  0.8633375E-002  0.2579272E+03  0.7818608E-02  0.1108560E+00
         21   -1    0    0  503  502  0.00000000000E+00  0.00000000000E+00  0.11933474317E+03  0.11933474317E+03  0.00000000000E+00 0.  1.
         21   -1    0    0  501  503 -0.00000000000E+00 -0.00000000000E+00 -0.55520619116E+03  0.55520619116E+03  0.00000000000E+00 0.  1.
          6    2    1    2  501    0  0.18979576455E+03  0.13915005632E+02 -0.22206079435E+03  0.34034897151E+03  0.17409872601E+03 0.  0.
         24    2    3    3    0    0  0.13378434436E+03  0.65092076527E+02 -0.19453966793E+03  0.25950421796E+03  0.85799344512E+02 0.  0.
         -6    2    1    2    0  502 -0.18979576455E+03 -0.13915005632E+02 -0.21381065364E+03  0.33419196281E+03  0.17249119622E+03 0.  0.
        -24    2    5    5    0    0 -0.24182715176E+02  0.22249914688E+02 -0.66353031791E+02  0.10946674432E+03  0.80624939485E+02 0.  0.
          5    1    3    3  501    0  0.56011420190E+02 -0.51177070896E+02 -0.27521126426E+02  0.80844753553E+02  0.47000000000E+01 0. -1.
        -11    1    4    4    0    0  0.85463174335E+02  0.32075989085E+02 -0.51165517889E+02  0.10464575225E+03  0.00000000000E+00 0.  1.
         12    1    4    4    0    0  0.48321170029E+02  0.33016087442E+02 -0.14337415004E+03  0.15485846571E+03  0.00000000000E+00 0. -1.
         -5    1    5    5    0  502 -0.16561304938E+03 -0.36164920319E+02 -0.14745762185E+03  0.22472521850E+03  0.47000000000E+01 0.  1.
         11    1    6    6    0    0  0.23779885973E+02  0.71861341751E+00 -0.48366949774E+02  0.53901402695E+02  0.00000000000E+00 0. -1.
        -12    1    6    6    0    0 -0.47962601149E+02  0.21531301270E+02 -0.17986082018E+02  0.55565341623E+02  0.00000000000E+00 0.  1.
</event>
<event>
12    1  0.8633375E-002  0.1854352E+03  0.7818608E-02  0.1162808E+00
         21   -1    0    0  503  502  0.00000000000E+00  0.00000000000E+00  0.17450754995E+03  0.17450754995E+03  0.00000000000E+00 0.  1.
         21   -1    0    0  501  503 -0.00000000000E+00 -0.00000000000E+00 -0.24805631066E+03  0.24805631066E+03  0.00000000000E+00 0.  1.
          6    2    1    2  501    0  0.52587438995E+02 -0.42654894498E+02  0.59786821559E+02  0.19416816607E+03  0.17187767138E+03 0.  0.
         24    2    3    3    0    0  0.74159737698E+02 -0.82016030049E+02  0.52468614317E+02  0.14844826646E+03  0.84009740181E+02 0.  0.
         -6    2    1    2    0  502 -0.52587438995E+02  0.42654894498E+02 -0.13333558227E+03  0.22839569454E+03  0.17263063755E+03 0.  0.
        -24    2    5    5    0    0 -0.20953397181E+02  0.90706125615E+02 -0.11360373604E+03  0.16739512758E+03  0.80303635155E+02 0.  0.
          5    1    3    3  501    0 -0.21572298703E+02  0.39361135551E+02  0.73182072414E+01  0.45719899611E+02  0.47000000000E+01 0. -1.
        -11    1    4    4    0    0  0.12584099448E+02 -0.69753872216E+02  0.47797290591E+02  0.85490018341E+02  0.00000000000E+00 0.  1.
         12    1    4    4    0    0  0.61575638249E+02 -0.12262157833E+02  0.46713237269E+01  0.62958248116E+02  0.00000000000E+00 0. -1.
         -5    1    5    5    0  502 -0.31634041814E+02 -0.48051231117E+02 -0.19731846229E+02  0.61000566956E+02  0.47000000000E+01 0.  1.
         13    1    6    6    0    0  0.23992112963E+02  0.68836930128E+02 -0.70006991606E+02  0.10106989318E+03  0.00000000000E+00 0. -1.
        -14    1    6    6    0    0 -0.44945510144E+02  0.21869195487E+02 -0.43596744434E+02  0.66325234403E+02  0.00000000000E+00 0.  1.
</event>
<event>
12    1  0.8633375E-002  0.2258108E+03  0.7818608E-02  0.1130219E+00
         21   -1    0    0  503  502  0.00000000000E+00  0.00000000000E+00  0.96900965255E+03  0.96900965255E+03  0.00000000000E+00 0. -1.
         21   -1    0    0  501  503 -0.00000000000E+00 -0.00000000000E+00 -0.12061274633E+03  0.12061274633E+03  0.00000000000E+00 0.  1.
          6    2    1    2  501    0 -0.59041431262E+02  0.13134856813E+03  0.14203732070E+02  0.22625708427E+03  0.17393155327E+03 0.  0.
         24    2    3    3    0    0  0.11764674628E+02  0.12158849304E+03  0.41451241979E+02  0.14961975333E+03  0.75800368836E+02 0.  0.
         -6    2    1    2    0  502  0.59041431262E+02 -0.13134856813E+03  0.83419317415E+03  0.86336531460E+03  0.16965576240E+03 0.  0.
        -24    2    5    5    0    0  0.10362666276E+03 -0.12330993023E+03  0.62223671900E+03  0.64657026981E+03  0.70219336431E+02 0.  0.
          5    1    3    3  501    0 -0.70806105890E+02  0.97600750845E+01 -0.27247509909E+02  0.76637330938E+02  0.47000000000E+01 0. -1.
        -11    1    4    4    0    0  0.26765280752E+01  0.92552377163E+02 -0.65127064836E+01  0.92819834447E+02  0.00000000000E+00 0.  1.
         12    1    4    4    0    0  0.90881465528E+01  0.29036115881E+02  0.47963948462E+02  0.56799918885E+02  0.00000000000E+00 0. -1.
         -5    1    5    5    0  502 -0.44585231500E+02 -0.80386379033E+01  0.21195645515E+03  0.21679504479E+03  0.47000000000E+01 0.  1.
         11    1    6    6    0    0  0.46265554122E+01 -0.55541699051E+02  0.19523981733E+03  0.20303908889E+03  0.00000000000E+00 0. -1.
        -12    1    6    6    0    0  0.99000107350E+02 -0.67768231175E+02  0.42699690167E+03  0.44353118092E+03  0.00000000000E+00 0.  1.
</event>
<event>
12    1  0.8633375E-002  0.1806545E+03  0.7818608E-02  0.1167264E+00
         21   -1    0    0  503  502  0.00000000000E+00  0.00000000000E+00  0.46661136554E+03  0.46661136554E+03  0.00000000000E+00 0. -1.
         21   -1    0    0  501  503 -0.00000000000E+00 -0.00000000000E+00 -0.81056543679E+02  0.81056543679E+02  0.00000000000E+00 0. -1.
          6    2    1    2  501    0  0.23357910396E+02 -0.49335160629E+02  0.29467721913E+03  0.34544333073E+03  0.17180477647E+03 0.  0.
         24    2    3    3    0    0 -0.41397174429E+02 -0.14053466704E+01  0.20694341983E+03  0.22623847505E+03  0.81501948036E+02 0.  0.
         -6    2    1    2    0  502 -0.23357910396E+02  0.49335160629E+02  0.90877602728E+02  0.20222457849E+03  0.17221060192E+03 0.  0.
        -24    2    5    5    0    0  0.29158425766E+02  0.40712443439E+02 -0.30054073511E+01  0.94204087854E+02  0.79734941219E+02 0.  0.
          5    1    3    3  501    0  0.64755084825E+02 -0.47929813959E+02  0.87733799305E+02  0.11920485568E+03  0.47000000000E+01 0. -1.
        -13    1    4    4    0    0 -0.53708319060E+02 -0.28496183947E+02  0.15288895987E+03  0.16453464707E+03  0.00000000000E+00 0.  1.
         14    1    4    4    0    0  0.12311144631E+02  0.27090837276E+02  0.54054459957E+02  0.61703827982E+02  0.00000000000E+00 0. -1.
         -5    1    5    5    0  502 -0.52516336162E+02  0.86227171904E+01  0.93883010079E+02  0.10802049064E+03  0.47000000000E+01 0.  1.
         11    1    6    6    0    0 -0.11937569908E+00  0.20122470920E+02 -0.38722396739E+02  0.43638882842E+02  0.00000000000E+00 0. -1.
        -12    1    6    6    0    0  0.29277801465E+02  0.20589972519E+02  0.35716989388E+02  0.50565205012E+02  0.00000000000E+00 0.  1.
</event>
<event>
12    1  0.8633375E-002  0.1734013E+03  0.7818608E-02  0.1174352E+00
         21   -1    0    0  501  502  0.00000000000E+00  0.00000000000E+00  0.13785785981E+03  0.13785785981E+03  0.00000000000E+00 0.  1.
         21   -1    0    0  502  503 -0.00000000000E+00 -0.00000000000E+00 -0.21870038864E+03  0.21870038864E+03  0.00000000000E+00 0.  1.
         -6    2    1    2    0  503 -0.21016189150E+02 -0.51954644856E+01 -0.49917416560E+02  0.18044324771E+03  0.17204459919E+03 0.  0.
        -24    2    3    3    0    0  0.27754972401E+02  0.50269387613E+02 -0.36647975665E+02  0.10525585463E+03  0.80239460298E+02 0.  0.
          6    2    1    2  501    0  0.21016189150E+02  0.51954644856E+01 -0.30925112268E+02  0.17611500074E+03  0.17202167846E+03 0.  0.
         24    2    5    5    0    0 -0.95234809929E+01  0.57289985572E+02  0.13692860518E+02  0.10088625574E+03  0.81349265704E+02 0.  0.
          5    1    5    5  501    0  0.30539670143E+02 -0.52094521086E+02 -0.44617972786E+02  0.75228745006E+02  0.47000000000E+01 0. -1.
        -11    1    6    6    0    0 -0.12743159265E+02 -0.28738553025E+01 -0.25749841909E+02  0.28873889774E+02  0.00000000000E+00 0.  1.
         12    1    6    6    0    0  0.32196782722E+01  0.60163840874E+02  0.39442702427E+02  0.72012365963E+02  0.00000000000E+00 0. -1.
         -5    1    3    3    0  503 -0.48771161551E+02 -0.55464852099E+02 -0.13269440895E+02  0.75187393086E+02  0.47000000000E+01 0.  1.
         11    1    4    4    0    0 -0.25218238188E+02  0.34032304580E+02 -0.22977776811E+02  0.48188541371E+02  0.00000000000E+00 0. -1.
        -12    1    4    4    0    0  0.52973210589E+02  0.16237083034E+02 -0.13670198854E+02  0.57067313256E+02  0.00000000000E+00 0.  1.
</event>
<event>
12    1  0.8633375E-002  0.1735224E+03  0.7818608E-02  0.1174302E+00
         21   -1    0    0  501  502  0.00000000000E+00  0.00000000000E+00  0.61391659126E+03  0.61391659126E+03  0.00000000000E+00 0. -1.
         21   -1    0    0  502  503 -0.00000000000E+00 -0.00000000000E+00 -0.10189227475E+03  0.10189227475E+03  0.00000000000E+00 0. -1.
         -6    2    1    2    0  503  0.20594569290E+02  0.15692516985E+02 -0.18447729918E+01  0.17353221400E+03  0.17157982030E+03 0.  0.
        -24    2    3    3    0    0 -0.36306068661E+02  0.55214731161E+02 -0.19411567824E+02  0.10190561075E+03  0.75107572036E+02 0.  0.
          6    2    1    2  501    0 -0.20594569290E+02 -0.15692516985E+02  0.51386908951E+03  0.54227665201E+03  0.17126626869E+03 0.  0.
         24    2    5    5    0    0 -0.54026535685E+02  0.84600353592E+01  0.16541793322E+03  0.19136164737E+03  0.79156482349E+02 0.  0.
          5    1    5    5  501    0  0.33431966395E+02 -0.24152552345E+02  0.34845115629E+03  0.35091500464E+03  0.47000000000E+01 0. -1.
        -13    1    6    6    0    0 -0.52889020074E+01  0.37147167092E+02  0.86353659469E+02  0.94153274033E+02  0.00000000000E+00 0.  1.
         14    1    6    6    0    0 -0.48737633678E+02 -0.28687131733E+02  0.79064273749E+02  0.97208373338E+02  0.00000000000E+00 0. -1.
         -5    1    3    3    0  503  0.56900637950E+02 -0.39522214176E+02  0.17566794832E+02  0.71626603250E+02  0.47000000000E+01 0.  1.
         11    1    4    4    0    0 -0.56152016303E+02  0.45782725333E+02 -0.28859786236E+02  0.77987140833E+02  0.00000000000E+00 0. -1.
        -12    1    4    4    0    0  0.19845947642E+02  0.94320058287E+01  0.94482184124E+01  0.23918469912E+02  0.00000000000E+00 0.  1.
</event>
<event>
12    1  0.8633375E-002  0.1865048E+03  0.7818608E-02  0.1162136E+00
         21   -1    0    0  503  502  0.00000000000E+00  0.00000000000E+00  0.10626938502E+03  0.10626938502E+03  0.00000000000E+00 0. -1.
         21   -1    0    0  501  503 -0.00000000000E+00 -0.00000000000E+00 -0.38768672900E+03  0.38768672900E+03  0.00000000000E+00 0. -1.
          6    2    1    2  501    0 -0.69342112540E+02 -0.99727862405E+01 -0.24040504020E+03  0.30299527864E+03  0.17059827222E+03 0.  0.
         24    2    3    3    0    0 -0.15481329793E+02  0.34226100901E+02 -0.20989109549E+03  0.22678690400E+03  0.77245908018E+02 0.  0.
         -6    2    1    2    0  502  0.69342112540E+02  0.99727862405E+01 -0.41012303776E+02  0.19096083538E+03  0.17284746614E+03 0.  0.
        -24    2    5    5    0    0  0.31267347613E+02 -0.18372869557E+01 -0.92261118045E+02  0.12586324313E+03  0.79676969178E+02 0.  0.
          5    1    3    3  501    0 -0.53860782747E+02 -0.44198887142E+02 -0.30513944714E+02  0.76208374636E+02  0.47000000000E+01 0. -1.
        -13    1    4    4    0    0 -0.26186178064E+02  0.54208179939E+02 -0.12235836352E+03  0.13636646148E+03  0.00000000000E+00 0.  1.
         14    1    4    4    0    0  0.10704848271E+02 -0.19982079038E+02 -0.87532731970E+02  0.90420442519E+02  0.00000000000E+00 0. -1.
         -5    1    5    5    0  502  0.38074764927E+02  0.11810073196E+02  0.51248814269E+02  0.65097592253E+02  0.47000000000E+01 0.  1.
         13    1    6    6    0    0  0.32908729612E+02 -0.19996869805E+01  0.61236471019E+00  0.32975115211E+02  0.00000000000E+00 0. -1.
        -14    1    6    6    0    0 -0.16413819982E+01  0.16240002485E+00 -0.92873482755E+02  0.92888127916E+02  0.00000000000E+00 0.  1.
</event>
<event>
12    1  0.8633375E-002  0.1909593E+03  0.7818608E-02  0.1157736E+00
         21   -1    0    0  503  502  0.00000000000E+00  0.00000000000E+00  0.42133929838E+03  0.42133929838E+03  0.00000000000E+00 0. -1.
         21   -1    0    0  501  503 -0.00000000000E+00 -0.00000000000E+00 -0.92467633525E+02  0.92467633525E+02  0.00000000000E+00 0. -1.
          6    2    1    2  501    0 -0.40884949448E+02  0.70385622788E+02  0.97682150949E+02  0.21395022840E+03  0.17206737818E+03 0.  0.
         24    2    3    3    0    0  0.40037207155E+02  0.29564173422E+02  0.22602191577E+02  0.96162807780E+02  0.79116421994E+02 0.  0.
         -6    2    1    2    0  502  0.40884949448E+02 -0.70385622788E+02  0.23118951391E+03  0.29985670350E+03  0.17274181980E+03 0.  0.
        -24    2    5    5    0    0 -0.35111490555E+02 -0.58174493482E+02  0.17678648390E+03  0.20548324195E+03  0.79704537952E+02 0.  0.
          5    1    3    3  501    0 -0.80922156603E+02  0.40821449366E+02  0.75079959373E+02  0.11778742062E+03  0.47000000000E+01 0. -1.
        -13    1    4    4    0    0  0.44417656841E+02  0.22938545448E+02 -0.19245761555E+02  0.53567755640E+02  0.00000000000E+00 0.  1.
         14    1    4    4    0    0 -0.43804496859E+01  0.66256279735E+01  0.41847953131E+02  0.42595052140E+02  0.00000000000E+00 0. -1.
         -5    1    5    5    0  502  0.75996440003E+02 -0.12211129306E+02  0.54403030006E+02  0.94373461555E+02  0.47000000000E+01 0.  1.
         13    1    6    6    0    0  0.20404650521E+02 -0.22810790327E+02  0.23259045838E+02  0.38440410137E+02  0.00000000000E+00 0. -1.
        -14    1    6    6    0    0 -0.55516141077E+02 -0.35363703155E+02  0.15352743806E+03  0.16704283181E+03  0.00000000000E+00 0.  1.
</event>
<event>
12    1  0.8633375E-002  0.1826127E+03  0.7818608E-02  0.1165981E+00
         21   -1    0    0  503  502  0.00000000000E+00  0.00000000000E+00  0.18470965676E+03  0.18470965676E+03  0.00000000000E+00 0. -1.
         21   -1    0    0  501  503 -0.00000000000E+00 -0.00000000000E+00 -0.18115919036E+03  0.18115919036E+03  0.00000000000E+00 0. -1.
          6    2    1    2  501    0 -0.48188987357E+01  0.51990644308E+02 -0.23396380222E+02  0.18127872511E+03  0.17201260619E+03 0.  0.
         24    2    3    3    0    0 -0.39770849512E+02  0.23699778010E+02 -0.69427875399E+02  0.11675740671E+03  0.81661877221E+02 0.  0.
         -6    2    1    2    0  502  0.48188987357E+01 -0.51990644308E+02  0.26946846618E+02  0.18459012201E+03  0.17498894742E+03 0.  0.
        -24    2    5    5    0    0  0.25633221920E+02 -0.27858729450E+01 -0.43502346600E+02  0.96049033243E+02  0.81658676656E+02 0.  0.
          5    1    3    3  501    0  0.34951950777E+02  0.28290866298E+02  0.46031495177E+02  0.64521318394E+02  0.47000000000E+01 0. -1.
        -13    1    4    4    0    0 -0.56499933027E+02 -0.55835932491E+01 -0.57964037574E+02  0.81137220790E+02  0.00000000000E+00 0.  1.
         14    1    4    4    0    0  0.16729083515E+02  0.29283371259E+02 -0.11463837826E+02  0.35620185923E+02  0.00000000000E+00 0. -1.
         -5    1    5    5    0  502 -0.20814323185E+02 -0.49204771363E+02  0.70449193218E+02  0.88541088765E+02  0.47000000000E+01 0.  1.
         11    1    6    6    0    0  0.46386618082E+01 -0.41395637869E+02 -0.22425005684E+02  0.47307471903E+02  0.00000000000E+00 0. -1.
        -12    1    6    6    0    0  0.20994560112E+02  0.38609764924E+02 -0.21077340916E+02  0.48741561340E+02  0.00000000000E+00 0.  1.
</event>
<event>
12    1  0.8633375E-002  0.2035831E+03  0.7818608E-02  0.1147809E+00
         21   -1    0    0  503  502  0.00000000000E+00  0.00000000000E+00  0.52250732552E+02  0.52250732552E+02  0.00000000000E+00 0.  1.
         21   -1    0    0  501  503 -0.00000000000E+00 -0.00000000000E+00 -0.79949488796E+03  0.79949488796E+03  0.00000000000E+00 0.  1.
          6    2    1    2  501    0 -0.19669051978E+02  0.96893746015E+02 -0.45480940225E+03  0.49829475674E+03  0.17796292478E+03 0.  0.
         24    2    3    3    0    0 -0.52792304614E+02  0.11222644608E+03 -0.24919837448E+03  0.28941626025E+03  0.79247329459E+02 0.  0.
         -6    2    1    2    0  502  0.19669051978E+02 -0.96893746015E+02 -0.29243475315E+03  0.35345086377E+03  0.17214574820E+03 0.  0.
        -24    2    5    5    0    0  0.25765501806E+02 -0.74897267639E+01 -0.67359725546E+02  0.11114712172E+03  0.84240091111E+02 0.  0.
          5    1    3    3  501    0  0.33123252636E+02 -0.15332700062E+02 -0.20561102777E+03  0.20887849649E+03  0.47000000000E+01 0. -1.
        -11    1    4    4    0    0  0.16826850122E+02  0.45819990300E+02 -0.10842574023E+03  0.11890649916E+03  0.00000000000E+00 0.  1.
         12    1    4    4    0    0 -0.69619154736E+02  0.66406455777E+02 -0.14077263425E+03  0.17050976109E+03  0.00000000000E+00 0. -1.
         -5    1    5    5    0  502 -0.60964498282E+01 -0.89404019251E+02 -0.22507502760E+03  0.24230374205E+03  0.47000000000E+01 0.  1.
         11    1    6    6    0    0 -0.29214346291E+02  0.77004748795E+01 -0.15050355598E+02  0.33753348667E+02  0.00000000000E+00 0. -1.
        -12    1    6    6    0    0  0.54979848098E+02 -0.15190201643E+02 -0.52309369948E+02  0.77393773051E+02  0.00000000000E+00 0.  1.
</event>
<event>
12    1  0.8633375E-002  0.3521303E+03  0.7818608E-02  0.1061763E+00
         21   -1    0    0  501  502  0.00000000000E+00  0.00000000000E+00  0.41455930159E+03  0.41455930159E+03  0.00000000000E+00 0.  1.
         21   -1    0    0  502  503 -0.00000000000E+00 -0.00000000000E+00 -0.32686340286E+03  0.32686340286E+03  0.00000000000E+00 0. -1.
         -6    2    1    2    0  503  0.12012396434E+03 -0.28270488902E+03 -0.64489945515E+02  0.35798696489E+03  0.17217401915E+03 0.  0.
        -24    2    3    3    0    0  0.77166629456E+02 -0.10158460637E+03 -0.79706548706E+02  0.17116211531E+03  0.81665261013E+02 0.  0.
          6    2    1    2  501    0 -0.12012396434E+03  0.28270488902E+03  0.15218584425E+03  0.38343573956E+03  0.17178653642E+03 0.  0.
         24    2    5    5    0    0 -0.10679252717E+03  0.19870202044E+03  0.17483205031E+03  0.29529295883E+03  0.75792802639E+02 0.  0.
          5    1    5    5  501    0 -0.13331437167E+02  0.84002868575E+02 -0.22646206056E+02  0.88142780729E+02  0.47000000000E+01 0. -1.
        -11    1    6    6    0    0 -0.10066527549E+03  0.19975047646E+03  0.14909998144E+03  0.26882067443E+03  0.00000000000E+00 0.  1.
         12    1    6    6    0    0 -0.61272516863E+01 -0.10484560162E+01  0.25732068868E+02  0.26472284402E+02  0.00000000000E+00 0. -1.
         -5    1    3    3    0  503  0.42957334886E+02 -0.18112028265E+03  0.15216603191E+02  0.18682484958E+03  0.47000000000E+01 0.  1.
         11    1    4    4    0    0  0.23688884789E+02 -0.93890095267E+02 -0.58428439880E+02  0.11309463223E+03  0.00000000000E+00 0. -1.
        -12    1    4    4    0    0  0.53477744667E+02 -0.76945111022E+01 -0.21278108826E+02  0.58067483078E+02  0.00000000000E+00 0.  1.
</event>
<event>
12    1  0.8633375E-002  0.1953321E+03  0.7818608E-02  0.1153781E+00
         21   -1    0    0  501  502  0.00000000000E+00  0.00000000000E+00  0.14117640062E+03  0.14117640062E+03  0.00000000000E+00 0.  1.
         21   -1    0    0  502  503 -0.00000000000E+00 -0.00000000000E+00 -0.49474367988E+03  0.49474367988E+03  0.00000000000E+00 0.  1.
         -6    2    1    2    0  503 -0.50168789227E+02  0.77933782964E+02 -0.39113780876E+03  0.43719951340E+03  0.17194198771E+03 0.  0.
        -24    2    3    3    0    0  0.47636638442E+01  0.10310436490E+03 -0.22620314221E+03  0.26148193652E+03  0.80942813301E+02 0.  0.
          6    2    1    2  501    0  0.50168789227E+02 -0.77933782964E+02  0.37570529502E+02  0.19872056709E+03  0.17171993815E+03 0.  0.
         24    2    5    5    0    0  0.66535863345E+02 -0.67948445275E+02 -0.30137886395E+02  0.12819321305E+03  0.80505871524E+02 0.  0.
          5    1    5    5  501    0 -0.16367074118E+02 -0.99853376885E+01  0.67708415897E+02  0.70527354035E+02  0.47000000000E+01 0. -1.
        -13    1    6    6    0    0  0.82510845590E+02 -0.41748528736E+02 -0.14009228441E+02  0.93526668780E+02  0.00000000000E+00 0.  1.
         14    1    6    6    0    0 -0.15974982245E+02 -0.26199916539E+02 -0.16128657954E+02  0.34666544272E+02  0.00000000000E+00 0. -1.
         -5    1    3    3    0  503 -0.54932453071E+02 -0.25170581939E+02 -0.16493466655E+03  0.17571757689E+03  0.47000000000E+01 0.  1.
         13    1    4    4    0    0  0.22429094027E+02  0.28998118171E+02 -0.20229592883E+02  0.41871130204E+02  0.00000000000E+00 0. -1.
        -14    1    4    4    0    0 -0.17665430183E+02  0.74106246732E+02 -0.20597354932E+03  0.21961080631E+03  0.00000000000E+00 0.  1.
</event>
<event>
12    1  0.8633375E-002  0.1782284E+03  0.7818608E-02  0.1169699E+00
         21   -1    0    0  503  502  0.00000000000E+00  0.00000000000E+00  0.18443513481E+03  0.18443513481E+03  0.00000000000E+00 0. -1.
         21   -1    0    0  501  503 -0.00000000000E+00 -0.00000000000E+00 -0.52916272071E+03  0.52916272071E+03  0.00000000000E+00 0. -1.
          6    2    1    2  501    0  0.35997206798E+02  0.35157543862E+02 -0.46556567931E+03  0.49826740409E+03  0.17025613774E+03 0.  0.
         24    2    3    3    0    0  0.73227556253E+02  0.63205142841E+02 -0.28364406361E+03  0.31041019505E+03  0.80891095261E+02 0.  0.
         -6    2    1    2    0  502 -0.35997206798E+02 -0.35157543862E+02  0.12083809341E+03  0.21533045143E+03  0.17097808838E+03 0.  0.
        -24    2    5    5    0    0 -0.50704544383E+02 -0.66757756322E+02  0.34167275432E+02  0.12179543181E+03  0.81481136768E+02 0.  0.
          5    1    3    3  501    0 -0.37230349455E+02 -0.28047598979E+02 -0.18192161571E+03  0.18785720904E+03  0.47000000000E+01 0. -1.
        -11    1    4    4    0    0 -0.50628942038E+01 -0.14028522358E+02 -0.21847832689E+02  0.26452979614E+02  0.00000000000E+00 0.  1.
         12    1    4    4    0    0  0.78290450456E+02  0.77233665199E+02 -0.26179623092E+03  0.28395721543E+03  0.00000000000E+00 0. -1.
         -5    1    5    5    0  502  0.14707337585E+02  0.31600212460E+02  0.86670817982E+02  0.93535019624E+02  0.47000000000E+01 0.  1.
         11    1    6    6    0    0 -0.31520916396E+02 -0.83669597488E+02  0.35469028254E+02  0.96188469576E+02  0.00000000000E+00 0. -1.
        -12    1    6    6    0    0 -0.19183627988E+02  0.16911841166E+02 -0.13017528213E+01  0.25606962233E+02  0.00000000000E+00 0.  1.
</event>
<event>
12    1  0.8633375E-002  0.2480841E+03  0.7818608E-02  0.1114698E+00
         21   -1    0    0  501  502  0.00000000000E+00  0.00000000000E+00  0.42451491803E+03  0.42451491803E+03  0.00000000000E+00 0. -1.
         21   -1    0    0  502  503 -0.00000000000E+00 -0.00000000000E+00 -0.15194050476E+03  0.15194050476E+03  0.00000000000E+00 0.  1.
         -6    2    1    2    0  503 -0.17652331723E+03 -0.10459929705E+02  0.71517079172E+02  0.25712839738E+03  0.17242513874E+03 0.  0.
        -24    2    3    3    0    0 -0.75913983068E+02 -0.10348907082E+02  0.10509398301E+03  0.15095990432E+03  0.76642773589E+02 0.  0.
          6    2    1    2  501    0  0.17652331723E+03  0.10459929705E+02  0.20105733410E+03  0.31932702541E+03  0.17399944225E+03 0.  0.
         24    2    5    5    0    0  0.39535615095E+02  0.19875055179E+02  0.14420205818E+03  0.17063644896E+03  0.79777700211E+02 0.  0.
          5    1    5    5  501    0  0.13698770214E+03 -0.94151254745E+01  0.56855275927E+02  0.14869057645E+03  0.47000000000E+01 0. -1.
        -11    1    6    6    0    0 -0.78924396758E+01  0.38149024096E+02  0.47874565420E+02  0.61722059733E+02  0.00000000000E+00 0.  1.
         12    1    6    6    0    0  0.47428054770E+02 -0.18273968917E+02  0.96327492756E+02  0.10891438922E+03  0.00000000000E+00 0. -1.
         -5    1    3    3    0  503 -0.10060933417E+03 -0.11102262312E+00 -0.33576903843E+02  0.10616849306E+03  0.47000000000E+01 0.  1.
         11    1    4    4    0    0 -0.29249697766E+02  0.41376499556E+01  0.97043233512E+02  0.10143990407E+03  0.00000000000E+00 0. -1.
        -12    1    4    4    0    0 -0.46664285302E+02 -0.14486557037E+02  0.80507495023E+01  0.49520000254E+02  0.00000000000E+00 0.  1.
</event>
<event>
12    1  0.8633375E-002  0.1754912E+03  0.7818608E-02  0.1172631E+00
         21   -1    0    0  501  502  0.00000000000E+00  0.00000000000E+00  0.10486958516E+03  0.10486958516E+03  0.00000000000E+00 0. -1.
         21   -1    0    0  502  503 -0.00000000000E+00 -0.00000000000E+00 -0.57394782468E+03  0.57394782468E+03  0.00000000000E+00 0. -1.
         -6    2    1    2    0  503  0.25027098698E+02 -0.18626570993E+02 -0.47228777608E+03  0.50329684090E+03  0.17111008681E+03 0.  0.
        -24    2    3    3    0    0 -0.14758346974E+01  0.35332570291E+02 -0.13601149969E+03  0.16165694500E+03  0.79895376636E+02 0.  0.
          6    2    1    2  501    0 -0.25027098698E+02  0.18626570993E+02  0.32095365585E+01  0.17552056894E+03  0.17269587193E+03 0.  0.
         24    2    5    5    0    0 -0.77262915442E+02  0.18530460209E+02 -0.23223918998E+02  0.11678891342E+03  0.82385458820E+02 0.  0.
          5    1    5    5  501    0  0.52235816744E+02  0.96110784338E-01  0.26433455557E+02  0.58731655526E+02  0.47000000000E+01 0. -1.
        -11    1    6    6    0    0 -0.15867290477E+02  0.42766887878E+01 -0.46717976575E+02  0.49524037692E+02  0.00000000000E+00 0.  1.
         12    1    6    6    0    0 -0.61395624965E+02  0.14253771421E+02  0.23494057577E+02  0.67264875723E+02  0.00000000000E+00 0. -1.
         -5    1    3    3    0  503  0.26502933396E+02 -0.53959141285E+02 -0.33627627639E+03  0.34163989590E+03  0.47000000000E+01 0.  1.
         13    1    4    4    0    0 -0.37211204483E+02  0.23936942565E+02 -0.10134373532E+03  0.11058120838E+03  0.00000000000E+00 0. -1.
        -14    1    4    4    0    0  0.35735369786E+02  0.11395627726E+02 -0.34667764376E+02  0.51075736625E+02  0.00000000000E+00 0.  1.
</event>
<event>
12    1  0.8633375E-002  0.1926836E+03  0.7818608E-02  0.1156070E+00
         21   -1    0    0  501  502  0.00000000000E+00  0.00000000000E+00  0.25217532035E+03  0.25217532035E+03  0.00000000000E+00 0.  1.
         21   -1    0    0  502  503 -0.00000000000E+00 -0.00000000000E+00 -0.18325658466E+03  0.18325658466E+03  0.00000000000E+00 0.  1.
         -6    2    1    2    0  503 -0.47074724956E+02  0.72370624994E+02 -0.62105694716E+02  0.20244525760E+03  0.17225976872E+03 0.  0.
        -24    2    3    3    0    0  0.36189351214E+02  0.31985056834E+02 -0.57469968553E+02  0.10966874952E+03  0.79948260349E+02 0.  0.
          6    2    1    2  501    0  0.47074724956E+02 -0.72370624994E+02  0.13102443041E+03  0.23298664740E+03  0.17222612871E+03 0.  0.
         24    2    5    5    0    0  0.91004162797E+02 -0.78756344267E+02  0.77356825895E+02  0.16318066847E+03  0.78482690081E+02 0.  0.
          5    1    5    5  501    0 -0.43929437841E+02  0.63857192730E+01  0.53667604516E+02  0.69805978928E+02  0.47000000000E+01 0. -1.
        -13    1    6    6    0    0  0.22216643841E+02 -0.67645331619E+00  0.51301603701E+02  0.55909671748E+02  0.00000000000E+00 0.  1.
         14    1    6    6    0    0  0.68787518956E+02 -0.78079890951E+02  0.26055222194E+02  0.10727099673E+03  0.00000000000E+00 0. -1.
         -5    1    3    3    0  503 -0.83264076170E+02  0.40385568161E+02 -0.46357261632E+01  0.92776508089E+02  0.47000000000E+01 0.  1.
         13    1    4    4    0    0  0.46616807379E+02  0.41089557648E+02 -0.68118428302E+02  0.92204114616E+02  0.00000000000E+00 0. -1.
        -14    1    4    4    0    0 -0.10427456165E+02 -0.91045008139E+01  0.10648459749E+02  0.17464634899E+02  0.00000000000E+00 0.  1.
</event>
<event>
12    1  0.8633375E-002  0.1735097E+03  0.7818608E-02  0.1174846E+00
         21   -1    0    0  503  502  0.00000000000E+00  0.00000000000E+00  0.15692827278E+03  0.15692827278E+03  0.00000000000E+00 0.  1.
         21   -1    0    0  501  503 -0.00000000000E+00 -0.00000000000E+00 -0.22989902672E+03  0.22989902672E+03  0.00000000000E+00 0.  1.
          6    2    1    2  501    0 -0.12925248599E+02 -0.12565633975E+02 -0.11805317968E+03  0.20986226219E+03  0.17257073521E+03 0.  0.
         24    2    3    3    0    0  0.12913011723E+02  0.48797751217E+02 -0.10648993762E+03  0.14212099481E+03  0.79437421644E+02 0.  0.
         -6    2    1    2    0  502  0.12925248599E+02  0.12565633975E+02  0.45082425743E+02  0.17696503731E+03  0.17017415230E+03 0.  0.
        -24    2    5    5    0    0 -0.51914720791E+02  0.32792158366E+02  0.13421461816E+02  0.10187948240E+03  0.80179981370E+02 0.  0.
          5    1    3    3  501    0 -0.25838260322E+02 -0.61363385192E+02 -0.11563242065E+02  0.67741267376E+02  0.47000000000E+01 0. -1.
        -11    1    4    4    0    0  0.34140408363E+02  0.31279618557E+01 -0.14451490698E+02  0.37204800926E+02  0.00000000000E+00 0.  1.
         12    1    4    4    0    0 -0.21227396640E+02  0.45669789361E+02 -0.92038446918E+02  0.10491619389E+03  0.00000000000E+00 0. -1.
         -5    1    5    5    0  502  0.64839969390E+02 -0.20226524391E+02  0.31660963927E+02  0.75085554911E+02  0.47000000000E+01 0.  1.
         13    1    6    6    0    0  0.21501862553E+02  0.10424427606E+02 -0.38754606554E+00  0.23898723316E+02  0.00000000000E+00 0. -1.
        -14    1    6    6    0    0 -0.73416583345E+02  0.22367730760E+02  0.13809007881E+02  0.77980759088E+02  0.00000000000E+00 0.  1.
</event>
<event>
12    1  0.8633375E-002  0.2209137E+03  0.7818608E-02  0.1134220E+00
         21   -1    0    0  503  502  0.00000000000E+00  0.00000000000E+00  0.65366852910E+03  0.65366852910E+03  0.00000000000E+00 0. -1.
         21   -1    0    0  501  503 -0.00000000000E+00 -0.00000000000E+00 -0.25969104677E+03  0.25969104677E+03  0.00000000000E+00 0. -1.
          6    2    1    2  501    0  0.12018322392E+03 -0.50484345427E+02 -0.19105980863E+03  0.28800249004E+03  0.17160683945E+03 0.  0.
         24    2    3    3    0    0  0.68391769928E+00 -0.45681672867E+02 -0.10735084275E+03  0.14194623094E+03  0.80853237782E+02 0.  0.
         -6    2    1    2    0  502 -0.12018322392E+03  0.50484345427E+02  0.58503729096E+03  0.62535708583E+03  0.17835407632E+03 0.  0.
        -24    2    5    5    0    0 -0.59085804430E+02  0.61196633735E+02  0.52896015663E+03  0.54160517371E+03  0.79379825031E+02 0.  0.
          5    1    3    3  501    0  0.11949930622E+03 -0.48026725595E+01 -0.83708965887E+02  0.14605625910E+03  0.47000000000E+01 0. -1.
        -11    1    4    4    0    0  0.13156836437E+02 -0.11718394632E+02  0.92228655250E+01  0.19886788737E+02  0.00000000000E+00 0.  1.
         12    1    4    4    0    0 -0.12472918737E+02 -0.33963278235E+02 -0.11657370827E+03  0.12205944220E+03  0.00000000000E+00 0. -1.
         -5    1    5    5    0  502 -0.61097419493E+02 -0.10712288308E+02  0.56077134332E+02  0.83751912124E+02  0.47000000000E+01 0.  1.
         11    1    6    6    0    0 -0.77926594396E+02  0.52341474091E+02  0.39271517326E+03  0.40377888916E+03  0.00000000000E+00 0. -1.
        -12    1    6    6    0    0  0.18840789966E+02  0.88551596435E+01  0.13624498337E+03  0.13782628455E+03  0.00000000000E+00 0.  1.
</event>
<event>
12    1  0.8633375E-002  0.2042390E+03  0.7818608E-02  0.1151003E+00
         21   -1    0    0  501  502  0.00000000000E+00  0.00000000000E+00  0.11260793259E+04  0.11260793259E+04  0.00000000000E+00 0.  1.
         21   -1    0    0  502  503 -0.00000000000E+00 -0.00000000000E+00 -0.38750305394E+02  0.38750305394E+02  0.00000000000E+00 0.  1.
         -6    2    1    2    0  503  0.71332891260E+02 -0.70238824171E+02  0.34931252880E+03  0.40463909831E+03  0.17802158104E+03 0.  0.
        -24    2    3    3    0    0  0.87556391490E+02 -0.10957114619E+03  0.28055560042E+03  0.32364626706E+03  0.79771570672E+02 0.  0.
          6    2    1    2  501    0 -0.71332891260E+02  0.70238824171E+02  0.73801649172E+03  0.76019053298E+03  0.15231359295E+03 0.  0.
         24    2    5    5    0    0 -0.63259057060E+02  0.10267878122E+03  0.64918565648E+03  0.66516135378E+03  0.80330377615E+02 0.  0.
          5    1    5    5  501    0 -0.80738341998E+01 -0.32439957046E+02  0.88830835238E+02  0.95029179208E+02  0.47000000000E+01 0. -1.
        -11    1    6    6    0    0 -0.34175095493E+02  0.27494998235E+02  0.41857621476E+03  0.42086810243E+03  0.00000000000E+00 0.  1.
         12    1    6    6    0    0 -0.29083961568E+02  0.75183782982E+02  0.23060944172E+03  0.24429325135E+03  0.00000000000E+00 0. -1.
         -5    1    3    3    0  503 -0.16223500230E+02  0.39332322017E+02  0.68756928374E+02  0.80992831253E+02  0.47000000000E+01 0.  1.
         11    1    4    4    0    0  0.81966157730E+01 -0.28915802018E+01 -0.39937383098E+01  0.95653380432E+01  0.00000000000E+00 0. -1.
        -12    1    4    4    0    0  0.79359775717E+02 -0.10667956599E+03  0.28454933873E+03  0.31408092902E+03  0.00000000000E+00 0.  1.
</event>
<event>
12    1  0.8633375E-002  0.2028100E+03  0.7818608E-02  0.1148117E+00
         21   -1    0    0  501  502  0.00000000000E+00  0.00000000000E+00  0.18149881631E+03  0.18149881631E+03  0.00000000000E+00 0.  1.
         21   -1    0    0  502  503 -0.00000000000E+00 -0.00000000000E+00 -0.26009082173E+03  0.26009082173E+03  0.00000000000E+00 0.  1.
         -6    2    1    2    0  503 -0.33681963005E+02  0.93609792096E+02 -0.12324437213E+03  0.23732060761E+03  0.17673321059E+03 0.  0.
        -24    2    3    3    0    0 -0.86934478495E+02  0.48702632655E+02 -0.54755044961E+02  0.13951794245E+03  0.80855372975E+02 0.  0.
          6    2    1    2  501    0  0.33681963005E+02 -0.93609792096E+02  0.44652366702E+02  0.20426903044E+03  0.17272734333E+03 0.  0.
         24    2    5    5    0    0 -0.39485494478E+02 -0.42099912804E+02  0.55178632128E+02  0.11404909493E+03  0.81430999491E+02 0.  0.
          5    1    5    5  501    0  0.73167457483E+02 -0.51509879292E+02 -0.10526265426E+02  0.90219935508E+02  0.47000000000E+01 0. -1.
        -13    1    6    6    0    0 -0.72135692909E+00 -0.54425022832E+02  0.14072978322E+02  0.56219677916E+02  0.00000000000E+00 0.  1.
         14    1    6    6    0    0 -0.38764137549E+02  0.12325110029E+02  0.41105653806E+02  0.57829417013E+02  0.00000000000E+00 0. -1.
         -5    1    3    3    0  503  0.53252515490E+02  0.44907159441E+02 -0.68489327167E+02  0.97802665152E+02  0.47000000000E+01 0.  1.
         11    1    4    4    0    0 -0.65544950911E+02  0.52941521207E+02 -0.72694874377E+02  0.11128113056E+03  0.00000000000E+00 0. -1.
        -12    1    4    4    0    0 -0.21389527584E+02 -0.42388885525E+01  0.17939829417E+02  0.28236811894E+02  0.00000000000E+00 0.  1.
</event>
<event>
12    1  0.8633375E-002  0.2214097E+03  0.7818608E-02  0.1132854E+00
         21   -1    0    0  503  502  0.00000000000E+00  0.00000000000E+00  0.18451741103E+04  0.18451741103E+04  0.00000000000E+00 0.  1.
         21   -1    0    0  501  503 -0.00000000000E+00 -0.00000000000E+00 -0.46043527104E+02  0.46043527104E+02  0.00000000000E+00 0.  1.
          6    2    1    2  501    0 -0.49100837988E+02 -0.12984788168E+03  0.28449840599E+03  0.36050188638E+03  0.17248449902E+03 0.  0.
         24    2    3    3    0    0  0.16156010247E+02 -0.10702890092E+03  0.98475829930E+02  0.16199331999E+03  0.69484849729E+02 0.  0.
         -6    2    1    2    0  502  0.49100837988E+02  0.12984788168E+03  0.15146321772E+04  0.15307157510E+04  0.17236215809E+03 0.  0.
        -24    2    5    5    0    0  0.40335504563E+02  0.86014847418E+02  0.14256468460E+04  0.14310229974E+04  0.79576268910E+02 0.  0.
          5    1    3    3  501    0 -0.65256848235E+02 -0.22818980755E+02  0.18602257606E+03  0.19850856638E+03  0.47000000000E+01 0. -1.
        -11    1    4    4    0    0 -0.53850541675E+00 -0.17635676404E+02 -0.10127572630E+02  0.20343913038E+02  0.00000000000E+00 0.  1.
         12    1    4    4    0    0  0.16694515664E+02 -0.89393224519E+02  0.10860340256E+03  0.14164940695E+03  0.00000000000E+00 0. -1.
         -5    1    5    5    0  502  0.87653334245E+01  0.43833034260E+02  0.88985331204E+02  0.99692753659E+02  0.47000000000E+01 0.  1.
         11    1    6    6    0    0  0.29444072699E+02 -0.34919779571E+01  0.21681441152E+03  0.21883243902E+03  0.00000000000E+00 0. -1.
        -12    1    6    6    0    0  0.10891431865E+02  0.89506825375E+02  0.12088324345E+04  0.12121905583E+04  0.00000000000E+00 0.  1.
</event>
<event>
12    1  0.8633375E-002  0.1957705E+03  0.7818608E-02  0.1153369E+00
         21   -1    0    0  501  502  0.00000000000E+00  0.00000000000E+00  0.18787377811E+03  0.18787377811E+03  0.00000000000E+00 0.  1.
         21   -1    0    0  502  503 -0.00000000000E+00 -0.00000000000E+00 -0.24605980099E+03  0.24605980099E+03  0.00000000000E+00 0.  1.
         -6    2    1    2    0  503 -0.81481775679E+02 -0.46550662038E+02 -0.11885200437E+03  0.22897886430E+03  0.17175353693E+03 0.  0.
        -24    2    3    3    0    0 -0.45439728193E+02 -0.54743839754E+02 -0.14733561430E+03  0.18207936129E+03  0.79896518557E+02 0.  0.
          6    2    1    2  501    0  0.81481775679E+02  0.46550662038E+02  0.60665981492E+02  0.20495471480E+03  0.17181335776E+03 0.  0.
         24    2    5    5    0    0  0.61607638636E+02 -0.11831838888E+02  0.89230639417E+02  0.13682595861E+03  0.82605946456E+02 0.  0.
          5    1    5    5  501    0  0.19874137044E+02  0.58382500926E+02 -0.28564657925E+02  0.68128756190E+02  0.47000000000E+01 0. -1.
        -13    1    6    6    0    0  0.42982318966E+02  0.30027686734E+02  0.69205220996E+02  0.86824560623E+02  0.00000000000E+00 0.  1.
         14    1    6    6    0    0  0.18625319669E+02 -0.41859525621E+02  0.20025418421E+02  0.50001397990E+02  0.00000000000E+00 0. -1.
         -5    1    3    3    0  503 -0.36042047486E+02  0.81931777155E+01  0.28483609929E+02  0.46899503011E+02  0.47000000000E+01 0.  1.
         11    1    4    4    0    0 -0.38903343308E+02 -0.15633266385E+02 -0.13374380567E+03  0.14016160206E+03  0.00000000000E+00 0. -1.
        -12    1    4    4    0    0 -0.65363848853E+01 -0.39110573369E+02 -0.13591808630E+02  0.41917759225E+02  0.00000000000E+00 0.  1.
</event>
<event>
12    1  0.8633375E-002  0.2144275E+03  0.7818608E-02  0.1138172E+00
         21   -1    0    0  503  502  0.00000000000E+00  0.00000000000E+00  0.43930174208E+03  0.43930174208E+03  0.00000000000E+00 0. -1.
         21   -1    0    0  501  503 -0.00000000000E+00 -0.00000000000E+00 -0.11871666754E+03  0.11871666754E+03  0.00000000000E+00 0. -1.
          6    2    1    2  501    0 -0.10164452639E+03  0.76026726024E+02  0.63626440346E+02  0.22334409489E+03  0.17240240136E+03 0.  0.
         24    2    3    3    0    0 -0.84218747315E+02 -0.82066380337E+01 -0.32324766655E+01  0.11429767275E+03  0.76768240721E+02 0.  0.
         -6    2    1    2    0  502  0.10164452639E+03 -0.76026726024E+02  0.25695863420E+03  0.33467431474E+03  0.17282211791E+03 0.  0.
        -24    2    5    5    0    0  0.51265024184E+02 -0.17655229913E+01  0.37882821443E+02  0.97885121037E+02  0.74264183722E+02 0.  0.
          5    1    3    3  501    0 -0.17425779076E+02  0.84233364058E+02  0.66858917012E+02  0.10904642214E+03  0.47000000000E+01 0. -1.
        -13    1    4    4    0    0 -0.66890727272E+02  0.16709962842E+02 -0.28697205253E+02  0.74680130172E+02  0.00000000000E+00 0.  1.
         14    1    4    4    0    0 -0.17328020043E+02 -0.24916600876E+02  0.25464728588E+02  0.39617542578E+02  0.00000000000E+00 0. -1.
         -5    1    5    5    0  502  0.50379502207E+02 -0.74261203033E+02  0.21907581275E+03  0.23678919370E+03  0.47000000000E+01 0.  1.
         11    1    6    6    0    0  0.64611128941E+02 -0.51051592458E+01  0.48131442987E+02  0.80729774173E+02  0.00000000000E+00 0. -1.
        -12    1    6    6    0    0 -0.13346104756E+02  0.33396362545E+01 -0.10248621544E+02  0.17155346864E+02  0.00000000000E+00 0.  1.
</event>
<event>
12    1  0.8633375E-002  0.2322663E+03  0.7818608E-02  0.1125138E+00
         21   -1    0    0  501  502  0.00000000000E+00  0.00000000000E+00  0.75382654025E+02  0.75382654025E+02  0.00000000000E+00 0.  1.
         21   -1    0    0  502  503 -0.00000000000E+00 -0.00000000000E+00 -0.95823803699E+03  0.95823803699E+03  0.00000000000E+00 0. -1.
         -6    2    1    2    0  503 -0.44424895735E+02  0.14905707801E+03 -0.70191228539E+03  0.73919234090E+03  0.17185132120E+03 0.  0.
        -24    2    3    3    0    0 -0.89492196225E+02  0.14274094941E+03 -0.56562261651E+03  0.59542892797E+03  0.78884929682E+02 0.  0.
          6    2    1    2  501    0  0.44424895735E+02 -0.14905707801E+03 -0.18094309757E+03  0.29442835011E+03  0.17249946355E+03 0.  0.
         24    2    5    5    0    0  0.13267134592E+02 -0.15818989893E+03 -0.10017232100E+03  0.20724909314E+03  0.87850052534E+02 0.  0.
          5    1    5    5  501    0  0.31157761143E+02  0.91328209241E+01 -0.80770776576E+02  0.87179256972E+02  0.47000000000E+01 0. -1.
        -13    1    6    6    0    0  0.86870046209E+01 -0.76350878527E+02  0.12397714186E+01  0.76853482252E+02  0.00000000000E+00 0.  1.
         14    1    6    6    0    0  0.45801299709E+01 -0.81839020404E+02 -0.10141209242E+03  0.13039561089E+03  0.00000000000E+00 0. -1.
         -5    1    3    3    0  503  0.45067300490E+02  0.63161285965E+01 -0.13628966888E+03  0.14376341293E+03  0.47000000000E+01 0.  1.
         11    1    4    4    0    0  0.17229524605E+00  0.62066254833E+02 -0.24876221503E+03  0.25638816139E+03  0.00000000000E+00 0. -1.
        -12    1    4    4    0    0 -0.89664491471E+02  0.80674694577E+02 -0.31686040148E+03  0.33904076658E+03  0.00000000000E+00 0.  1.
</event>
<event>
12    1  0.8633375E-002  0.1737488E+03  0.7818608E-02  0.1174975E+00
         21   -1    0    0  503  502  0.00000000000E+00  0.00000000000E+00  0.59079108400E+02  0.59079108400E+02  0.00000000000E+00 0. -1.
         21   -1    0    0  501  503 -0.00000000000E+00 -0.00000000000E+00 -0.81303884603E+03  0.81303884603E+03  0.00000000000E+00 0. -1.
          6    2    1    2  501    0  0.11595454020E+02 -0.11666025213E+02 -0.64505291483E+03  0.66705856200E+03  0.16912513566E+03 0.  0.
         24    2    3    3    0    0  0.61011891305E+02 -0.34897569939E+02 -0.51212840832E+03  0.52327850992E+03  0.81268696767E+02 0.  0.
         -6    2    1    2    0  502 -0.11595454020E+02  0.11666025213E+02 -0.10890682280E+03  0.20505939243E+03  0.17296851642E+03 0.  0.
        -24    2    5    5    0    0 -0.43879792320E+02 -0.46572089792E+02 -0.89888297983E+02  0.13564937280E+03  0.78907860856E+02 0.  0.
          5    1    3    3  501    0 -0.49416437284E+02  0.23231544725E+02 -0.13292450651E+03  0.14378005208E+03  0.47000000000E+01 0. -1.
        -13    1    4    4    0    0  0.34291188977E+02 -0.51209139834E+02 -0.19260175402E+03  0.20222190112E+03  0.00000000000E+00 0.  1.
         14    1    4    4    0    0  0.26720702327E+02  0.16311569895E+02 -0.31952665430E+03  0.32105660880E+03  0.00000000000E+00 0. -1.
         -5    1    5    5    0  502  0.32284338299E+02  0.58238115005E+02 -0.19018524819E+02  0.69410019630E+02  0.47000000000E+01 0.  1.
         11    1    6    6    0    0  0.14567872550E+02  0.11820590413E+02 -0.20163585034E+02  0.27541231450E+02  0.00000000000E+00 0. -1.
        -12    1    6    6    0    0 -0.58447664869E+02 -0.58392680206E+02 -0.69724712949E+02  0.10810814135E+03  0.00000000000E+00 0.  1.
</event>
<event>
12    1  0.8633375E-002  0.1749629E+03  0.7818608E-02  0.1173184E+00
         21   -1    0    0  501  502  0.00000000000E+00  0.00000000000E+00  0.17034506308E+03  0.17034506308E+03  0.00000000000E+00 0.  1.
         21   -1    0    0  502  503 -0.00000000000E+00 -0.00000000000E+00 -0.17869546171E+03  0.17869546171E+03  0.00000000000E+00 0.  1.
         -6    2    1    2    0  503  0.31417008849E+02  0.13749413580E+01 -0.14872200380E+02  0.17395612132E+03  0.17044245625E+03 0.  0.
        -24    2    3    3    0    0 -0.95630940369E+01 -0.74360289021E+01  0.49754244670E+02  0.96783137521E+02  0.82126387674E+02 0.  0.
          6    2    1    2  501    0 -0.31417008849E+02 -0.13749413580E+01  0.65218017524E+01  0.17508440347E+03  0.17211361227E+03 0.  0.
         24    2    5    5    0    0 -0.41943596731E+02 -0.63062340360E+02 -0.11337975343E+02  0.10983713620E+03  0.78737047981E+02 0.  0.
          5    1    5    5  501    0  0.10526587882E+02  0.61687399002E+02  0.17859777096E+02  0.65247267268E+02  0.47000000000E+01 0. -1.
        -13    1    6    6    0    0 -0.25713852610E+02 -0.74484330989E+02  0.11442344698E+02  0.79624399722E+02  0.00000000000E+00 0.  1.
         14    1    6    6    0    0 -0.16229744120E+02  0.11421990629E+02 -0.22780320041E+02  0.30212736475E+02  0.00000000000E+00 0. -1.
         -5    1    3    3    0  503  0.40980102886E+02  0.88109702601E+01 -0.64626445049E+02  0.77172983803E+02  0.47000000000E+01 0.  1.
         11    1    4    4    0    0  0.20245112573E+02 -0.36253679868E+02  0.26216814408E+02  0.49107181193E+02  0.00000000000E+00 0. -1.
        -12    1    4    4    0    0 -0.29808206610E+02  0.28817650966E+02  0.23537430262E+02  0.47675956328E+02  0.00000000000E+00 0.  1.
</event>
<event>
12    1  0.8633375E-002  0.1867827E+03  0.7818608E-02  0.1162861E+00
         21   -1    0    0  503  502  0.00000000000E+00  0.00000000000E+00  0.10070474695E+03  0.10070474695E+03  0.00000000000E+00 0.  1.
         21   -1    0    0  501  503 -0.00000000000E+00 -0.00000000000E+00 -0.33685010887E+03  0.33685010887E+03  0.00000000000E+00 0.  1.
          6    2    1    2  501    0 -0.68091654223E+02  0.16096310588E+02 -0.13646967396E+03  0.23132607941E+03  0.17318261608E+03 0.  0.
         24    2    3    3    0    0 -0.18607488090E+02  0.33672120931E+02  0.65766144008E+01  0.78873062310E+02  0.68539461335E+02 0.  0.
         -6    2    1    2    0  502  0.68091654223E+02 -0.16096310588E+02 -0.99675687957E+02  0.20622877642E+03  0.16643167025E+03 0.  0.
        -24    2    5    5    0    0 -0.12729204474E+02  0.32175904011E+02 -0.41399583487E+02  0.95411754912E+02  0.78690253635E+02 0.  0.
          5    1    3    3  501    0 -0.49484166133E+02 -0.17575810343E+02 -0.14304628837E+03  0.15245301710E+03  0.47000000000E+01 0. -1.
        -11    1    4    4    0    0 -0.41441055951E+02  0.26508225565E+02 -0.94202062349E+01  0.50087797181E+02  0.00000000000E+00 0.  1.
         12    1    4    4    0    0  0.22833567861E+02  0.71638953663E+01  0.15996820636E+02  0.28785265129E+02  0.00000000000E+00 0. -1.
         -5    1    5    5    0  502  0.80820858697E+02 -0.48272214599E+02 -0.58276104470E+02  0.11081702150E+03  0.47000000000E+01 0.  1.
         11    1    6    6    0    0 -0.24465789371E+02  0.47080883551E+02 -0.36748219923E+01  0.53185418699E+02  0.00000000000E+00 0. -1.
        -12    1    6    6    0    0  0.11736584897E+02 -0.14904979541E+02 -0.37724761494E+02  0.42226336213E+02  0.00000000000E+00 0.  1.
</event>
<event>
12    1  0.8633375E-002  0.2181256E+03  0.7818608E-02  0.1135383E+00
         21   -1    0    0  503  502  0.00000000000E+00  0.00000000000E+00  0.17946161084E+03  0.17946161084E+03  0.00000000000E+00 0. -1.
         21   -1    0    0  501  503 -0.00000000000E+00 -0.00000000000E+00 -0.65382452859E+03  0.65382452859E+03  0.00000000000E+00 0. -1.
          6    2    1    2  501    0  0.34570366709E+02  0.12959098664E+03 -0.55879257509E+03  0.59985659629E+03  0.17201703421E+03 0.  0.
         24    2    3    3    0    0  0.71453960310E+02  0.34233063483E+02 -0.27670931572E+03  0.29977895933E+03  0.83796228847E+02 0.  0.
         -6    2    1    2    0  502 -0.34570366709E+02 -0.12959098664E+03  0.84429657344E+02  0.23342954314E+03  0.17138276021E+03 0.  0.
        -24    2    5    5    0    0  0.95296278647E+01 -0.12754036757E+03  0.14893543674E+02  0.15092878154E+03  0.78742112545E+02 0.  0.
          5    1    3    3  501    0 -0.36883593601E+02  0.95357923157E+02 -0.28208325937E+03  0.30007763696E+03  0.47000000000E+01 0. -1.
        -11    1    4    4    0    0 -0.95771100693E+01  0.24511474995E+02 -0.29925836463E+02  0.39850836023E+02  0.00000000000E+00 0.  1.
         12    1    4    4    0    0  0.81031070379E+02  0.97215884880E+01 -0.24678347926E+03  0.25992812331E+03  0.00000000000E+00 0. -1.
         -5    1    5    5    0  502 -0.44099994574E+02 -0.20506190734E+01  0.69536113670E+02  0.82500761599E+02  0.47000000000E+01 0.  1.
         11    1    6    6    0    0  0.41595769732E+02 -0.46437443711E+02  0.13067379100E+02  0.63697728645E+02  0.00000000000E+00 0. -1.
        -12    1    6    6    0    0 -0.32066141868E+02 -0.81102923856E+02  0.18261645733E+01  0.87231052896E+02  0.00000000000E+00 0.  1.
</event>
<event>
12    1  0.8633375E-002  0.1781574E+03  0.7818608E-02  0.1169761E+00
         21   -1    0    0  501  502  0.00000000000E+00  0.00000000000E+00  0.99376786322E+03  0.99376786322E+03  0.00000000000E+00 0.  1.
         21   -1    0    0  502  503 -0.00000000000E+00 -0.00000000000E+00 -0.31865347483E+02  0.31865347483E+02  0.00000000000E+00 0.  1.
         -6    2    1    2    0  503 -0.44844899026E+02 -0.28712397989E+01  0.46267349128E+03  0.49578907947E+03  0.17239704987E+03 0.  0.
        -24    2    3    3    0    0 -0.29372319258E+02 -0.32398366486E+02  0.45105533096E+03  0.46017554855E+03  0.79988978039E+02 0.  0.
          6    2    1    2  501    0  0.44844899026E+02  0.28712397989E+01  0.49922902446E+03  0.52984413124E+03  0.17171451760E+03 0.  0.
         24    2    5    5    0    0 -0.33722986716E+02  0.36877236397E+02  0.25047372863E+03  0.26672703244E+03  0.76870349962E+02 0.  0.
          5    1    5    5  501    0  0.78567885742E+02 -0.34005996598E+02  0.24875529583E+03  0.26311709880E+03  0.47000000000E+01 0. -1.
        -13    1    6    6    0    0  0.24792925528E+02  0.10587819867E+02  0.88400136013E+02  0.92419560337E+02  0.00000000000E+00 0.  1.
         14    1    6    6    0    0 -0.58515912244E+02  0.26289416530E+02  0.16207359262E+03  0.17430747210E+03  0.00000000000E+00 0. -1.
         -5    1    3    3    0  503 -0.15472579768E+02  0.29527126687E+02  0.11618160315E+02  0.35613530914E+02  0.47000000000E+01 0.  1.
         13    1    4    4    0    0  0.12689217722E+02 -0.28529785215E+02  0.68327804712E+02  0.75124255654E+02  0.00000000000E+00 0. -1.
        -14    1    4    4    0    0 -0.42061536980E+02 -0.38685812710E+01  0.38272752625E+03  0.38505129290E+03  0.00000000000E+00 0.  1.
</event>
<event>
12    1  0.8633375E-002  0.1912535E+03  0.7818608E-02  0.1157564E+00
         21   -1    0    0  503  502  0.00000000000E+00  0.00000000000E+00  0.22032792795E+03  0.22032792795E+03  0.00000000000E+00 0.  1.
         21   -1    0    0  501  503 -0.00000000000E+00 -0.00000000000E+00 -0.19492840279E+03  0.19492840279E+03  0.00000000000E+00 0.  1.
          6    2    1    2  501    0  0.71095088456E+02 -0.42867617861E+02 -0.68446840358E+02  0.20313260612E+03  0.17229550618E+03 0.  0.
         24    2    3    3    0    0  0.58079739440E+02 -0.74022163461E+02 -0.10284726145E+03  0.15470240900E+03  0.67102454090E+02 0.  0.
         -6    2    1    2    0  502 -0.71095088456E+02  0.42867617861E+02  0.93846365514E+02  0.21212372462E+03  0.17116421928E+03 0.  0.
        -24    2    5    5    0    0  0.15313400095E+02 -0.18104024146E+02  0.53198518069E+02  0.98729255952E+02  0.79719055084E+02 0.  0.
          5    1    3    3  501    0  0.13015349017E+02  0.31154545600E+02  0.34400421093E+02  0.48430197118E+02  0.47000000000E+01 0. -1.
        -11    1    4    4    0    0  0.36454832078E+02 -0.35382313962E+02 -0.97707674705E+02  0.11012562199E+03  0.00000000000E+00 0.  1.
         12    1    4    4    0    0  0.21624907361E+02 -0.38639849499E+02 -0.51395867457E+01  0.44576787004E+02  0.00000000000E+00 0. -1.
         -5    1    5    5    0  502 -0.86408488551E+02  0.60971642007E+02  0.40647847446E+02  0.11339446867E+03  0.47000000000E+01 0.  1.
         13    1    6    6    0    0  0.20734019386E+02  0.18421024523E+02 -0.65439451803E+01  0.28496612482E+02  0.00000000000E+00 0. -1.
        -14    1    6    6    0    0 -0.54206192917E+01 -0.36525048669E+02  0.59742463249E+02  0.70232643471E+02  0.00000000000E+00 0.  1.
</event>
<event>
12    1  0.8633375E-002  0.1833222E+03  0.7818608E-02  0.1164665E+00
         21   -1    0    0  501  502  0.00000000000E+00  0.00000000000E+00  0.15417577691E+04  0.15417577691E+04  0.00000000000E+00 0.  1.
         21   -1    0    0  502  503 -0.00000000000E+00 -0.00000000000E+00 -0.28136384107E+02  0.28136384107E+02  0.00000000000E+00 0. -1.
         -6    2    1    2    0  503  0.61771864402E+02  0.12585677120E+02  0.38393899132E+03  0.42545996131E+03  0.17214199698E+03 0.  0.
        -24    2    3    3    0    0 -0.95339981564E+01 -0.41656585207E+02  0.23626788286E+03  0.25267224378E+03  0.78705667468E+02 0.  0.
          6    2    1    2  501    0 -0.61771864402E+02 -0.12585677120E+02  0.11296823936E+04  0.11444341918E+04  0.17196844625E+03 0.  0.
         24    2    5    5    0    0  0.28338035205E+02 -0.61853402885E+00  0.70341785093E+03  0.70855971808E+03  0.80354055652E+02 0.  0.
          5    1    5    5  501    0 -0.90109899607E+02 -0.11967143091E+02  0.42626454269E+03  0.43587447376E+03  0.47000000000E+01 0. -1.
        -11    1    6    6    0    0 -0.26847124020E+02 -0.34726040846E+01  0.15313891339E+03  0.15551319507E+03  0.00000000000E+00 0.  1.
         12    1    6    6    0    0  0.55185159226E+02  0.28540700557E+01  0.55027893754E+03  0.55304652301E+03  0.00000000000E+00 0. -1.
         -5    1    3    3    0  503  0.71305862558E+02  0.54242262326E+02  0.14767110846E+03  0.17278771754E+03  0.47000000000E+01 0.  1.
         11    1    4    4    0    0  0.82606418620E+01 -0.16210595709E+02  0.43788165437E+01  0.18713515210E+02  0.00000000000E+00 0. -1.
        -12    1    4    4    0    0 -0.17794640018E+02 -0.25445989498E+02  0.23188906632E+03  0.23395872857E+03  0.00000000000E+00 0.  1.
</event>
<event>
12    1  0.8633375E-002  0.2261439E+03  0.7818608E-02  0.1129464E+00
         21   -1    0    0  501  502  0.00000000000E+00  0.00000000000E+00  0.83954052098E+02  0.83954052098E+02  0.00000000000E+00 0. -1.
         21   -1    0    0  502  503 -0.00000000000E+00 -0.00000000000E+00 -0.17859829519E+04  0.17859829519E+04  0.00000000000E+00 0. -1.
         -6    2    1    2    0  503  0.71014848101E+02 -0.12858291184E+03 -0.16106367002E+04  0.16264352604E+04  0.17194302118E+03 0.  0.
        -24    2    3    3    0    0  0.88461250331E+01 -0.21574543471E+02 -0.34211413328E+03  0.35188148214E+03  0.78960638456E+02 0.  0.
          6    2    1    2  501    0 -0.71014848101E+02  0.12858291184E+03 -0.91392199586E+02  0.24350174353E+03  0.17135895393E+03 0.  0.
         24    2    5    5    0    0  0.22886396130E+01  0.47224704462E+02 -0.96727340309E+02  0.13376062569E+03  0.79374530171E+02 0.  0.
          5    1    5    5  501    0 -0.73303487714E+02  0.81358207374E+02  0.53351407232E+01  0.10974111784E+03  0.47000000000E+01 0. -1.
        -13    1    6    6    0    0  0.71055157756E+01  0.35554865729E+02 -0.45467957749E-01  0.36257949457E+02  0.00000000000E+00 0.  1.
         14    1    6    6    0    0 -0.48168761626E+01  0.11669838733E+02 -0.96681872351E+02  0.97502676237E+02  0.00000000000E+00 0. -1.
         -5    1    3    3    0  503  0.62168723068E+02 -0.10700836837E+03 -0.12685225669E+04  0.12745537783E+04  0.47000000000E+01 0.  1.
         11    1    4    4    0    0 -0.10946417447E+02 -0.22525464821E+02 -0.32420901872E+03  0.32517488901E+03  0.00000000000E+00 0. -1.
        -12    1    4    4    0    0  0.19792542480E+02  0.95092135001E+00 -0.17905114564E+02  0.26706593133E+02  0.00000000000E+00 0.  1.
</event>
<event>
12    1  0.8633375E-002  0.2508722E+03  0.7818608E-02  0.1113953E+00
         21   -1    0    0  501  502  0.00000000000E+00  0.00000000000E+00  0.45472987807E+03  0.45472987807E+03  0.00000000000E+00 0. -1.
         21   -1    0    0  502  503 -0.00000000000E+00 -0.00000000000E+00 -0.16387830820E+03  0.16387830820E+03  0.00000000000E+00 0. -1.
         -6    2    1    2    0  503 -0.15400991394E+03 -0.76814326937E+02  0.12229778974E+02  0.24368557543E+03  0.17208601850E+03 0.  0.
        -24    2    3    3    0    0 -0.14263803472E+03 -0.61058971812E+00  0.13646752273E+02  0.16648177360E+03  0.84758275851E+02 0.  0.
          6    2    1    2  501    0  0.15400991394E+03  0.76814326937E+02  0.27862179090E+03  0.37492261084E+03  0.18253045593E+03 0.  0.
         24    2    5    5    0    0  0.14378382716E+02  0.76305707078E+02  0.11198916790E+03  0.15746975560E+03  0.78904064400E+02 0.  0.
          5    1    5    5  501    0  0.13963153123E+03  0.50861985906E+00  0.16663262300E+03  0.21745285525E+03  0.47000000000E+01 0. -1.
        -11    1    6    6    0    0 -0.25205960441E+02  0.46085234191E+02  0.27239653976E+02  0.59170837420E+02  0.00000000000E+00 0.  1.
         12    1    6    6    0    0  0.39584343157E+02  0.30220472887E+02  0.84749513921E+02  0.98298918176E+02  0.00000000000E+00 0. -1.
         -5    1    3    3    0  503 -0.11371879221E+02 -0.76203737219E+02 -0.14169732992E+01  0.77203801826E+02  0.47000000000E+01 0.  1.
         11    1    4    4    0    0 -0.11516020773E+03 -0.27272605333E+02 -0.14121598574E+02  0.11918509971E+03  0.00000000000E+00 0. -1.
        -12    1    4    4    0    0 -0.27477826993E+02  0.26662015614E+02  0.27768350848E+02  0.47296673897E+02  0.00000000000E+00 0.  1.
</event>
<event>
12    1  0.8633375E-002  0.1771217E+03  0.7818608E-02  0.1170670E+00
         21   -1    0    0  503  502  0.00000000000E+00  0.00000000000E+00  0.35999005344E+03  0.35999005344E+03  0.00000000000E+00 0.  1.
         21   -1    0    0  501  503 -0.00000000000E+00 -0.00000000000E+00 -0.31300239729E+03  0.31300239729E+03  0.00000000000E+00 0.  1.
          6    2    1    2  501    0 -0.11632735784E+02 -0.40012277900E+02 -0.26240638893E+03  0.31658999142E+03  0.17215053527E+03 0.  0.
         24    2    3    3    0    0 -0.70197141779E+02 -0.90419597906E+00 -0.16091073698E+03  0.19296681768E+03  0.80096636420E+02 0.  0.
         -6    2    1    2    0  502  0.11632735784E+02  0.40012277900E+02  0.30939404508E+03  0.35640245931E+03  0.17193526383E+03 0.  0.
        -24    2    5    5    0    0  0.66711483348E+02  0.34956396990E+01  0.20536919465E+03  0.23307203806E+03  0.87655161331E+02 0.  0.
          5    1    3    3  501    0  0.58564405995E+02 -0.39108081921E+02 -0.10149565195E+03  0.12362317374E+03  0.47000000000E+01 0. -1.
        -11    1    4    4    0    0 -0.29062343758E+02  0.22570447303E+02 -0.13299185756E+03  0.13798869191E+03  0.00000000000E+00 0.  1.
         12    1    4    4    0    0 -0.41134798021E+02 -0.23474643282E+02 -0.27918879414E+02  0.54978125770E+02  0.00000000000E+00 0. -1.
         -5    1    5    5    0  502 -0.55078747564E+02  0.36516638201E+02  0.10402485043E+03  0.12333042125E+03  0.47000000000E+01 0.  1.
         13    1    6    6    0    0  0.42101909706E+02 -0.41351247362E+02  0.11317807865E+03  0.12763923357E+03  0.00000000000E+00 0. -1.
        -14    1    6    6    0    0  0.24609573642E+02  0.44846887061E+02  0.92191115999E+02  0.10543280449E+03  0.00000000000E+00 0.  1.
</event>
<event>
12    1  0.8633375E-002  0.2134368E+03  0.7818608E-02  0.1142553E+00
         21   -1    0    0  503  502  0.00000000000E+00  0.00000000000E+00  0.74540914733E+03  0.74540914733E+03  0.00000000000E+00 0. -1.
         21   -1    0    0  501  503 -0.00000000000E+00 -0.00000000000E+00 -0.63835000871E+02  0.63835000871E+02  0.00000000000E+00 0.  1.
          6    2    1    2  501    0 -0.69739223653E+02 -0.59853125159E+02  0.18626476968E+03  0.26990505830E+03  0.17236072686E+03 0.  0.
         24    2    3    3    0    0 -0.78710639173E+02 -0.22327510202E+01  0.17891173213E+03  0.21094107800E+03  0.79286698732E+02 0.  0.
         -6    2    1    2    0  502  0.69739223653E+02  0.59853125159E+02  0.49530937678E+03  0.53933908990E+03  0.19263779293E+03 0.  0.
        -24    2    5    5    0    0  0.52610742215E+02 -0.33433941004E+02  0.35976168814E+03  0.37383643891E+03  0.80246446631E+02 0.  0.
          5    1    3    3  501    0  0.89714155203E+01 -0.57620374139E+02  0.73530375516E+01  0.58963980306E+02  0.47000000000E+01 0. -1.
        -11    1    4    4    0    0 -0.66697016732E+02 -0.27178491947E+02  0.77419854823E+02  0.10574023069E+03  0.00000000000E+00 0.  1.
         12    1    4    4    0    0 -0.12013622442E+02  0.24945740927E+02  0.10149187731E+03  0.10520084731E+03  0.00000000000E+00 0. -1.
         -5    1    5    5    0  502  0.17128481438E+02  0.93287066163E+02  0.13554768864E+03  0.16550265099E+03  0.47000000000E+01 0.  1.
         13    1    6    6    0    0  0.47622046019E+00  0.19104441836E+02  0.15373044281E+03  0.15491370349E+03  0.00000000000E+00 0. -1.
        -14    1    6    6    0    0  0.52134521755E+02 -0.52538382841E+02  0.20603124533E+03  0.21892273542E+03  0.00000000000E+00 0.  1.
</event>
<event>
12    1  0.8633375E-002  0.1784593E+03  0.7818608E-02  0.1169362E+00
         21   -1    0    0  503  502  0.00000000000E+00  0.00000000000E+00  0.27572525891E+02  0.27572525891E+02  0.00000000000E+00 0.  1.
         21   -1    0    0  501  503 -0.00000000000E+00 -0.00000000000E+00 -0.20623168121E+04  0.20623168121E+04  0.00000000000E+00 0.  1.
          6    2    1    2  501    0  0.33878817958E+02 -0.32508371664E+02 -0.17114417541E+04  0.17207209520E+04  0.17217185735E+03 0.  0.
         24    2    3    3    0    0  0.30249044237E+02  0.20345653934E+02 -0.46243186596E+03  0.47057915447E+03  0.79199492765E+02 0.  0.
         -6    2    1    2    0  502 -0.33878817958E+02  0.32508371664E+02 -0.32330253217E+03  0.36916838604E+03  0.17191917116E+03 0.  0.
        -24    2    5    5    0    0 -0.48012163104E+02  0.34737371705E+02 -0.33534464942E+03  0.34988568722E+03  0.80325011205E+02 0.  0.
          5    1    3    3  501    0  0.36297737215E+01 -0.52854025597E+02 -0.12490098881E+04  0.12501417975E+04  0.47000000000E+01 0. -1.
        -13    1    4    4    0    0  0.18752134903E+02  0.22553763500E+02 -0.49905691430E+02  0.57886897036E+02  0.00000000000E+00 0.  1.
         14    1    4    4    0    0  0.11496909334E+02 -0.22081095662E+01 -0.41252617453E+03  0.41269225743E+03  0.00000000000E+00 0. -1.
         -5    1    5    5    0  502  0.14133345146E+02 -0.22290000410E+01  0.12042117251E+02  0.19282698828E+02  0.47000000000E+01 0.  1.
         13    1    6    6    0    0 -0.85084196644E+01  0.37549257124E+02 -0.57292789717E+02  0.69027557319E+02  0.00000000000E+00 0. -1.
        -14    1    6    6    0    0 -0.39503743440E+02 -0.28118854196E+01 -0.27805185970E+03  0.28085812990E+03  0.00000000000E+00 0.  1.
</event>
<event>
12    1  0.8633375E-002  0.2115422E+03  0.7818608E-02  0.1141029E+00
         21   -1    0    0  501  502  0.00000000000E+00  0.00000000000E+00  0.37677515648E+03  0.37677515648E+03  0.00000000000E+00 0.  1.
         21   -1    0    0  502  503 -0.00000000000E+00 -0.00000000000E+00 -0.11701689258E+03  0.11701689258E+03  0.00000000000E+00 0.  1.
         -6    2    1    2    0  503 -0.12516065236E+03  0.68582451163E+01  0.11960113868E+03  0.24003208911E+03  0.16612870615E+03 0.  0.
        -24    2    3    3    0    0 -0.11715777216E+03  0.58251147402E+02  0.10333494119E+03  0.18533331694E+03  0.80939412807E+02 0.  0.
          6    2    1    2  501    0  0.12516065236E+03 -0.68582451163E+01  0.14015712522E+03  0.25375995995E+03  0.17040502663E+03 0.  0.
         24    2    5    5    0    0  0.13405748464E+03 -0.34952897019E+02  0.15258153555E+03  0.22143475211E+03  0.80988334040E+02 0.  0.
          5    1    5    5  501    0 -0.88968322848E+01  0.28094651903E+02 -0.12424410331E+02  0.32325207846E+02  0.47000000000E+01 0. -1.
        -13    1    6    6    0    0  0.30027424966E+02 -0.28857146186E+02  0.91777202280E+02  0.10078410586E+03  0.00000000000E+00 0.  1.
         14    1    6    6    0    0  0.10403005968E+03 -0.60957508332E+01  0.60804333272E+02  0.12065064625E+03  0.00000000000E+00 0. -1.
         -5    1    3    3    0  503 -0.80028802042E+01 -0.51392902286E+02  0.16266197484E+02  0.54698772175E+02  0.47000000000E+01 0.  1.
         13    1    4    4    0    0 -0.31496980637E+02  0.30058312015E+02  0.81725781346E+02  0.92599488373E+02  0.00000000000E+00 0. -1.
        -14    1    4    4    0    0 -0.85660791518E+02  0.28192835387E+02  0.21609159846E+02  0.92733828563E+02  0.00000000000E+00 0.  1.
</event>
<event>
12    1  0.8633375E-002  0.1777845E+03  0.7818608E-02  0.1170238E+00
         21   -1    0    0  501  502  0.00000000000E+00  0.00000000000E+00  0.16933095781E+04  0.16933095781E+04  0.00000000000E+00 0.  1.
         21   -1    0    0  502  503 -0.00000000000E+00 -0.00000000000E+00 -0.38270769501E+02  0.38270769501E+02  0.00000000000E+00 0.  1.
         -6    2    1    2    0  503 -0.36313858537E+02  0.21088389721E+02  0.14477664893E+04  0.14585068428E+04  0.17161289661E+03 0.  0.
        -24    2    3    3    0    0  0.67524382495E+00  0.75181317406E+01  0.31082502061E+03  0.32087318518E+03  0.79312226484E+02 0.  0.
          6    2    1    2  501    0  0.36313858537E+02 -0.21088389721E+02  0.20727231928E+03  0.27307350484E+03  0.17275389490E+03 0.  0.
         24    2    5    5    0    0  0.18467865974E+02  0.48461905255E+02  0.15908392382E+03  0.18647134298E+03  0.82305823610E+02 0.  0.
          5    1    5    5  501    0  0.17845992563E+02 -0.69550294976E+02  0.48188395460E+02  0.86602161860E+02  0.47000000000E+01 0. -1.
        -11    1    6    6    0    0 -0.25031804151E+02  0.27190224354E+02  0.26939194492E+02  0.45734229188E+02  0.00000000000E+00 0.  1.
         12    1    6    6    0    0  0.43499670125E+02  0.21271680901E+02  0.13214472933E+03  0.14073711379E+03  0.00000000000E+00 0. -1.
         -5    1    3    3    0  503 -0.36989102362E+02  0.13570257981E+02  0.11369414687E+04  0.11376336576E+04  0.47000000000E+01 0.  1.
         11    1    4    4    0    0  0.26096813688E+02  0.31390641891E+02  0.21634417280E+03  0.22016179775E+03  0.00000000000E+00 0. -1.
        -12    1    4    4    0    0 -0.25421569863E+02 -0.23872510151E+02  0.94480847806E+02  0.10071138743E+03  0.00000000000E+00 0.  1.
</event>
<event>
12    1  0.8633375E-002  0.3517372E+03  0.7818608E-02  0.1061917E+00
         21   -1    0    0  503  502  0.00000000000E+00  0.00000000000E+00  0.22488350988E+03  0.22488350988E+03  0.00000000000E+00 0. -1.
         21   -1    0    0  501  503 -0.00000000000E+00 -0.00000000000E+00 -0.55137970840E+03  0.55137970840E+03  0.00000000000E+00 0.  1.
          6    2    1    2  501    0  0.28966786491E+02 -0.30579547177E+03 -0.18300973044E+03  0.39649924386E+03  0.17137427950E+03 0.  0.
         24    2    3    3    0    0 -0.13805129792E+02 -0.19043878647E+03 -0.46543578613E+02  0.21270125078E+03  0.81351117836E+02 0.  0.
         -6    2    1    2    0  502 -0.28966786491E+02  0.30579547177E+03 -0.14348646808E+03  0.37976397442E+03  0.17112090600E+03 0.  0.
        -24    2    5    5    0    0 -0.56946605884E+02  0.26646942835E+03 -0.70599674176E+02  0.29221979866E+03  0.78480727352E+02 0.  0.
          5    1    3    3  501    0  0.42771916283E+02 -0.11535668530E+03 -0.13646615183E+03  0.18379799308E+03  0.47000000000E+01 0. -1.
        -11    1    4    4    0    0 -0.20001954561E+02 -0.79009667253E+02 -0.58699012889E+02  0.10043993140E+03  0.00000000000E+00 0.  1.
         12    1    4    4    0    0  0.61968247686E+01 -0.11142911922E+03  0.12155434276E+02  0.11226131938E+03  0.00000000000E+00 0. -1.
         -5    1    5    5    0  502  0.27979819393E+02  0.39326043412E+02 -0.72886793902E+02  0.87544175757E+02  0.47000000000E+01 0.  1.
         13    1    6    6    0    0 -0.64744889775E+02  0.13342209664E+03 -0.54395116821E+02  0.15796260747E+03  0.00000000000E+00 0. -1.
        -14    1    6    6    0    0  0.77982838908E+01  0.13304733171E+03 -0.16204557355E+02  0.13425719119E+03  0.00000000000E+00 0.  1.
</event>
<event>
12    1  0.8633375E-002  0.2054808E+03  0.7818608E-02  0.1147607E+00
         21   -1    0    0  501  502  0.00000000000E+00  0.00000000000E+00  0.83557654395E+02  0.83557654395E+02  0.00000000000E+00 0.  1.
         21   -1    0    0  502  503 -0.00000000000E+00 -0.00000000000E+00 -0.52073178338E+03  0.52073178338E+03  0.00000000000E+00 0.  1.
         -6    2    1    2    0  503  0.20591869558E+02 -0.10952093334E+03 -0.29988775838E+03  0.35716617236E+03  0.15879592917E+03 0.  0.
        -24    2    3    3    0    0  0.64952009886E+02 -0.70880239610E+02 -0.24636114302E+03  0.27749112097E+03  0.84051992670E+02 0.  0.
          6    2    1    2  501    0 -0.20591869558E+02  0.10952093334E+03 -0.13728637061E+03  0.24712326542E+03  0.17263690458E+03 0.  0.
         24    2    5    5    0    0 -0.45764701103E+02  0.10104903586E+03 -0.34872091227E+02  0.14121661257E+03  0.80129603803E+02 0.  0.
          5    1    5    5  501    0  0.25172831545E+02  0.84718974813E+01 -0.10241427938E+03  0.10590665284E+03  0.47000000000E+01 0. -1.
        -13    1    6    6    0    0 -0.45580166299E+02  0.19298384054E+02  0.59263348417E+01  0.49850783660E+02  0.00000000000E+00 0.  1.
         14    1    6    6    0    0 -0.18453480434E+00  0.81750651805E+02 -0.40798426068E+02  0.91365828914E+02  0.00000000000E+00 0. -1.
         -5    1    3    3    0  503 -0.44360140328E+02 -0.38640693730E+02 -0.53526615351E+02  0.79675051383E+02  0.47000000000E+01 0.  1.
         11    1    4    4    0    0  0.49127943190E+02 -0.23315086648E+02 -0.20622622486E+03  0.21327541792E+03  0.00000000000E+00 0. -1.
        -12    1    4    4    0    0  0.15824066696E+02 -0.47565152962E+02 -0.40134918164E+02  0.64215703057E+02  0.00000000000E+00 0.  1.
</event>
<event>
12    1  0.8633375E-002  0.1808895E+03  0.7818608E-02  0.1167643E+00
         21   -1    0    0  503  502  0.00000000000E+00  0.00000000000E+00  0.51495668811E+03  0.51495668811E+03  0.00000000000E+00 0.  1.
         21   -1    0    0  501  503 -0.00000000000E+00 -0.00000000000E+00 -0.67610810099E+02  0.67610810099E+02  0.00000000000E+00 0.  1.
          6    2    1    2  501    0  0.32571172165E+02  0.30389284610E+02  0.30514173218E+03  0.35472875303E+03  0.17531862888E+03 0.  0.
         24    2    3    3    0    0  0.67077360570E+02  0.25216218302E+01  0.28679017645E+03  0.30649854191E+03  0.84776293902E+02 0.  0.
         -6    2    1    2    0  502 -0.32571172165E+02 -0.30389284610E+02  0.14220414583E+03  0.22783874518E+03  0.17234873030E+03 0.  0.
        -24    2    5    5    0    0  0.13383644046E+02 -0.43365665282E+02  0.15345532237E+03  0.17855476642E+03  0.79205844444E+02 0.  0.
          5    1    3    3  501    0 -0.34506188404E+02  0.27867662780E+02  0.18351555731E+02  0.48230211121E+02  0.47000000000E+01 0. -1.
        -11    1    4    4    0    0  0.29794559122E+02 -0.39776081439E+02  0.16435284297E+03  0.17170238612E+03  0.00000000000E+00 0.  1.
         12    1    4    4    0    0  0.37282801447E+02  0.42297703269E+02  0.12243733348E+03  0.13479615579E+03  0.00000000000E+00 0. -1.
         -5    1    5    5    0  502 -0.45954816212E+02  0.12976380671E+02 -0.11251176543E+02  0.49283978756E+02  0.47000000000E+01 0.  1.
         11    1    6    6    0    0  0.46025756350E+02 -0.16385593325E+02  0.78410388182E+02  0.92385317508E+02  0.00000000000E+00 0. -1.
        -12    1    6    6    0    0 -0.32642112303E+02 -0.26980071957E+02  0.75044934188E+02  0.86169448911E+02  0.00000000000E+00 0.  1.
</event>
<event>
12    1  0.8633375E-002  0.1936917E+03  0.7818608E-02  0.1155332E+00
         21   -1    0    0  503  502  0.00000000000E+00  0.00000000000E+00  0.16530539120E+03  0.16530539120E+03  0.00000000000E+00 0.  1.
         21   -1    0    0  501  503 -0.00000000000E+00 -0.00000000000E+00 -0.75730355845E+03  0.75730355845E+03  0.00000000000E+00 0.  1.
          6    2    1    2  501    0  0.52455156037E+02  0.69083258591E+02 -0.68218315526E+03  0.70895079391E+03  0.17237555176E+03 0.  0.
         24    2    3    3    0    0  0.37534658073E+02 -0.25593201366E+02 -0.41938846490E+03  0.42918411860E+03  0.79047205229E+02 0.  0.
         -6    2    1    2    0  502 -0.52455156037E+02 -0.69083258591E+02  0.90184988019E+02  0.21365815574E+03  0.17318324237E+03 0.  0.
        -24    2    5    5    0    0 -0.66162223257E+02  0.88186129294E+01  0.16559710950E+02  0.10549459116E+03  0.79997981334E+02 0.  0.
          5    1    3    3  501    0  0.14920497964E+02  0.94676459957E+02 -0.26279469036E+03  0.27976667531E+03  0.47000000000E+01 0. -1.
        -11    1    4    4    0    0  0.55117163282E+02  0.21581358872E+01 -0.20491543595E+03  0.21220955476E+03  0.00000000000E+00 0.  1.
         12    1    4    4    0    0 -0.17582505209E+02 -0.27751337253E+02 -0.21447302895E+03  0.21697456385E+03  0.00000000000E+00 0. -1.
         -5    1    5    5    0  502  0.13707067220E+02 -0.77901871521E+02  0.73625277069E+02  0.10816356458E+03  0.47000000000E+01 0.  1.
         13    1    6    6    0    0  0.10657695535E+02 -0.17621487074E+02 -0.54897033099E+01  0.21312909779E+02  0.00000000000E+00 0. -1.
        -14    1    6    6    0    0 -0.76819918793E+02  0.26440100003E+02  0.22049414260E+02  0.84181681384E+02  0.00000000000E+00 0.  1.
</event>
<event>
12    1  0.8633375E-002  0.1852098E+03  0.7818608E-02  0.1162886E+00
         21   -1    0    0  503  502  0.00000000000E+00  0.00000000000E+00  0.17670440446E+03  0.17670440446E+03  0.00000000000E+00 0. -1.
         21   -1    0    0  501  503 -0.00000000000E+00 -0.00000000000E+00 -0.19756659159E+03  0.19756659159E+03  0.00000000000E+00 0. -1.
          6    2    1    2  501    0 -0.67745439909E+02 -0.13287772395E+02 -0.35634636534E+02  0.18847298170E+03  0.17171554381E+03 0.  0.
         24    2    3    3    0    0 -0.36640245745E+02  0.33403173070E+02  0.31819768206E+02  0.10061079296E+03  0.81558288548E+02 0.  0.
         -6    2    1    2    0  502  0.67745439909E+02  0.13287772395E+02  0.14772449409E+02  0.18579801435E+03  0.17186235001E+03 0.  0.
        -24    2    5    5    0    0  0.93360255609E+02  0.38855981522E+02  0.47425563879E+02  0.13682692098E+03  0.79034787069E+02 0.  0.
          5    1    3    3  501    0 -0.31105194164E+02 -0.46690945465E+02 -0.67454404740E+02  0.87862188746E+02  0.47000000000E+01 0. -1.
        -11    1    4    4    0    0 -0.62660467481E+02  0.26979544943E+02  0.27046686495E+02  0.73387691616E+02  0.00000000000E+00 0.  1.
         12    1    4    4    0    0  0.26020221736E+02  0.64236281272E+01  0.47730817108E+01  0.27223101339E+02  0.00000000000E+00 0. -1.
         -5    1    5    5    0  502 -0.25614815700E+02 -0.25568209127E+02 -0.32653114470E+02  0.48971093370E+02  0.47000000000E+01 0.  1.
         13    1    6    6    0    0  0.73863878986E+02  0.29224740928E+02 -0.54826463601E+01  0.79624226918E+02  0.00000000000E+00 0. -1.
        -14    1    6    6    0    0  0.19496376624E+02  0.96312405934E+01  0.52908210239E+02  0.57202694059E+02  0.00000000000E+00 0.  1.
</event>
<event>
12    1  0.8633375E-002  0.1836386E+03  0.7818608E-02  0.1164346E+00
         21   -1    0    0  503  502  0.00000000000E+00  0.00000000000E+00  0.17600822337E+04  0.17600822337E+04  0.00000000000E+00 0.  1.
         21   -1    0    0  501  503 -0.00000000000E+00 -0.00000000000E+00 -0.21112766788E+02  0.21112766788E+02  0.00000000000E+00 0.  1.
          6    2    1    2  501    0  0.27289439833E+01  0.61986724819E+02  0.59789414654E+03  0.62543722986E+03  0.17275565644E+03 0.  0.
         24    2    3    3    0    0  0.54423585111E+02  0.20871225057E+00  0.42534192916E+03  0.43495044165E+03  0.72829662999E+02 0.  0.
         -6    2    1    2    0  502 -0.27289439833E+01 -0.61986724819E+02  0.11410753204E+04  0.11557577707E+04  0.17283904776E+03 0.  0.
        -24    2    5    5    0    0 -0.37143220110E+02 -0.62855178386E+02  0.10798011006E+04  0.10853183170E+04  0.81332897568E+02 0.  0.
          5    1    3    3  501    0 -0.51694641127E+02  0.61778012569E+02  0.17255221738E+03  0.19048678821E+03  0.47000000000E+01 0. -1.
        -11    1    4    4    0    0 -0.11998122336E+01  0.23464021770E+02  0.56133813907E+02  0.60852320668E+02  0.00000000000E+00 0.  1.
         12    1    4    4    0    0  0.55623397344E+02 -0.23255309519E+02  0.36920811525E+03  0.37409812098E+03  0.00000000000E+00 0. -1.
         -5    1    5    5    0  502  0.34414276126E+02  0.86845356624E+00  0.61274219830E+02  0.70439453637E+02  0.47000000000E+01 0.  1.
         11    1    6    6    0    0 -0.24658786033E+02  0.15206344920E+02  0.22202719488E+03  0.22390927610E+03  0.00000000000E+00 0. -1.
        -12    1    6    6    0    0 -0.12484434077E+02 -0.78061523306E+02  0.85777390571E+03  0.86140904095E+03  0.00000000000E+00 0.  1.
</event>
<event>
12    1  0.8633375E-002  0.2084542E+03  0.7818608E-02  0.1142860E+00
         21   -1    0    0  503  502  0.00000000000E+00  0.00000000000E+00  0.44614059205E+03  0.44614059205E+03  0.00000000000E+00 0. -1.
         21   -1    0    0  501  503 -0.00000000000E+00 -0.00000000000E+00 -0.13653614159E+03  0.13653614159E+03  0.00000000000E+00 0.  1.
          6    2    1    2  501    0 -0.92465787381E+02  0.71873468083E+02 -0.15620875209E+01  0.20814002103E+03  0.17205845224E+03 0.  0.
         24    2    3    3    0    0 -0.91540295872E+02  0.10560286174E+03 -0.30226603493E+02  0.16361729642E+03  0.79532269889E+02 0.  0.
         -6    2    1    2    0  502  0.92465787381E+02 -0.71873468083E+02  0.31116653799E+03  0.37453671261E+03  0.17244540433E+03 0.  0.
        -24    2    5    5    0    0  0.35072564170E+02 -0.28906751370E+02  0.48087332886E+02  0.10182279845E+03  0.77393834821E+02 0.  0.
          5    1    3    3  501    0 -0.92549150884E+00 -0.33729393655E+02  0.28664515973E+02  0.44522724612E+02  0.47000000000E+01 0. -1.
        -11    1    4    4    0    0 -0.36081304402E+02  0.72137880281E+02  0.18268881360E+02  0.82701186962E+02  0.00000000000E+00 0.  1.
         12    1    4    4    0    0 -0.55458991471E+02  0.33464981458E+02 -0.48495484853E+02  0.80916109459E+02  0.00000000000E+00 0. -1.
         -5    1    5    5    0  502  0.57393223211E+02 -0.42966716713E+02  0.26307920510E+03  0.27271391415E+03  0.47000000000E+01 0.  1.
         11    1    6    6    0    0  0.58190695451E+02 -0.11586922249E+02  0.23247053102E+02  0.63724714846E+02  0.00000000000E+00 0. -1.
        -12    1    6    6    0    0 -0.23118131281E+02 -0.17319829121E+02  0.24840279784E+02  0.38098083606E+02  0.00000000000E+00 0.  1.
</event>
<event>
12    1  0.8633375E-002  0.2203360E+03  0.7818608E-02  0.1133789E+00
         21   -1    0    0  503  502  0.00000000000E+00  0.00000000000E+00  0.50464267839E+03  0.50464267839E+03  0.00000000000E+00 0.  1.
         21   -1    0    0  501  503 -0.00000000000E+00 -0.00000000000E+00 -0.16934494441E+03  0.16934494441E+03  0.00000000000E+00 0.  1.
          6    2    1    2  501    0 -0.12484250889E+03 -0.55693741467E+02 -0.54196359255E+02  0.22690348606E+03  0.17280191482E+03 0.  0.
         24    2    3    3    0    0 -0.66974407685E+02  0.15536192629E+02  0.21067502457E+02  0.10812150288E+03  0.80743266955E+02 0.  0.
         -6    2    1    2    0  502  0.12484250889E+03  0.55693741467E+02  0.38949409324E+03  0.44708413675E+03  0.17172982211E+03 0.  0.
        -24    2    5    5    0    0  0.11538318427E+03  0.45068286630E+02  0.16199231583E+03  0.21908955823E+03  0.80089290568E+02 0.  0.
          5    1    3    3  501    0 -0.57868101203E+02 -0.71229934096E+02 -0.75263861712E+02  0.11878198318E+03  0.47000000000E+01 0. -1.
        -13    1    4    4    0    0 -0.58117870391E+02 -0.13518629201E+02 -0.14442805875E+02  0.61392465628E+02  0.00000000000E+00 0.  1.
         14    1    4    4    0    0 -0.88565372937E+01  0.29054821830E+02  0.35510308332E+02  0.46729037250E+02  0.00000000000E+00 0. -1.
         -5    1    5    5    0  502  0.94593246178E+01  0.10625454837E+02  0.22750177740E+03  0.22799457852E+03  0.47000000000E+01 0.  1.
         13    1    6    6    0    0  0.22761064132E+02 -0.16937964733E+02  0.89298170583E+01  0.29743945979E+02  0.00000000000E+00 0. -1.
        -14    1    6    6    0    0  0.92622120138E+02  0.62006251363E+02  0.15306249877E+03  0.18934561225E+03  0.00000000000E+00 0.  1.
</event>
<event>
12    1  0.8633375E-002  0.1991833E+03  0.7818608E-02  0.1150508E+00
         21   -1    0    0  501  502  0.00000000000E+00  0.00000000000E+00  0.25578417263E+03  0.25578417263E+03  0.00000000000E+00 0. -1.
         21   -1    0    0  502  503 -0.00000000000E+00 -0.00000000000E+00 -0.52231189328E+03  0.52231189328E+03  0.00000000000E+00 0. -1.
         -6    2    1    2    0  503  0.11308217403E+02  0.99620127106E+02 -0.45956043674E+03  0.50072335571E+03  0.17168587138E+03 0.  0.
        -24    2    3    3    0    0  0.72705143969E+02  0.78322911244E+02 -0.32999596768E+03  0.35569854529E+03  0.78762935754E+02 0.  0.
          6    2    1    2  501    0 -0.11308217403E+02 -0.99620127106E+02  0.19303271609E+03  0.27737271021E+03  0.17211027101E+03 0.  0.
         24    2    5    5    0    0 -0.41461649341E+02 -0.11858921014E+03  0.10518672591E+03  0.18246189123E+03  0.80284651818E+02 0.  0.
          5    1    5    5  501    0  0.30153431938E+02  0.18969083034E+02  0.87845990180E+02  0.94910818980E+02  0.47000000000E+01 0. -1.
        -13    1    6    6    0    0 -0.44472683305E+02 -0.17911172007E+02  0.27599072033E+02  0.55320325560E+02  0.00000000000E+00 0.  1.
         14    1    6    6    0    0  0.30110339641E+01 -0.10067803813E+03  0.77587653874E+02  0.12714156567E+03  0.00000000000E+00 0. -1.
         -5    1    3    3    0  503 -0.61396926566E+02  0.21297215863E+02 -0.12956446906E+03  0.14502481042E+03  0.47000000000E+01 0.  1.
         11    1    4    4    0    0  0.26196024539E+02  0.52722611760E+02 -0.26653514393E+03  0.27295949964E+03  0.00000000000E+00 0. -1.
        -12    1    4    4    0    0  0.46509119430E+02  0.25600299484E+02 -0.63460823748E+02  0.82739045647E+02  0.00000000000E+00 0.  1.
</event>
<event>
12    1  0.8633375E-002  0.2202392E+03  0.7818608E-02  0.1134310E+00
         21   -1    0    0  503  502  0.00000000000E+00  0.00000000000E+00  0.48707603541E+03  0.48707603541E+03  0.00000000000E+00 0.  1.
         21   -1    0    0  501  503 -0.00000000000E+00 -0.00000000000E+00 -0.21229155166E+03  0.21229155166E+03  0.00000000000E+00 0.  1.
          6    2    1    2  501    0  0.11643460388E+03  0.64138100203E+02 -0.11856483887E+03  0.25012584185E+03  0.17559784414E+03 0.  0.
         24    2    3    3    0    0  0.87401264853E+02  0.10162109385E+03 -0.44676828006E+02  0.16220862091E+03  0.79685569108E+02 0.  0.
         -6    2    1    2    0  502 -0.11643460388E+03 -0.64138100203E+02  0.39334932262E+03  0.44924174522E+03  0.17153350449E+03 0.  0.
        -24    2    5    5    0    0 -0.90468405884E+01  0.71514031290E+01  0.85530965747E+02  0.11549250429E+03  0.76746234796E+02 0.  0.
          5    1    3    3  501    0  0.29033339025E+02 -0.37482993647E+02 -0.73888010864E+02  0.87917220936E+02  0.47000000000E+01 0. -1.
        -13    1    4    4    0    0  0.43699284139E+02  0.84094517993E+02 -0.60616445756E+02  0.11249830615E+03  0.00000000000E+00 0.  1.
         14    1    4    4    0    0  0.43701980713E+02  0.17526575857E+02  0.15939617750E+02  0.49710314760E+02  0.00000000000E+00 0. -1.
         -5    1    5    5    0  502 -0.10738776329E+03 -0.71289503332E+02  0.30781835688E+03  0.33374924093E+03  0.47000000000E+01 0.  1.
         11    1    6    6    0    0  0.56861663449E+01 -0.22977562191E+02  0.77461045166E+02  0.80997002230E+02  0.00000000000E+00 0. -1.
        -12    1    6    6    0    0 -0.14733006933E+02  0.30128965320E+02  0.80699205810E+01  0.34495502065E+02  0.00000000000E+00 0.  1.
</event>
<event>
12    1  0.8633375E-002  0.1860123E+03  0.7818608E-02  0.1162338E+00
         21   -1    0    0  501  502  0.00000000000E+00  0.00000000000E+00  0.73710792079E+03  0.73710792079E+03  0.00000000000E+00 0. -1.
         21   -1    0    0  502  503 -0.00000000000E+00 -0.00000000000E+00 -0.47133138698E+02  0.47133138698E+02  0.00000000000E+00 0. -1.
         -6    2    1    2    0  503  0.58668768897E+02  0.33806475607E+02  0.38200897136E+03  0.42445846325E+03  0.17218951939E+03 0.  0.
        -24    2    3    3    0    0  0.72172443017E+02  0.26672815004E+02  0.13148267563E+03  0.17342310084E+03  0.82870847239E+02 0.  0.
          6    2    1    2  501    0 -0.58668768897E+02 -0.33806475607E+02  0.30796581073E+03  0.35978259623E+03  0.17325032104E+03 0.  0.
         24    2    5    5    0    0  0.78540612953E+01  0.17238653366E+02  0.23599322152E+03  0.24917954146E+03  0.77709625066E+02 0.  0.
          5    1    5    5  501    0 -0.66522830193E+02 -0.51045128973E+02  0.71972589201E+02  0.11060305477E+03  0.47000000000E+01 0. -1.
        -11    1    6    6    0    0  0.40519914893E+02  0.10469150108E+02  0.87611605968E+02  0.97094078641E+02  0.00000000000E+00 0.  1.
         12    1    6    6    0    0 -0.32665853597E+02  0.67695032579E+01  0.14838161556E+03  0.15208546282E+03  0.00000000000E+00 0. -1.
         -5    1    3    3    0  503 -0.13503674120E+02  0.71336606033E+01  0.25052629573E+03  0.25103536241E+03  0.47000000000E+01 0.  1.
         13    1    4    4    0    0  0.69019222884E+02  0.48696941111E+02  0.12382744918E+03  0.14989423729E+03  0.00000000000E+00 0. -1.
        -14    1    4    4    0    0  0.31532201331E+01 -0.22024126107E+02  0.76552264473E+01  0.23528863550E+02  0.00000000000E+00 0.  1.
</event>
<event>
12    1  0.8633375E-002  0.2176299E+03  0.7818608E-02  0.1135894E+00
         21   -1    0    0  501  502  0.00000000000E+00  0.00000000000E+00  0.48067587404E+02  0.48067587404E+02  0.00000000000E+00 0. -1.
         21   -1    0    0  502  503 -0.00000000000E+00 -0.00000000000E+00 -0.12598447337E+04  0.12598447337E+04  0.00000000000E+00 0.  1.
         -6    2    1    2    0  503 -0.10635322565E+03  0.76125666528E+02 -0.91553088604E+03  0.94104174118E+03  0.17394432914E+03 0.  0.
        -24    2    3    3    0    0 -0.97521506209E+01 -0.93531430722E+01 -0.24535272351E+03  0.25854686639E+03  0.80411053082E+02 0.  0.
          6    2    1    2  501    0  0.10635322565E+03 -0.76125666528E+02 -0.29624626020E+03  0.36687057987E+03  0.17241244149E+03 0.  0.
         24    2    5    5    0    0 -0.13946515143E+02 -0.31759389323E+02 -0.10709602281E+03  0.13830921723E+03  0.80353701684E+02 0.  0.
          5    1    5    5  501    0  0.12029974079E+03 -0.44366277204E+02 -0.18915023739E+03  0.22856136264E+03  0.47000000000E+01 0. -1.
        -11    1    6    6    0    0 -0.52096888242E+01 -0.13063097946E+02 -0.11526094388E+03  0.11611576366E+03  0.00000000000E+00 0.  1.
         12    1    6    6    0    0 -0.87368263183E+01 -0.18696291378E+02  0.81649210699E+01  0.22193453573E+02  0.00000000000E+00 0. -1.
         -5    1    3    3    0  503 -0.96601075025E+02  0.85478809600E+02 -0.67017816253E+03  0.68249487479E+03  0.47000000000E+01 0.  1.
         13    1    4    4    0    0 -0.18927042476E+02 -0.40656725651E+02 -0.18003603784E+03  0.18553753582E+03  0.00000000000E+00 0. -1.
        -14    1    4    4    0    0  0.91748918546E+01  0.31303582578E+02 -0.65316685673E+02  0.73009330569E+02  0.00000000000E+00 0.  1.
</event>
<event>
12    1  0.8633375E-002  0.2211131E+03  0.7818608E-02  0.1134141E+00
         21   -1    0    0  503  502  0.00000000000E+00  0.00000000000E+00  0.10535605111E+04  0.10535605111E+04  0.00000000000E+00 0. -1.
         21   -1    0    0  501  503 -0.00000000000E+00 -0.00000000000E+00 -0.57864837279E+02  0.57864837279E+02  0.00000000000E+00 0. -1.
          6    2    1    2  501    0  0.12963936896E+03 -0.15179960686E+02  0.23274218434E+03  0.31707717257E+03  0.17126649352E+03 0.  0.
         24    2    3    3    0    0  0.20736636093E+02  0.26205574311E+02  0.15677154646E+03  0.17791469360E+03  0.77198317451E+02 0.  0.
         -6    2    1    2    0  502 -0.12963936896E+03  0.15179960686E+02  0.76295348947E+03  0.79434817580E+03  0.17847744987E+03 0.  0.
        -24    2    5    5    0    0 -0.12837091356E+03  0.69196747974E+02  0.60229530751E+03  0.62478236640E+03  0.79536699299E+02 0.  0.
          5    1    3    3  501    0  0.10890273287E+03 -0.41385534997E+02  0.75970637879E+02  0.13916247897E+03  0.47000000000E+01 0. -1.
        -13    1    4    4    0    0  0.45996580009E+02  0.92514041910E+01  0.58205951421E+02  0.74760996736E+02  0.00000000000E+00 0.  1.
         14    1    4    4    0    0 -0.25259943916E+02  0.16954170120E+02  0.98565595040E+02  0.10315369686E+03  0.00000000000E+00 0. -1.
         -5    1    5    5    0  502 -0.12684554035E+01 -0.54016787288E+02  0.16065818196E+03  0.16956580940E+03  0.47000000000E+01 0.  1.
         13    1    6    6    0    0 -0.11251242600E+03  0.29568129822E+02  0.34799823099E+03  0.36692790719E+03  0.00000000000E+00 0. -1.
        -14    1    6    6    0    0 -0.15858487553E+02  0.39628618152E+02  0.25429707652E+03  0.25785445921E+03  0.00000000000E+00 0.  1.
</event>
<event>
12    1  0.8633375E-002  0.2034259E+03  0.7818608E-02  0.1147143E+00
         21   -1    0    0  501  502  0.00000000000E+00  0.00000000000E+00  0.46538775038E+03  0.46538775038E+03  0.00000000000E+00 0. -1.
         21   -1    0    0  502  503 -0.00000000000E+00 -0.00000000000E+00 -0.95560160115E+02  0.95560160115E+02  0.00000000000E+00 0.  1.
         -6    2    1    2    0  503  0.43276352617E+02 -0.98331351182E+02  0.10742397310E+03  0.22892716865E+03  0.17124789408E+03 0.  0.
        -24    2    3    3    0    0  0.69736759854E+02 -0.73134356249E+02  0.13289002613E+03  0.18414266729E+03  0.77697574826E+02 0.  0.
          6    2    1    2  501    0 -0.43276352617E+02  0.98331351182E+02  0.26240361716E+03  0.33202074185E+03  0.17274321230E+03 0.  0.
         24    2    5    5    0    0 -0.29274047543E+02  0.66073774610E+02  0.27400751840E+03  0.29469305350E+03  0.80877451062E+02 0.  0.
          5    1    5    5  501    0 -0.14002305074E+02  0.32257576572E+02 -0.11603901234E+02  0.37327688350E+02  0.47000000000E+01 0. -1.
        -11    1    6    6    0    0 -0.40379137554E+02  0.49664394104E+02  0.94752164182E+02  0.11434596367E+03  0.00000000000E+00 0.  1.
         12    1    6    6    0    0  0.11105090011E+02  0.16409380505E+02  0.17925535422E+03  0.18034708982E+03  0.00000000000E+00 0. -1.
         -5    1    3    3    0  503 -0.26460407237E+02 -0.25196994933E+02 -0.25466053029E+02  0.44784501356E+02  0.47000000000E+01 0.  1.
         11    1    4    4    0    0  0.86722103012E+02 -0.65961081445E+02  0.11136414780E+03  0.15579974593E+03  0.00000000000E+00 0. -1.
        -12    1    4    4    0    0 -0.16985343157E+02 -0.71732748036E+01  0.21525878331E+02  0.28342921365E+02  0.00000000000E+00 0.  1.
</event>
<event>
12    1  0.8633375E-002  0.2559436E+03  0.7818608E-02  0.1109606E+00
         21   -1    0    0  501  502  0.00000000000E+00  0.00000000000E+00  0.24836890911E+03  0.24836890911E+03  0.00000000000E+00 0.  1.
         21   -1    0    0  502  503 -0.00000000000E+00 -0.00000000000E+00 -0.27496070921E+03  0.27496070921E+03  0.00000000000E+00 0. -1.
         -6    2    1    2    0  503  0.36142934358E+02 -0.18586948759E+03 -0.66143694233E+02  0.26435224005E+03  0.17220145298E+03 0.  0.
        -24    2    3    3    0    0  0.13667232876E+02 -0.23098120342E+02  0.31706372514E+01  0.85953132136E+02  0.81593943192E+02 0.  0.
          6    2    1    2  501    0 -0.36142934358E+02  0.18586948759E+03  0.39551894127E+02  0.25897737827E+03  0.17219509867E+03 0.  0.
         24    2    5    5    0    0  0.11385422186E+02  0.18223014752E+03  0.45377358333E+01  0.19964550865E+03  0.80624336111E+02 0.  0.
          5    1    5    5  501    0 -0.47528356544E+02  0.36393400683E+01  0.35014158294E+02  0.59331869623E+02  0.47000000000E+01 0. -1.
        -13    1    6    6    0    0  0.32821210257E+02  0.13693987816E+03  0.29175732788E+02  0.14380885042E+03  0.00000000000E+00 0.  1.
         14    1    6    6    0    0 -0.21435788071E+02  0.45290269361E+02 -0.24637996955E+02  0.55836658237E+02  0.00000000000E+00 0. -1.
         -5    1    3    3    0  503  0.22475701482E+02 -0.16277136725E+03 -0.69314331484E+02  0.17839910791E+03  0.47000000000E+01 0.  1.
         11    1    4    4    0    0  0.31968516408E+02 -0.18597500617E+02 -0.30120187131E+02  0.47697785518E+02  0.00000000000E+00 0. -1.
        -12    1    4    4    0    0 -0.18301283531E+02 -0.45006197255E+01  0.33290824383E+02  0.38255346618E+02  0.00000000000E+00 0.  1.
</event>
<event>
12    1  0.8633375E-002  0.1764426E+03  0.7818608E-02  0.1171897E+00
         21   -1    0    0  501  502  0.00000000000E+00  0.00000000000E+00  0.37342748399E+03  0.37342748399E+03  0.00000000000E+00 0.  1.
         21   -1    0    0  502  503 -0.00000000000E+00 -0.00000000000E+00 -0.82353304262E+02  0.82353304262E+02  0.00000000000E+00 0.  1.
         -6    2    1    2    0  503 -0.64484936807E+01 -0.28345309290E+02  0.13766440014E+03  0.22379335016E+03  0.17403142497E+03 0.  0.
        -24    2    3    3    0    0  0.85601635074E+01 -0.71953836103E+02  0.40233761892E+02  0.11589625719E+03  0.81009603784E+02 0.  0.
          6    2    1    2  501    0  0.64484936807E+01  0.28345309290E+02  0.15340977958E+03  0.23198743809E+03  0.17157672141E+03 0.  0.
         24    2    5    5    0    0  0.46711912477E+02  0.56758155405E+02  0.57201176172E+02  0.12379031203E+03  0.81538799507E+02 0.  0.
          5    1    5    5  501    0 -0.40263418796E+02 -0.28412846116E+02  0.96208603412E+02  0.10819712606E+03  0.47000000000E+01 0. -1.
        -13    1    6    6    0    0  0.78351918662E+01 -0.10910300909E+02  0.42244877627E+02  0.44328936184E+02  0.00000000000E+00 0.  1.
         14    1    6    6    0    0  0.38876720611E+02  0.67668456314E+02  0.14956298545E+02  0.79461375847E+02  0.00000000000E+00 0. -1.
         -5    1    3    3    0  503 -0.15008657188E+02  0.43608526813E+02  0.97430638247E+02  0.10789709297E+03  0.47000000000E+01 0.  1.
         11    1    4    4    0    0  0.30184623869E+02 -0.19091968924E+00  0.25493506486E+02  0.39510338411E+02  0.00000000000E+00 0. -1.
        -12    1    4    4    0    0 -0.21624460361E+02 -0.71762916413E+02  0.14740255407E+02  0.76385918778E+02  0.00000000000E+00 0.  1.
</event>
<event>
12    1  0.8633375E-002  0.2183104E+03  0.7818608E-02  0.1136552E+00
         21   -1    0    0  503  502  0.00000000000E+00  0.00000000000E+00  0.46566127245E+03  0.46566127245E+03  0.00000000000E+00 0. -1.
         21   -1    0    0  501  503 -0.00000000000E+00 -0.00000000000E+00 -0.19480824776E+03  0.19480824776E+03  0.00000000000E+00 0. -1.
          6    2    1    2  501    0 -0.39779639147E+00  0.13589355937E+03 -0.97384873488E+02  0.23238238204E+03  0.16140179732E+03 0.  0.
         24    2    3    3    0    0 -0.20833693450E+02  0.10648944570E+02 -0.29197949506E+02  0.88245689880E+02  0.79920827847E+02 0.  0.
         -6    2    1    2    0  502  0.39779639147E+00 -0.13589355937E+03  0.36823789818E+03  0.42808713817E+03  0.17085733958E+03 0.  0.
        -24    2    5    5    0    0 -0.12964605149E+02 -0.72779662607E+02  0.34067959598E+03  0.35777733971E+03  0.80480292086E+02 0.  0.
          5    1    3    3  501    0  0.20435897058E+02  0.12524461480E+03 -0.68186923983E+02  0.14413669216E+03  0.47000000000E+01 0. -1.
        -11    1    4    4    0    0  0.12422337479E+02  0.38085140708E+02 -0.11874901603E+02  0.41782839770E+02  0.00000000000E+00 0.  1.
         12    1    4    4    0    0 -0.33256030929E+02 -0.27436196138E+02 -0.17323047902E+02  0.46462850109E+02  0.00000000000E+00 0. -1.
         -5    1    5    5    0  502  0.13362401541E+02 -0.63113896762E+02  0.27558302197E+02  0.70309798460E+02  0.47000000000E+01 0.  1.
         11    1    6    6    0    0  0.24210495025E+01 -0.80373857189E+01  0.21841599718E+03  0.21857723778E+03  0.00000000000E+00 0. -1.
        -12    1    6    6    0    0 -0.15385654652E+02 -0.64742276888E+02  0.12226359880E+03  0.13920010193E+03  0.00000000000E+00 0.  1.
</event>
<event>
12    1  0.8633375E-002  0.2301537E+03  0.7818608E-02  0.1126574E+00
         21   -1    0    0  503  502  0.00000000000E+00  0.00000000000E+00  0.47863523546E+03  0.47863523546E+03  0.00000000000E+00 0.  1.
         21   -1    0    0  501  503 -0.00000000000E+00 -0.00000000000E+00 -0.27250884623E+03  0.27250884623E+03  0.00000000000E+00 0. -1.
          6    2    1    2  501    0  0.15269558627E+03  0.10488198566E+02 -0.18644924271E+03  0.29619930225E+03  0.17188589870E+03 0.  0.
         24    2    3    3    0    0  0.10683952283E+03  0.63202483284E+02 -0.73817658940E+02  0.16357374653E+03  0.76798999024E+02 0.  0.
         -6    2    1    2    0  502 -0.15269558627E+03 -0.10488198566E+02  0.39257563194E+03  0.45494477944E+03  0.17156101297E+03 0.  0.
        -24    2    5    5    0    0 -0.12861670301E+03  0.14598098099E+02  0.16510807637E+03  0.22478680384E+03  0.80703590585E+02 0.  0.
          5    1    3    3  501    0  0.45856063443E+02 -0.52714284717E+02 -0.11263158377E+03  0.13262555572E+03  0.47000000000E+01 0. -1.
        -13    1    4    4    0    0  0.10963443531E+03  0.63143664603E+02 -0.84755897565E+02  0.15228392547E+03  0.00000000000E+00 0.  1.
         14    1    4    4    0    0 -0.27949124752E+01  0.58818680620E-01  0.10938238625E+02  0.11289821062E+02  0.00000000000E+00 0. -1.
         -5    1    5    5    0  502 -0.24078883263E+02 -0.25086296666E+02  0.22746755557E+03  0.23015797561E+03  0.47000000000E+01 0.  1.
         13    1    6    6    0    0 -0.10052126677E+03 -0.18176027973E+02  0.81452506423E+02  0.13064992869E+03  0.00000000000E+00 0. -1.
        -14    1    6    6    0    0 -0.28095436244E+02  0.32774126072E+02  0.83655569951E+02  0.94136875141E+02  0.00000000000E+00 0.  1.
</event>
<event>
12    1  0.8633375E-002  0.2096089E+03  0.7818608E-02  0.1141883E+00
         21   -1    0    0  501  502  0.00000000000E+00  0.00000000000E+00  0.13744107482E+03  0.13744107482E+03  0.00000000000E+00 0. -1.
         21   -1    0    0  502  503 -0.00000000000E+00 -0.00000000000E+00 -0.32016845771E+03  0.32016845771E+03  0.00000000000E+00 0. -1.
         -6    2    1    2    0  503 -0.62560590424E+02 -0.10495369451E+03 -0.81871676615E+02  0.22503082487E+03  0.17031381402E+03 0.  0.
        -24    2    3    3    0    0 -0.31577718467E+02  0.91880068723E+01 -0.58632636319E+02  0.10440574729E+03  0.79882427671E+02 0.  0.
          6    2    1    2  501    0  0.62560590424E+02  0.10495369451E+03 -0.10085570627E+03  0.23257870766E+03  0.17027001000E+03 0.  0.
         24    2    5    5    0    0  0.68558761196E+02  0.61181968748E+02 -0.13126346774E+03  0.17873946560E+03  0.79209605252E+02 0.  0.
          5    1    5    5  501    0 -0.59981707721E+01  0.43771725759E+02  0.30407761467E+02  0.53839242064E+02  0.47000000000E+01 0. -1.
        -13    1    6    6    0    0  0.54474373753E+02 -0.37646285735E+01 -0.65008335475E+02  0.84898253841E+02  0.00000000000E+00 0.  1.
         14    1    6    6    0    0  0.14084387442E+02  0.64946597321E+02 -0.66255132261E+02  0.93841211758E+02  0.00000000000E+00 0. -1.
         -5    1    3    3    0  503 -0.30982871957E+02 -0.11414170138E+03 -0.23239040296E+02  0.12062507758E+03  0.47000000000E+01 0.  1.
         11    1    4    4    0    0 -0.56943215226E+02  0.11316449152E+02 -0.27642027199E+02  0.64301426496E+02  0.00000000000E+00 0. -1.
        -12    1    4    4    0    0  0.25365496759E+02 -0.21284422796E+01 -0.30990609120E+02  0.40104320790E+02  0.00000000000E+00 0.  1.
</event>
<event>
12    1  0.8633375E-002  0.1957380E+03  0.7818608E-02  0.1154065E+00
         21   -1    0    0  501  502  0.00000000000E+00  0.00000000000E+00  0.15608859973E+03  0.15608859973E+03  0.00000000000E+00 0. -1.
         21   -1    0    0  502  503 -0.00000000000E+00 -0.00000000000E+00 -0.45607145267E+03  0.45607145267E+03  0.00000000000E+00 0. -1.
         -6    2    1    2    0  503  0.88973673501E+02  0.26447565112E+02 -0.36052839689E+03  0.41023663598E+03  0.17232987049E+03 0.  0.
        -24    2    3    3    0    0 -0.16013596199E+02 -0.49366945594E+01 -0.19695014134E+03  0.21329188677E+03  0.80145271672E+02 0.  0.
          6    2    1    2  501    0 -0.88973673501E+02 -0.26447565112E+02  0.60545543947E+02  0.20192341642E+03  0.16879429768E+03 0.  0.
         24    2    5    5    0    0 -0.49517571917E+02 -0.49856087758E+02 -0.18529505890E+02  0.11038273480E+03  0.83086618284E+02 0.  0.
          5    1    5    5  501    0 -0.39456101584E+02  0.23408522646E+02  0.79075049837E+02  0.91540681619E+02  0.47000000000E+01 0. -1.
        -13    1    6    6    0    0 -0.62329548917E+01  0.93741187766E+01 -0.33647440963E+02  0.35480616016E+02  0.00000000000E+00 0.  1.
         14    1    6    6    0    0 -0.43284617025E+02 -0.59230206535E+02  0.15117935073E+02  0.74902118782E+02  0.00000000000E+00 0. -1.
         -5    1    3    3    0  503  0.10498726970E+03  0.31384259672E+02 -0.16357825555E+03  0.19694474921E+03  0.47000000000E+01 0.  1.
         13    1    4    4    0    0  0.32517507889E+02 -0.53681536622E+01 -0.90008408729E+02  0.95852590132E+02  0.00000000000E+00 0. -1.
        -14    1    4    4    0    0 -0.48531104087E+02  0.43145910279E+00 -0.10694173261E+03  0.11743929664E+03  0.00000000000E+00 0.  1.
</event>
<event>
12    1  0.8633375E-002  0.1987653E+03  0.7818608E-02  0.1153943E+00
         21   -1    0    0  501  502  0.00000000000E+00  0.00000000000E+00  0.10008421302E+04  0.10008421302E+04  0.00000000000E+00 0.  1.
         21   -1    0    0  502  503 -0.00000000000E+00 -0.00000000000E+00 -0.42502357037E+02  0.42502357037E+02  0.00000000000E+00 0.  1.
         -6    2    1    2    0  503 -0.61815122191E+02 -0.23560123487E+02  0.27098340233E+03  0.32782620418E+03  0.17222609285E+03 0.  0.
        -24    2    3    3    0    0 -0.65445169853E+02 -0.50196092159E+02  0.84800645568E+02  0.13965404633E+03  0.74225233200E+02 0.  0.
          6    2    1    2  501    0  0.61815122191E+02  0.23560123487E+02  0.68735637082E+03  0.71551828305E+03  0.18743383929E+03 0.  0.
         24    2    5    5    0    0 -0.32689062892E+02  0.55538585428E+02  0.33843092384E+03  0.35257927911E+03  0.74990322989E+02 0.  0.
          5    1    5    5  501    0  0.94504185083E+02 -0.31978461940E+02  0.34892544698E+03  0.36293900393E+03  0.47000000000E+01 0. -1.
        -11    1    6    6    0    0 -0.10852594954E+02  0.35515960246E+02  0.48235689080E+02  0.60875643327E+02  0.00000000000E+00 0.  1.
         12    1    6    6    0    0 -0.21836467939E+02  0.20022625181E+02  0.29019523476E+03  0.29170363579E+03  0.00000000000E+00 0. -1.
         -5    1    3    3    0  503  0.36300476615E+01  0.26635968671E+02  0.18618275676E+03  0.18817215785E+03  0.47000000000E+01 0.  1.
         13    1    4    4    0    0 -0.70220976708E+02 -0.33528669589E+02  0.92333427473E+02  0.12075023430E+03  0.00000000000E+00 0. -1.
        -14    1    4    4    0    0  0.47758068547E+01 -0.16667422569E+02 -0.75327819058E+01  0.18903812035E+02  0.00000000000E+00 0.  1.
</event>
<event>
12    1  0.8633375E-002  0.1768711E+03  0.7818608E-02  0.1171371E+00
         21   -1    0    0  503  502  0.00000000000E+00  0.00000000000E+00  0.40379852937E+03  0.40379852937E+03  0.00000000000E+00 0. -1.
         21   -1    0    0  501  503 -0.00000000000E+00 -0.00000000000E+00 -0.83351384016E+02  0.83351384016E+02  0.00000000000E+00 0. -1.
          6    2    1    2  501    0 -0.18371934191E+02 -0.31313203475E+02  0.89988955880E+02  0.19664283831E+03  0.17103318099E+03 0.  0.
         24    2    3    3    0    0 -0.53946759374E+02  0.81119826350E+01  0.10319454822E+03  0.14172115629E+03  0.80372347535E+02 0.  0.
         -6    2    1    2    0  502  0.18371934191E+02  0.31313203475E+02  0.23045818948E+03  0.29050707508E+03  0.17310499385E+03 0.  0.
        -24    2    5    5    0    0  0.29246070053E+02  0.27124854812E+02  0.29345337505E+02  0.89002091708E+02  0.73953587695E+02 0.  0.
          5    1    3    3  501    0  0.35574825184E+02 -0.39425186110E+02 -0.13205592343E+02  0.54921682019E+02  0.47000000000E+01 0. -1.
        -11    1    4    4    0    0 -0.73794653084E+02  0.14516159525E+02  0.71442102665E+02  0.10373207674E+03  0.00000000000E+00 0.  1.
         12    1    4    4    0    0  0.19847893710E+02 -0.64041768901E+01  0.31752445558E+02  0.37989079553E+02  0.00000000000E+00 0. -1.
         -5    1    5    5    0  502 -0.10874135863E+02  0.41883486630E+01  0.20111285197E+03  0.20150498337E+03  0.47000000000E+01 0.  1.
         13    1    6    6    0    0  0.52364394492E+02  0.25216697224E+02  0.10380795824E+02  0.59039584614E+02  0.00000000000E+00 0. -1.
        -14    1    6    6    0    0 -0.23118324439E+02  0.19081575877E+01  0.18964541681E+02  0.29962507095E+02  0.00000000000E+00 0.  1.
</event>
<event>
12    1  0.8633375E-002  0.1799600E+03  0.7818608E-02  0.1168234E+00
         21   -1    0    0  501  502  0.00000000000E+00  0.00000000000E+00  0.24500209982E+03  0.24500209982E+03  0.00000000000E+00 0. -1.
         21   -1    0    0  502  503 -0.00000000000E+00 -0.00000000000E+00 -0.51883503699E+03  0.51883503699E+03  0.00000000000E+00 0. -1.
         -6    2    1    2    0  503 -0.20309886048E+02  0.47228510334E+02 -0.46696074590E+03  0.49985996602E+03  0.17077653165E+03 0.  0.
        -24    2    3    3    0    0  0.50786179025E+01 -0.48344240531E+02 -0.16333071303E+03  0.18049808085E+03  0.59495188205E+02 0.  0.
          6    2    1    2  501    0  0.20309886048E+02 -0.47228510334E+02  0.19312780874E+03  0.26397717078E+03  0.17246035060E+03 0.  0.
         24    2    5    5    0    0  0.78612286139E+02 -0.13031417300E+02  0.14324349444E+03  0.17983951072E+03  0.73985414426E+02 0.  0.
          5    1    5    5  501    0 -0.58302400091E+02 -0.34197093033E+02  0.49884314300E+02  0.84137660067E+02  0.47000000000E+01 0. -1.
        -11    1    6    6    0    0  0.18209544668E+02  0.95318992008E+00 -0.52057718745E+01  0.18963020562E+02  0.00000000000E+00 0.  1.
         12    1    6    6    0    0  0.60402741471E+02 -0.13984607220E+02  0.14844926631E+03  0.16087649015E+03  0.00000000000E+00 0. -1.
         -5    1    3    3    0  503 -0.25388503950E+02  0.95572750864E+02 -0.30363003287E+03  0.31936188518E+03  0.47000000000E+01 0.  1.
         11    1    4    4    0    0 -0.18135476600E+02 -0.50047734708E+02 -0.12094992523E+03  0.13214596352E+03  0.00000000000E+00 0. -1.
        -12    1    4    4    0    0  0.23214094503E+02  0.17034941774E+01 -0.42380787795E+02  0.48352117329E+02  0.00000000000E+00 0.  1.
</event>
<event>
12    1  0.8633375E-002  0.2037977E+03  0.7818608E-02  0.1146794E+00
         21   -1    0    0  503  502  0.00000000000E+00  0.00000000000E+00  0.22778583682E+03  0.22778583682E+03  0.00000000000E+00 0. -1.
         21   -1    0    0  501  503 -0.00000000000E+00 -0.00000000000E+00 -0.18317425774E+03  0.18317425774E+03  0.00000000000E+00 0. -1.
          6    2    1    2  501    0 -0.80015389867E+02 -0.72847789966E+02  0.19386421152E+01  0.20274274599E+03  0.17143978418E+03 0.  0.
         24    2    3    3    0    0  0.57706358408E+01 -0.14054008836E+02  0.41697790900E+02  0.91302937938E+02  0.79791636828E+02 0.  0.
         -6    2    1    2    0  502  0.80015389867E+02  0.72847789966E+02  0.42672936961E+02  0.20821734857E+03  0.17269690669E+03 0.  0.
        -24    2    5    5    0    0 -0.18804300915E+02  0.18137477534E+02  0.36113802626E+02  0.94975740425E+02  0.83866648347E+02 0.  0.
          5    1    3    3  501    0 -0.85786025708E+02 -0.58793781130E+02 -0.39759148785E+02  0.11143980805E+03  0.47000000000E+01 0. -1.
        -13    1    4    4    0    0 -0.21794434010E+02 -0.16319466669E+02  0.54426172517E+02  0.60856639745E+02  0.00000000000E+00 0.  1.
         14    1    4    4    0    0  0.27565069851E+02  0.22654578331E+01 -0.12728381616E+02  0.30446298193E+02  0.00000000000E+00 0. -1.
         -5    1    5    5    0  502  0.98819690782E+02  0.54710312432E+02  0.65591343345E+01  0.11324160815E+03  0.47000000000E+01 0.  1.
         13    1    6    6    0    0  0.22297877547E+02  0.32790675247E+02  0.32353703655E+02  0.51177982243E+02  0.00000000000E+00 0. -1.
        -14    1    6    6    0    0 -0.41102178462E+02 -0.14653197712E+02  0.37600989711E+01  0.43797758182E+02  0.00000000000E+00 0.  1.
</event>
<event>
12    1  0.8633375E-002  0.1837520E+03  0.7818608E-02  0.1164226E+00
         21   -1    0    0  501  502  0.00000000000E+00  0.00000000000E+00  0.11088023599E+03  0.11088023599E+03  0.00000000000E+00 0.  1.
         21   -1    0    0  502  503 -0.00000000000E+00 -0.00000000000E+00 -0.34744029605E+03  0.34744029605E+03  0.00000000000E+00 0.  1.
         -6    2    1    2    0  503  0.16785673597E+01 -0.63537730295E+02 -0.19885556901E+03  0.27074011416E+03  0.17238564711E+03 0.  0.
        -24    2    3    3    0    0 -0.39099458900E+02 -0.93337841382E+02 -0.12147396555E+03  0.17821500081E+03  0.82243187478E+02 0.  0.
          6    2    1    2  501    0 -0.16785673597E+01  0.63537730295E+02 -0.37704491046E+02  0.18758041788E+03  0.17240917541E+03 0.  0.
         24    2    5    5    0    0  0.51366298105E+01  0.61988779864E+02  0.40852975988E+02  0.10857274871E+03  0.79057462147E+02 0.  0.
          5    1    5    5  501    0 -0.68151971702E+01  0.15489504306E+01 -0.78557467034E+02  0.79007669164E+02  0.47000000000E+01 0. -1.
        -13    1    6    6    0    0  0.60914172181E+01  0.74989681714E+02  0.51969445374E+02  0.91440587158E+02  0.00000000000E+00 0.  1.
         14    1    6    6    0    0 -0.95478740762E+00 -0.13000901850E+02 -0.11116469386E+02  0.17132161554E+02  0.00000000000E+00 0. -1.
         -5    1    3    3    0  503  0.40778026260E+02  0.29800111087E+02 -0.77381603467E+02  0.92525113356E+02  0.47000000000E+01 0.  1.
         13    1    4    4    0    0 -0.53738819392E+02 -0.42907952498E+02 -0.10026629909E+03  0.12158241580E+03  0.00000000000E+00 0. -1.
        -14    1    4    4    0    0  0.14639360492E+02 -0.50429888883E+02 -0.21207666454E+02  0.56632585009E+02  0.00000000000E+00 0.  1.
</event>
<event>
12    1  0.8633375E-002  0.3129917E+03  0.7818608E-02  0.1079004E+00
         21   -1    0    0  501  502  0.00000000000E+00  0.00000000000E+00  0.10884951728E+03  0.10884951728E+03  0.00000000000E+00 0. -1.
         21   -1    0    0  502  503 -0.00000000000E+00 -0.00000000000E+00 -0.92014819776E+03  0.92014819776E+03  0.00000000000E+00 0. -1.
         -6    2    1    2    0  503 -0.24143448366E+03  0.99232111239E+02 -0.48509313970E+03  0.57692043442E+03  0.17141823610E+03 0.  0.
        -24    2    3    3    0    0 -0.19685532403E+03  0.98164778686E+02 -0.27302787273E+03  0.36016663832E+03  0.82385955683E+02 0.  0.
          6    2    1    2  501    0  0.24143448366E+03 -0.99232111239E+02 -0.32620554078E+03  0.45207728062E+03  0.17270260860E+03 0.  0.
         24    2    5    5    0    0  0.55043373969E+02 -0.14410563851E+02 -0.16016273540E+03  0.18839443345E+03  0.81258374193E+02 0.  0.
          5    1    5    5  501    0  0.18639110969E+03 -0.84821547387E+02 -0.16604280538E+03  0.26368284717E+03  0.47000000000E+01 0. -1.
        -13    1    6    6    0    0  0.26149983752E+02 -0.46571930388E+02 -0.10920797368E+03  0.12156951866E+03  0.00000000000E+00 0.  1.
         14    1    6    6    0    0  0.28893390217E+02  0.32161366537E+02 -0.50954761713E+02  0.66824914792E+02  0.00000000000E+00 0. -1.
         -5    1    3    3    0  503 -0.44579159629E+02  0.10673325526E+01 -0.21206526697E+03  0.21675379610E+03  0.47000000000E+01 0.  1.
         11    1    4    4    0    0 -0.19195314894E+03  0.11009128863E+03 -0.26374422334E+03  0.34427767654E+03  0.00000000000E+00 0. -1.
        -12    1    4    4    0    0 -0.49021750881E+01 -0.11926509948E+02 -0.92836493934E+01  0.15888961772E+02  0.00000000000E+00 0.  1.
</event>
<event>
12    1  0.8633375E-002  0.2132370E+03  0.7818608E-02  0.1139747E+00
         21   -1    0    0  503  502  0.00000000000E+00  0.00000000000E+00  0.35829456803E+02  0.35829456803E+02  0.00000000000E+00 0.  1.
         21   -1    0    0  501  503 -0.00000000000E+00 -0.00000000000E+00 -0.13085016607E+04  0.13085016607E+04  0.00000000000E+00 0. -1.
          6    2    1    2  501    0  0.98734889059E+02 -0.82834346437E+02 -0.48570718155E+03  0.52898825488E+03  0.16524829900E+03 0.  0.
         24    2    3    3    0    0 -0.71183863524E+01 -0.40028694962E+02 -0.27572405238E+03  0.28992289928E+03  0.79865929025E+02 0.  0.
         -6    2    1    2    0  502 -0.98734889059E+02  0.82834346437E+02 -0.78696502230E+03  0.81534286258E+03  0.16988210608E+03 0.  0.
        -24    2    5    5    0    0 -0.41650329949E+02  0.43812325640E+02 -0.68343996231E+03  0.69075998638E+03  0.80030661869E+02 0.  0.
          5    1    3    3  501    0  0.10585327541E+03 -0.42805651475E+02 -0.20998312917E+03  0.23906535560E+03  0.47000000000E+01 0. -1.
        -11    1    4    4    0    0  0.43595557134E+01 -0.24062312784E+02 -0.15490489037E+02  0.28947467474E+02  0.00000000000E+00 0.  1.
         12    1    4    4    0    0 -0.11477942066E+02 -0.15966382178E+02 -0.26023356334E+03  0.26097543180E+03  0.00000000000E+00 0. -1.
         -5    1    5    5    0  502 -0.57084559110E+02  0.39022020797E+02 -0.10352505999E+03  0.12458287620E+03  0.47000000000E+01 0.  1.
         13    1    6    6    0    0  0.12929116871E+02 -0.95065295192E+01 -0.26040934034E+03  0.26090335510E+03  0.00000000000E+00 0. -1.
        -14    1    6    6    0    0 -0.54579446820E+02  0.53318855159E+02 -0.42303062197E+03  0.42985663128E+03  0.00000000000E+00 0.  1.
</event>
<event>
12    1  0.8633375E-002  0.3144215E+03  0.7818608E-02  0.1078347E+00
         21   -1    0    0  501  502  0.00000000000E+00  0.00000000000E+00  0.11220159627E+04  0.11220159627E+04  0.00000000000E+00 0. -1.
         21   -1    0    0  502  503 -0.00000000000E+00 -0.00000000000E+00 -0.99780681788E+02  0.99780681788E+02  0.00000000000E+00 0.  1.
         -6    2    1    2    0  503 -0.39235197832E+01 -0.26269486679E+03  0.30066717995E+03  0.43504210801E+03  0.17273359720E+03 0.  0.
        -24    2    3    3    0    0  0.19323877906E+02 -0.51771523206E+02  0.13493910226E+03  0.16575233082E+03  0.78813520295E+02 0.  0.
          6    2    1    2  501    0  0.39235197832E+01  0.26269486679E+03  0.72156810100E+03  0.78675453651E+03  0.17116713847E+03 0.  0.
         24    2    5    5    0    0  0.64678072818E+02  0.12041466537E+03  0.36002180087E+03  0.39347017555E+03  0.80747366601E+02 0.  0.
          5    1    5    5  501    0 -0.60754553034E+02  0.14228020142E+03  0.36154630014E+03  0.39328436096E+03  0.47000000000E+01 0. -1.
        -11    1    6    6    0    0  0.33558745720E+00 -0.11368998780E+02  0.17471040219E+02  0.20847158044E+02  0.00000000000E+00 0.  1.
         12    1    6    6    0    0  0.64342485360E+02  0.13178366415E+03  0.34255076065E+03  0.37262301751E+03  0.00000000000E+00 0. -1.
         -5    1    3    3    0  503 -0.23247397690E+02 -0.21092334358E+03  0.16572807769E+03  0.26928977720E+03  0.47000000000E+01 0.  1.
         13    1    4    4    0    0  0.39702178632E+02 -0.40463442941E+02  0.13015008018E+03  0.14195984141E+03  0.00000000000E+00 0. -1.
        -14    1    4    4    0    0 -0.20378300726E+02 -0.11308080266E+02  0.47890220787E+01  0.23792489408E+02  0.00000000000E+00 0.  1.
</event>
<event>
12    1  0.8633375E-002  0.2345144E+03  0.7818608E-02  0.1123628E+00
         21   -1    0    0  501  502  0.00000000000E+00  0.00000000000E+00  0.22719717224E+04  0.22719717224E+04  0.00000000000E+00 0.  1.
         21   -1    0    0  502  503 -0.00000000000E+00 -0.00000000000E+00 -0.30878287779E+02  0.30878287779E+02  0.00000000000E+00 0.  1.
         -6    2    1    2    0  503  0.11839274560E+03 -0.10618253166E+03  0.58368278119E+03  0.62903307378E+03  0.17235268090E+03 0.  0.
        -24    2    3    3    0    0  0.50124362981E+02  0.71639032769E+01  0.32197649845E+03  0.33574097568E+03  0.80556588360E+02 0.  0.
          6    2    1    2  501    0 -0.11839274560E+03  0.10618253166E+03  0.16574106534E+04  0.16738169364E+04  0.17135194843E+03 0.  0.
         24    2    5    5    0    0 -0.53437171539E+02  0.41921562371E+02  0.13235287824E+04  0.13276263926E+04  0.79059799781E+02 0.  0.
          5    1    5    5  501    0 -0.64955574058E+02  0.64260969286E+02  0.33388187105E+03  0.34619054376E+03  0.47000000000E+01 0. -1.
        -11    1    6    6    0    0 -0.68964221446E+02  0.49842235407E+02  0.99330298060E+03  0.99694088267E+03  0.00000000000E+00 0.  1.
         12    1    6    6    0    0  0.15527049907E+02 -0.79206730361E+01  0.33022580178E+03  0.33068550997E+03  0.00000000000E+00 0. -1.
         -5    1    3    3    0  503  0.68268382616E+02 -0.11334643493E+03  0.26170628274E+03  0.29329209809E+03  0.47000000000E+01 0.  1.
         11    1    4    4    0    0  0.30128663548E+01 -0.53636184441E+01  0.24200171610E+03  0.24207989665E+03  0.00000000000E+00 0. -1.
        -12    1    4    4    0    0  0.47111496627E+02  0.12527521721E+02  0.79974782345E+02  0.93661079035E+02  0.00000000000E+00 0.  1.
</event>
<event>
12    1  0.8633375E-002  0.1818883E+03  0.7818608E-02  0.1166053E+00
         21   -1    0    0  503  502  0.00000000000E+00  0.00000000000E+00  0.84385138178E+02  0.84385138178E+02  0.00000000000E+00 0. -1.
         21   -1    0    0  501  503 -0.00000000000E+00 -0.00000000000E+00 -0.39827840466E+03  0.39827840466E+03  0.00000000000E+00 0. -1.
          6    2    1    2  501    0  0.52578412685E+02  0.25922209648E+02 -0.18863402973E+03  0.26204228350E+03  0.17218278293E+03 0.  0.
         24    2    3    3    0    0 -0.11715707564E+01  0.71202500111E+01 -0.17199319984E+02  0.81336655168E+02  0.79169213257E+02 0.  0.
         -6    2    1    2    0  502 -0.52578412685E+02 -0.25922209648E+02 -0.12525923675E+03  0.22062125933E+03  0.17189361025E+03 0.  0.
        -24    2    5    5    0    0 -0.44054916015E+02  0.50848623360E+02 -0.68427244483E+02  0.12460888440E+03  0.79490050700E+02 0.  0.
          5    1    3    3  501    0  0.53749983441E+02  0.18801959637E+02 -0.17143470974E+03  0.18070562833E+03  0.47000000000E+01 0. -1.
        -11    1    4    4    0    0  0.24066127728E+02  0.24312616147E+02 -0.32495208656E+02  0.47182840031E+02  0.00000000000E+00 0.  1.
         12    1    4    4    0    0 -0.25237698485E+02 -0.17192366136E+02  0.15295888672E+02  0.34153815137E+02  0.00000000000E+00 0. -1.
         -5    1    5    5    0  502 -0.85234966698E+01 -0.76770833008E+02 -0.56831992267E+02  0.96012374938E+02  0.47000000000E+01 0.  1.
         13    1    6    6    0    0 -0.92224003171E+01  0.26716830289E+02  0.14288713067E+02  0.31670317482E+02  0.00000000000E+00 0. -1.
        -14    1    6    6    0    0 -0.34832515698E+02  0.24131793070E+02 -0.82715957550E+02  0.92938566914E+02  0.00000000000E+00 0.  1.
</event>
<event>
12    1  0.8633375E-002  0.2021972E+03  0.7818608E-02  0.1148170E+00
         21   -1    0    0  501  502  0.00000000000E+00  0.00000000000E+00  0.55272884697E+03  0.55272884697E+03  0.00000000000E+00 0. -1.
         21   -1    0    0  502  503 -0.00000000000E+00 -0.00000000000E+00 -0.14082892482E+03  0.14082892482E+03  0.00000000000E+00 0. -1.
         -6    2    1    2    0  503  0.62495743817E+02  0.84569432650E+02 -0.34187097190E+02  0.20378504815E+03  0.17117792294E+03 0.  0.
        -24    2    3    3    0    0  0.37403098222E+02  0.12497673560E+03 -0.32281641444E+02  0.15595083700E+03  0.79122582050E+02 0.  0.
          6    2    1    2  501    0 -0.62495743817E+02 -0.84569432650E+02  0.44608701934E+03  0.48977272365E+03  0.17270201236E+03 0.  0.
         24    2    5    5    0    0 -0.67907990820E+02 -0.22798546864E+02  0.13458244897E+03  0.17212177983E+03  0.79888688586E+02 0.  0.
          5    1    5    5  501    0  0.54122470025E+01 -0.61770885786E+02  0.31150457037E+03  0.31765094382E+03  0.47000000000E+01 0. -1.
        -13    1    6    6    0    0 -0.83058347053E+02 -0.20648246800E+02  0.86591448340E+02  0.12175022808E+03  0.00000000000E+00 0.  1.
         14    1    6    6    0    0  0.15150356233E+02 -0.21503000638E+01  0.47991000630E+02  0.50371551751E+02  0.00000000000E+00 0. -1.
         -5    1    3    3    0  503  0.25092645595E+02 -0.40407302947E+02 -0.19054557459E+01  0.47834211147E+02  0.47000000000E+01 0.  1.
         11    1    4    4    0    0  0.33852504777E+02  0.88257889489E+02 -0.58071022313E+02  0.11094003231E+03  0.00000000000E+00 0. -1.
        -12    1    4    4    0    0  0.35505934453E+01  0.36718846108E+02  0.25789380869E+02  0.45010804691E+02  0.00000000000E+00 0.  1.
</event>
<event>
12    1  0.8633375E-002  0.1829209E+03  0.7818608E-02  0.1165418E+00
         21   -1    0    0  501  502  0.00000000000E+00  0.00000000000E+00  0.38062597822E+03  0.38062597822E+03  0.00000000000E+00 0. -1.
         21   -1    0    0  502  503 -0.00000000000E+00 -0.00000000000E+00 -0.94371804117E+02  0.94371804117E+02  0.00000000000E+00 0. -1.
         -6    2    1    2    0  503 -0.56380554415E+02 -0.86216198261E+00  0.20852326236E+03  0.27624625881E+03  0.17219330509E+03 0.  0.
        -24    2    3    3    0    0  0.73666178917E+01  0.22446613361E+02  0.18770053584E+03  0.20509376816E+03  0.79207607419E+02 0.  0.
          6    2    1    2  501    0  0.56380554415E+02  0.86216198261E+00  0.77730911736E+02  0.19875152352E+03  0.17401311222E+03 0.  0.
         24    2    5    5    0    0  0.38356547758E+02  0.50714796809E+01 -0.26145119483E+02  0.93134749131E+02  0.80582687724E+02 0.  0.
          5    1    5    5  501    0  0.18024006658E+02 -0.42093176983E+01  0.10387603122E+03  0.10561677439E+03  0.47000000000E+01 0. -1.
        -13    1    6    6    0    0  0.23968019370E+02 -0.36357548614E+02 -0.22790240160E+02  0.49150100105E+02  0.00000000000E+00 0.  1.
         14    1    6    6    0    0  0.14388528388E+02  0.41429028295E+02 -0.33548793235E+01  0.43984649026E+02  0.00000000000E+00 0. -1.
         -5    1    3    3    0  503 -0.63747172307E+02 -0.23308775344E+02  0.20822726519E+02  0.71152490644E+02  0.47000000000E+01 0.  1.
         11    1    4    4    0    0 -0.35070512332E+02  0.94732753129E+00  0.79593157151E+02  0.86982233416E+02  0.00000000000E+00 0. -1.
        -12    1    4    4    0    0  0.42437130224E+02  0.21499285830E+02  0.10810737869E+03  0.11811153475E+03  0.00000000000E+00 0.  1.
</event>
<event>
12    1  0.8633375E-002  0.2009806E+03  0.7818608E-02  0.1149211E+00
         21   -1    0    0  503  502  0.00000000000E+00  0.00000000000E+00  0.29246215369E+03  0.29246215369E+03  0.00000000000E+00 0. -1.
         21   -1    0    0  501  503 -0.00000000000E+00 -0.00000000000E+00 -0.26184365537E+03  0.26184365537E+03  0.00000000000E+00 0.  1.
          6    2    1    2  501    0 -0.43889766715E+02  0.90320335216E+02 -0.17597817356E+03  0.26607776623E+03  0.17246734630E+03 0.  0.
         24    2    3    3    0    0 -0.50403794290E+02 -0.97717035870E+01 -0.11463329957E+03  0.14840817648E+03  0.79045333875E+02 0.  0.
         -6    2    1    2    0  502  0.43889766715E+02 -0.90320335216E+02  0.20659667189E+03  0.28822804283E+03  0.17409521895E+03 0.  0.
        -24    2    5    5    0    0  0.49602907976E+01 -0.12470776830E+03  0.14630672959E+03  0.20850999724E+03  0.80586151828E+02 0.  0.
          5    1    3    3  501    0  0.65140275756E+01  0.10009203880E+03 -0.61344873995E+02  0.11766958975E+03  0.47000000000E+01 0. -1.
        -13    1    4    4    0    0  0.14552919412E+02  0.94747462528E+01 -0.56594746695E+02  0.59199017166E+02  0.00000000000E+00 0.  1.
         14    1    4    4    0    0 -0.64956713702E+02 -0.19246449840E+02 -0.58038552871E+02  0.89209159315E+02  0.00000000000E+00 0. -1.
         -5    1    5    5    0  502  0.38929475917E+02  0.34387433087E+02  0.60289942296E+02  0.79718045583E+02  0.47000000000E+01 0.  1.
         11    1    6    6    0    0  0.38490143150E+02 -0.96391337935E+02  0.11286357683E+03  0.15333286707E+03  0.00000000000E+00 0. -1.
        -12    1    6    6    0    0 -0.33529852353E+02 -0.28316430369E+02  0.33443152760E+02  0.55177130173E+02  0.00000000000E+00 0.  1.
</event>
<event>
12    1  0.8633375E-002  0.2266817E+03  0.7818608E-02  0.1129099E+00
         21   -1    0    0  501  502  0.00000000000E+00  0.00000000000E+00  0.12708135302E+03  0.12708135302E+03  0.00000000000E+00 0.  1.
         21   -1    0    0  502  503 -0.00000000000E+00 -0.00000000000E+00 -0.45371729387E+03  0.45371729387E+03  0.00000000000E+00 0.  1.
         -6    2    1    2    0  503  0.37654689661E+01  0.14676449874E+03 -0.25990487970E+03  0.34449875588E+03  0.17197339755E+03 0.  0.
        -24    2    3    3    0    0 -0.46702159537E+02  0.10321226983E+03 -0.23527261673E+03  0.27327645215E+03  0.80578848157E+02 0.  0.
          6    2    1    2  501    0 -0.37654689661E+01 -0.14676449874E+03 -0.66731061148E+02  0.23629989101E+03  0.17271539341E+03 0.  0.
         24    2    5    5    0    0 -0.52257183080E+02 -0.13130318257E+03 -0.13719103688E+02  0.16265984572E+03  0.79364177489E+02 0.  0.
          5    1    5    5  501    0  0.48491714114E+02 -0.15461316165E+02 -0.53011957460E+02  0.73640045281E+02  0.47000000000E+01 0. -1.
        -11    1    6    6    0    0 -0.43219282239E+02 -0.87512598557E+02  0.27964637368E+02  0.10153020342E+03  0.00000000000E+00 0.  1.
         12    1    6    6    0    0 -0.90379008413E+01 -0.43790584013E+02 -0.41683741056E+02  0.61129642304E+02  0.00000000000E+00 0. -1.
         -5    1    3    3    0  503  0.50467628503E+02  0.43552228902E+02 -0.24632262973E+02  0.71222303727E+02  0.47000000000E+01 0.  1.
         13    1    4    4    0    0 -0.42834955351E+02  0.84263434016E+01 -0.85227149162E+02  0.95757525121E+02  0.00000000000E+00 0. -1.
        -14    1    4    4    0    0 -0.38672041853E+01  0.94785926432E+02 -0.15004546756E+03  0.17751892703E+03  0.00000000000E+00 0.  1.
</event>
<event>
12    1  0.8633375E-002  0.1990122E+03  0.7818608E-02  0.1151127E+00
         21   -1    0    0  501  502  0.00000000000E+00  0.00000000000E+00  0.38048241946E+03  0.38048241946E+03  0.00000000000E+00 0. -1.
         21   -1    0    0  502  503 -0.00000000000E+00 -0.00000000000E+00 -0.10308643788E+03  0.10308643788E+03  0.00000000000E+00 0. -1.
         -6    2    1    2    0  503 -0.27717036437E+02  0.87775320755E+02  0.15166336994E+03  0.24816590682E+03  0.17352751507E+03 0.  0.
        -24    2    3    3    0    0  0.32906334967E+02  0.57300961615E+02  0.14538708326E+03  0.17986245523E+03  0.82745826108E+02 0.  0.
          6    2    1    2  501    0  0.27717036437E+02 -0.87775320755E+02  0.12573261164E+03  0.23540295052E+03  0.17644579462E+03 0.  0.
         24    2    5    5    0    0  0.35488541984E+02  0.18127369785E+02  0.78783368639E+02  0.11920442393E+03  0.80092679831E+02 0.  0.
          5    1    5    5  501    0 -0.77715055473E+01 -0.10590269054E+03  0.46949243004E+02  0.11619852659E+03  0.47000000000E+01 0. -1.
        -11    1    6    6    0    0  0.48274905561E+02 -0.17700037635E+02  0.45063383254E+02  0.68370069105E+02  0.00000000000E+00 0.  1.
         12    1    6    6    0    0 -0.12786363576E+02  0.35827407420E+02  0.33719985386E+02  0.50834354824E+02  0.00000000000E+00 0. -1.
         -5    1    3    3    0  503 -0.60623371404E+02  0.30474359140E+02  0.62762866768E+01  0.68303451595E+02  0.47000000000E+01 0.  1.
         13    1    4    4    0    0  0.12866885783E+02  0.33500581275E+02  0.51965689593E+01  0.36260860779E+02  0.00000000000E+00 0. -1.
        -14    1    4    4    0    0  0.20039449184E+02  0.23800380341E+02  0.14019051430E+03  0.14360159445E+03  0.00000000000E+00 0.  1.
</event>
<event>
12    1  0.8633375E-002  0.3360713E+03  0.7818608E-02  0.1068533E+00
         21   -1    0    0  501  502  0.00000000000E+00  0.00000000000E+00  0.21918588610E+03  0.21918588610E+03  0.00000000000E+00 0. -1.
         21   -1    0    0  502  503 -0.00000000000E+00 -0.00000000000E+00 -0.54246374279E+03  0.54246374279E+03  0.00000000000E+00 0. -1.
         -6    2    1    2    0  503  0.12894429955E+03 -0.25777428461E+03 -0.75171556936E+02  0.34391684772E+03  0.17191224792E+03 0.  0.
        -24    2    3    3    0    0  0.30686196040E+02 -0.35124169772E+02 -0.33645393680E+02  0.96987220548E+02  0.78097109448E+02 0.  0.
          6    2    1    2  501    0 -0.12894429955E+03  0.25777428461E+03 -0.24810629976E+03  0.41773278117E+03  0.17282860380E+03 0.  0.
         24    2    5    5    0    0 -0.58449221221E+02  0.39871006806E+02 -0.70166126803E+02  0.12767039185E+03  0.79815004601E+02 0.  0.
          5    1    5    5  501    0 -0.70495078329E+02  0.21790327780E+03 -0.17794017295E+03  0.29006238932E+03  0.47000000000E+01 0. -1.
        -13    1    6    6    0    0 -0.89047044350E+01 -0.13360564856E+02  0.10406618306E+02  0.19133639458E+02  0.00000000000E+00 0.  1.
         14    1    6    6    0    0 -0.49544516786E+02  0.53231571662E+02 -0.80572745109E+02  0.10853675239E+03  0.00000000000E+00 0. -1.
         -5    1    3    3    0  503  0.98258103511E+02 -0.22265011484E+03 -0.41526163256E+02  0.24692962718E+03  0.47000000000E+01 0.  1.
         13    1    4    4    0    0  0.50866261529E+02 -0.78457729512E+01 -0.34793083661E+01  0.51585252755E+02  0.00000000000E+00 0. -1.
        -14    1    4    4    0    0 -0.20180065489E+02 -0.27278396821E+02 -0.30166085314E+02  0.45401967792E+02  0.00000000000E+00 0.  1.
</event>
<event>
12    1  0.8633375E-002  0.2017631E+03  0.7818608E-02  0.1148426E+00
         21   -1    0    0  501  502  0.00000000000E+00  0.00000000000E+00  0.49269949174E+03  0.49269949174E+03  0.00000000000E+00 0. -1.
         21   -1    0    0  502  503 -0.00000000000E+00 -0.00000000000E+00 -0.19745791560E+03  0.19745791560E+03  0.00000000000E+00 0. -1.
         -6    2    1    2    0  503  0.64141902736E+02 -0.83422300026E+02 -0.11578802743E+03  0.23262681210E+03  0.17214790903E+03 0.  0.
        -24    2    3    3    0    0  0.48801541286E+02 -0.11760256758E+03 -0.10079163518E+03  0.19199924560E+03  0.10243438024E+03 0.  0.
          6    2    1    2  501    0 -0.64141902736E+02  0.83422300026E+02  0.41102960357E+03  0.45753059524E+03  0.17121754216E+03 0.  0.
         24    2    5    5    0    0 -0.61863522181E+00  0.43320951501E+02  0.89456819602E+02  0.12726635398E+03  0.79480278891E+02 0.  0.
          5    1    5    5  501    0 -0.63523267514E+02  0.40101348525E+02  0.32157278396E+03  0.33026424126E+03  0.47000000000E+01 0. -1.
        -13    1    6    6    0    0 -0.82022991344E+01 -0.22506716702E+02  0.19286684648E+02  0.30753962550E+02  0.00000000000E+00 0.  1.
         14    1    6    6    0    0  0.75836639126E+01  0.65827668203E+02  0.70170134953E+02  0.96512391426E+02  0.00000000000E+00 0. -1.
         -5    1    3    3    0  503  0.15340361450E+02  0.34180267555E+02 -0.14996392250E+02  0.40627566504E+02  0.47000000000E+01 0.  1.
         11    1    4    4    0    0 -0.27214660623E+02 -0.19369781400E+02 -0.44464912583E+02  0.55614338397E+02  0.00000000000E+00 0. -1.
        -12    1    4    4    0    0  0.76016201910E+02 -0.98232786181E+02 -0.56326722598E+02  0.13638490720E+03  0.00000000000E+00 0.  1.
</event>
<event>
12    1  0.8633375E-002  0.3128636E+03  0.7818608E-02  0.1079067E+00
         21   -1    0    0  501  502  0.00000000000E+00  0.00000000000E+00  0.84999053659E+02  0.84999053659E+02  0.00000000000E+00 0. -1.
         21   -1    0    0  502  503 -0.00000000000E+00 -0.00000000000E+00 -0.25624604798E+04  0.25624604798E+04  0.00000000000E+00 0. -1.
         -6    2    1    2    0  503  0.21782904923E+03  0.14329537639E+03 -0.22225266907E+04  0.22444394619E+04  0.17291774870E+03 0.  0.
        -24    2    3    3    0    0  0.91566201960E+02  0.80119433724E+02 -0.69295637707E+03  0.70835973070E+03  0.82349708964E+02 0.  0.
          6    2    1    2  501    0 -0.21782904923E+03 -0.14329537639E+03 -0.25493473544E+03  0.40302007153E+03  0.17161118592E+03 0.  0.
         24    2    5    5    0    0 -0.54257545719E+02 -0.10141217406E+03 -0.13986670649E+03  0.19863665565E+03  0.81642605712E+02 0.  0.
          5    1    5    5  501    0 -0.16357150351E+03 -0.41883202336E+02 -0.11506802895E+03  0.20438341588E+03  0.47000000000E+01 0. -1.
        -11    1    6    6    0    0 -0.66870811172E+02 -0.10718294100E+03 -0.13190238375E+03  0.18264207365E+03  0.00000000000E+00 0.  1.
         12    1    6    6    0    0  0.12613265453E+02  0.57707669436E+01 -0.79643227388E+01  0.15994581995E+02  0.00000000000E+00 0. -1.
         -5    1    3    3    0  503  0.12626284727E+03  0.63175942670E+02 -0.15295703136E+04  0.15360797312E+04  0.47000000000E+01 0.  1.
         11    1    4    4    0    0  0.99291912534E+02  0.73321817618E+02 -0.49573270779E+03  0.51086778172E+03  0.00000000000E+00 0. -1.
        -12    1    4    4    0    0 -0.77257105741E+01  0.67976161064E+01 -0.19722366928E+03  0.19749194898E+03  0.00000000000E+00 0.  1.
</event>
<event>
12    1  0.8633375E-002  0.1974224E+03  0.7818608E-02  0.1152036E+00
         21   -1    0    0  503  502  0.00000000000E+00  0.00000000000E+00  0.40120382026E+03  0.40120382026E+03  0.00000000000E+00 0. -1.
         21   -1    0    0  501  503 -0.00000000000E+00 -0.00000000000E+00 -0.17125677779E+03  0.17125677779E+03  0.00000000000E+00 0.  1.
          6    2    1    2  501    0  0.96457449738E+02  0.51782365094E+01 -0.73700602773E+02  0.21027628123E+03  0.17162016739E+03 0.  0.
         24    2    3    3    0    0 -0.38445388604E+01 -0.25492808674E+02 -0.53280078451E+02  0.10331699111E+03  0.84681580757E+02 0.  0.
         -6    2    1    2    0  502 -0.96457449738E+02 -0.51782365094E+01  0.30364764525E+03  0.36218431682E+03  0.17217645931E+03 0.  0.
        -24    2    5    5    0    0 -0.78715337756E+02 -0.26688344200E+02  0.31218171102E+03  0.33264810939E+03  0.79303038221E+02 0.  0.
          5    1    3    3  501    0  0.10030198860E+03  0.30671045184E+02 -0.20420524322E+02  0.10695929012E+03  0.47000000000E+01 0. -1.
        -11    1    4    4    0    0  0.88956334360E+01  0.15785348390E+02 -0.57141269737E+02  0.59945260239E+02  0.00000000000E+00 0.  1.
         12    1    4    4    0    0 -0.12740172296E+02 -0.41278157064E+02  0.38611912858E+01  0.43371730873E+02  0.00000000000E+00 0. -1.
         -5    1    5    5    0  502 -0.17742111982E+02  0.21510107691E+02 -0.85340657753E+01  0.29536207426E+02  0.47000000000E+01 0.  1.
         11    1    6    6    0    0 -0.66312440673E+02  0.17222967047E+02  0.20542639254E+03  0.21655016309E+03  0.00000000000E+00 0. -1.
        -12    1    6    6    0    0 -0.12402897083E+02 -0.43911311248E+02  0.10675531849E+03  0.11609794631E+03  0.00000000000E+00 0.  1.
</event>
<event>
12    1  0.8633375E-002  0.1753953E+03  0.7818608E-02  0.1172348E+00
         21   -1    0    0  501  502  0.00000000000E+00  0.00000000000E+00  0.52069316457E+03  0.52069316457E+03  0.00000000000E+00 0.  1.
         21   -1    0    0  502  503 -0.00000000000E+00 -0.00000000000E+00 -0.13245859068E+03  0.13245859068E+03  0.00000000000E+00 0. -1.
         -6    2    1    2    0  503  0.10447484630E+02  0.33144344103E+02 -0.48963718734E+02  0.18210150932E+03  0.17191805159E+03 0.  0.
        -24    2    3    3    0    0 -0.48976340966E+02 -0.17609135883E+02 -0.36833227176E+02  0.10287811881E+03  0.80736962193E+02 0.  0.
          6    2    1    2  501    0 -0.10447484630E+02 -0.33144344103E+02  0.43719829262E+03  0.47105024593E+03  0.17186706967E+03 0.  0.
         24    2    5    5    0    0 -0.68701584542E+02 -0.41906302266E+02  0.23658009521E+03  0.26190899414E+03  0.78422789247E+02 0.  0.
          5    1    5    5  501    0  0.58254099913E+02  0.87619581626E+01  0.20061819741E+03  0.20914125179E+03  0.47000000000E+01 0. -1.
        -11    1    6    6    0    0 -0.79817126287E+02 -0.35390355975E+02  0.14374512942E+03  0.16818416447E+03  0.00000000000E+00 0.  1.
         12    1    6    6    0    0  0.11115541744E+02 -0.65159462909E+01  0.92834965787E+02  0.93724829672E+02  0.00000000000E+00 0. -1.
         -5    1    3    3    0  503  0.59423825596E+02  0.50753479987E+02 -0.12130491558E+02  0.79223390515E+02  0.47000000000E+01 0.  1.
         13    1    4    4    0    0 -0.67466605217E+02  0.40259589967E+01 -0.25178321947E+02  0.72124191929E+02  0.00000000000E+00 0. -1.
        -14    1    4    4    0    0  0.18490264251E+02 -0.21635094880E+02 -0.11654905229E+02  0.30753926878E+02  0.00000000000E+00 0.  1.
</event>
<event>
12    1  0.8633375E-002  0.3509501E+03  0.7818608E-02  0.1062393E+00
         21   -1    0    0  503  502  0.00000000000E+00  0.00000000000E+00  0.43686767230E+03  0.43686767230E+03  0.00000000000E+00 0. -1.
         21   -1    0    0  501  503 -0.00000000000E+00 -0.00000000000E+00 -0.30750860967E+03  0.30750860967E+03  0.00000000000E+00 0.  1.
          6    2    1    2  501    0  0.24983547661E+03  0.17331156117E+03  0.17486518963E+03  0.39210177372E+03  0.17524640880E+03 0.  0.
         24    2    3    3    0    0  0.24400323421E+03  0.13640554678E+03  0.19458480932E+03  0.34959268821E+03  0.78789264107E+02 0.  0.
         -6    2    1    2    0  502 -0.24983547661E+03 -0.17331156117E+03 -0.45506126993E+02  0.35227450825E+03  0.17196470265E+03 0.  0.
        -24    2    5    5    0    0 -0.11346518593E+03 -0.91498350151E+02 -0.86491264182E+02  0.18798169298E+03  0.81302408440E+02 0.  0.
          5    1    3    3  501    0  0.58322424032E+01  0.36906014394E+02 -0.19719619684E+02  0.42509085504E+02  0.47000000000E+01 0. -1.
        -11    1    4    4    0    0  0.48503504090E+02  0.53589793176E+01  0.63849745657E+02  0.80362295816E+02  0.00000000000E+00 0.  1.
         12    1    4    4    0    0  0.19549973012E+03  0.13104656746E+03  0.13073506366E+03  0.26923039240E+03  0.00000000000E+00 0. -1.
         -5    1    5    5    0  502 -0.13637029068E+03 -0.81813211023E+02  0.40985137189E+02  0.16429281527E+03  0.47000000000E+01 0.  1.
         11    1    6    6    0    0 -0.45359819883E+02 -0.10354119858E+01  0.20139324792E+00  0.45372082794E+02  0.00000000000E+00 0. -1.
        -12    1    6    6    0    0 -0.68105366051E+02 -0.90462938166E+02 -0.86692657430E+02  0.14260961019E+03  0.00000000000E+00 0.  1.
</event>
<event>
12    1  0.8633375E-002  0.2121819E+03  0.7818608E-02  0.1139905E+00
         21   -1    0    0  501  502  0.00000000000E+00  0.00000000000E+00  0.30644678229E+03  0.30644678229E+03  0.00000000000E+00 0. -1.
         21   -1    0    0  502  503 -0.00000000000E+00 -0.00000000000E+00 -0.16889907422E+03  0.16889907422E+03  0.00000000000E+00 0. -1.
         -6    2    1    2    0  503  0.11915508413E+03  0.34102887605E+02 -0.17393637433E+02  0.21261406259E+03  0.17187571082E+03 0.  0.
        -24    2    3    3    0    0  0.38577640079E+02  0.76929225232E+02 -0.54209295334E+01  0.12046062847E+03  0.84113236327E+02 0.  0.
          6    2    1    2  501    0 -0.11915508413E+03 -0.34102887605E+02  0.15494134550E+03  0.26273179392E+03  0.17222146781E+03 0.  0.
         24    2    5    5    0    0 -0.66726280535E+02 -0.12303279878E+02  0.17346666737E+03  0.20282119474E+03  0.80261978158E+02 0.  0.
          5    1    5    5  501    0 -0.52428803599E+02 -0.21799607727E+02 -0.18525321870E+02  0.59910599181E+02  0.47000000000E+01 0. -1.
        -11    1    6    6    0    0 -0.29672106294E+02 -0.15642456713E+02  0.97509861354E+01  0.34931390962E+02  0.00000000000E+00 0.  1.
         12    1    6    6    0    0 -0.37054174241E+02  0.33391768351E+01  0.16371568124E+03  0.16788980378E+03  0.00000000000E+00 0. -1.
         -5    1    3    3    0  503  0.80577444055E+02 -0.42826337627E+02 -0.11972707899E+02  0.92153434117E+02  0.47000000000E+01 0.  1.
         11    1    4    4    0    0  0.61708778467E+02  0.62889130344E+02  0.11026579455E+02  0.88795278646E+02  0.00000000000E+00 0. -1.
        -12    1    4    4    0    0 -0.23131138387E+02  0.14040094888E+02 -0.16447508988E+02  0.31665349824E+02  0.00000000000E+00 0.  1.
</event>
<event>
12    1  0.8633375E-002  0.1748451E+03  0.7818608E-02  0.1173167E+00
         21   -1    0    0  503  502  0.00000000000E+00  0.00000000000E+00  0.11083746026E+04  0.11083746026E+04  0.00000000000E+00 0.  1.
         21   -1    0    0  501  503 -0.00000000000E+00 -0.00000000000E+00 -0.28268746620E+02  0.28268746620E+02  0.00000000000E+00 0.  1.
          6    2    1    2  501    0 -0.24544467811E+02 -0.11817960908E+01  0.44249335881E+03  0.47578481528E+03  0.17310976377E+03 0.  0.
         24    2    3    3    0    0  0.47527289063E+02  0.22625121208E+02  0.28790999753E+03  0.30350825554E+03  0.80339001645E+02 0.  0.
         -6    2    1    2    0  502  0.24544467811E+02  0.11817960908E+01  0.63761249717E+03  0.66085853395E+03  0.17198976075E+03 0.  0.
        -24    2    5    5    0    0 -0.31103945311E+01 -0.59690627342E+02  0.46673938707E+03  0.47731030296E+03  0.80042640616E+02 0.  0.
          5    1    3    3  501    0 -0.72071756874E+02 -0.23806917299E+02  0.15458336129E+03  0.17227655974E+03  0.47000000000E+01 0. -1.
        -11    1    4    4    0    0  0.35767452238E+01 -0.27244611179E+02  0.57970475149E+02  0.64153237905E+02  0.00000000000E+00 0.  1.
         12    1    4    4    0    0  0.43950543840E+02  0.49869732387E+02  0.22993952238E+03  0.23935501763E+03  0.00000000000E+00 0. -1.
         -5    1    5    5    0  502  0.27654862342E+02  0.60872423433E+02  0.17087311010E+03  0.18354823099E+03  0.47000000000E+01 0.  1.
         11    1    6    6    0    0 -0.16663178182E+02 -0.50655836367E+02  0.45263108051E+03  0.45576152789E+03  0.00000000000E+00 0. -1.
        -12    1    6    6    0    0  0.13552783651E+02 -0.90347909751E+01  0.14108306566E+02  0.21548775066E+02  0.00000000000E+00 0.  1.
</event>
<event>
12    1  0.8633375E-002  0.2055591E+03  0.7818608E-02  0.1145249E+00
         21   -1    0    0  503  502  0.00000000000E+00  0.00000000000E+00  0.58269014665E+03  0.58269014665E+03  0.00000000000E+00 0. -1.
         21   -1    0    0  501  503 -0.00000000000E+00 -0.00000000000E+00 -0.80187880570E+02  0.80187880570E+02  0.00000000000E+00 0. -1.
          6    2    1    2  501    0  0.11225428745E+03 -0.85445573467E+01  0.14707542348E+03  0.25228970867E+03  0.17130348041E+03 0.  0.
         24    2    3    3    0    0  0.59557260935E+02 -0.57050392247E+02  0.13910650478E+03  0.18007207726E+03  0.79205547459E+02 0.  0.
         -6    2    1    2    0  502 -0.11225428745E+03  0.85445573467E+01  0.35542684260E+03  0.41058831854E+03  0.17198980311E+03 0.  0.
        -24    2    5    5    0    0 -0.58492002432E+02  0.70879511116E+02  0.19756166511E+03  0.23248853187E+03  0.81086906975E+02 0.  0.
          5    1    3    3  501    0  0.52697026511E+02  0.48505834901E+02  0.79689186927E+01  0.72217631418E+02  0.47000000000E+01 0. -1.
        -11    1    4    4    0    0  0.37458874600E+01 -0.52055751509E+02  0.38290006631E+02  0.64729881398E+02  0.00000000000E+00 0.  1.
         12    1    4    4    0    0  0.55811373475E+02 -0.49946407381E+01  0.10081649815E+03  0.11534219586E+03  0.00000000000E+00 0. -1.
         -5    1    5    5    0  502 -0.53762285013E+02 -0.62334953769E+02  0.15786517749E+03  0.17809978668E+03  0.47000000000E+01 0.  1.
         13    1    6    6    0    0 -0.48837446002E+02 -0.12166656910E+01  0.93959182779E+02  0.10590044587E+03  0.00000000000E+00 0. -1.
        -14    1    6    6    0    0 -0.96545564297E+01  0.72096176807E+02  0.10360248233E+03  0.12658808599E+03  0.00000000000E+00 0.  1.
</event>
<event>
12    1  0.8633375E-002  0.1787161E+03  0.7818608E-02  0.1169304E+00
         21   -1    0    0  501  502  0.00000000000E+00  0.00000000000E+00  0.91952131466E+02  0.91952131466E+02  0.00000000000E+00 0.  1.
         21   -1    0    0  502  503 -0.00000000000E+00 -0.00000000000E+00 -0.34612576514E+03  0.34612576514E+03  0.00000000000E+00 0.  1.
         -6    2    1    2    0  503  0.47811380452E+02 -0.16507859878E+01 -0.11635125046E+03  0.21239124301E+03  0.17112502279E+03 0.  0.
        -24    2    3    3    0    0 -0.21905877183E+02  0.35253565989E+02 -0.28885095712E+02  0.94514844036E+02  0.79850019528E+02 0.  0.
          6    2    1    2  501    0 -0.47811380452E+02  0.16507859878E+01 -0.13782238321E+03  0.22568665361E+03  0.17219408557E+03 0.  0.
         24    2    5    5    0    0 -0.36044811219E+02 -0.33556168358E+02 -0.15741209645E+03  0.18345125790E+03  0.80315322730E+02 0.  0.
          5    1    5    5  501    0 -0.11766569233E+02  0.35206954346E+02  0.19589713236E+02  0.42235395706E+02  0.47000000000E+01 0. -1.
        -11    1    6    6    0    0 -0.48973560710E+02 -0.11569299027E+02 -0.42879373656E+02  0.66112774966E+02  0.00000000000E+00 0.  1.
         12    1    6    6    0    0  0.12928749491E+02 -0.21986869331E+02 -0.11453272279E+03  0.11733848293E+03  0.00000000000E+00 0. -1.
         -5    1    3    3    0  503  0.69717257636E+02 -0.36904351977E+02 -0.87466154752E+02  0.11787639897E+03  0.47000000000E+01 0.  1.
         13    1    4    4    0    0 -0.19812070361E+02  0.33421206211E+01  0.24866486644E+02  0.31969204873E+02  0.00000000000E+00 0. -1.
        -14    1    4    4    0    0 -0.20938068227E+01  0.31911445368E+02 -0.53751582356E+02  0.62545639163E+02  0.00000000000E+00 0.  1.
</event>
<event>
12    1  0.8633375E-002  0.1935146E+03  0.7818608E-02  0.1155342E+00
         21   -1    0    0  501  502  0.00000000000E+00  0.00000000000E+00  0.46598682007E+03  0.46598682007E+03  0.00000000000E+00 0. -1.
         21   -1    0    0  502  503 -0.00000000000E+00 -0.00000000000E+00 -0.11399110464E+03  0.11399110464E+03  0.00000000000E+00 0. -1.
         -6    2    1    2    0  503  0.50805191104E+02  0.71605866965E+02  0.18412539282E+02  0.19432827496E+03  0.17238297254E+03 0.  0.
        -24    2    3    3    0    0 -0.18549735220E+02  0.67504159248E+02 -0.28883355318E+02  0.11015035947E+03  0.79987181995E+02 0.  0.
          6    2    1    2  501    0 -0.50805191104E+02 -0.71605866965E+02  0.33358317615E+03  0.38564964974E+03  0.17245100553E+03 0.  0.
         24    2    5    5    0    0 -0.30978065751E+02  0.96236514322E+01  0.27337196843E+03  0.28250494996E+03  0.63439407333E+02 0.  0.
          5    1    5    5  501    0 -0.19827125353E+02 -0.81229518397E+02  0.60211207723E+02  0.10314469979E+03  0.47000000000E+01 0. -1.
        -13    1    6    6    0    0  0.18144312780E+02 -0.56923642371E+01  0.56572526575E+02  0.59683078506E+02  0.00000000000E+00 0.  1.
         14    1    6    6    0    0 -0.49122378531E+02  0.15316015669E+02  0.21679944185E+03  0.22282187145E+03  0.00000000000E+00 0. -1.
         -5    1    3    3    0  503  0.69354926324E+02  0.41017077161E+01  0.47295894600E+02  0.84177915498E+02  0.47000000000E+01 0.  1.
         11    1    4    4    0    0 -0.25704022089E+02  0.58048685299E+02  0.14547150891E+02  0.65130378592E+02  0.00000000000E+00 0. -1.
        -12    1    4    4    0    0  0.71542868693E+01  0.94554739490E+01 -0.43430506210E+02  0.45019980873E+02  0.00000000000E+00 0.  1.
</event>
<event>
12    1  0.8633375E-002  0.1905256E+03  0.7818608E-02  0.1158113E+00
         21   -1    0    0  503  502  0.00000000000E+00  0.00000000000E+00  0.10658362892E+04  0.10658362892E+04  0.00000000000E+00 0. -1.
         21   -1    0    0  501  503 -0.00000000000E+00 -0.00000000000E+00 -0.40597782137E+02  0.40597782137E+02  0.00000000000E+00 0. -1.
          6    2    1    2  501    0  0.26646849081E+01  0.82792691947E+02  0.73571532688E+03  0.75984545148E+03  0.17095712194E+03 0.  0.
         24    2    3    3    0    0  0.39007414766E+02  0.68230619245E+02  0.69145301770E+03  0.70056569112E+03  0.80672275740E+02 0.  0.
         -6    2    1    2    0  502 -0.26646849081E+01 -0.82792691947E+02  0.28952318021E+03  0.34658861988E+03  0.17157584087E+03 0.  0.
        -24    2    5    5    0    0 -0.16152313451E+01 -0.11527908844E+03  0.27890678970E+03  0.31207391204E+03  0.79430800280E+02 0.  0.
          5    1    3    3  501    0 -0.36342729858E+02  0.14562072701E+02  0.44262309183E+02  0.59279760367E+02  0.47000000000E+01 0. -1.
        -11    1    4    4    0    0 -0.37665559229E+01  0.23293461524E+02  0.46984979504E+03  0.47044192223E+03  0.00000000000E+00 0.  1.
         12    1    4    4    0    0  0.42773970689E+02  0.44937157721E+02  0.22160322266E+03  0.23012376889E+03  0.00000000000E+00 0. -1.
         -5    1    5    5    0  502 -0.10494535630E+01  0.32486396496E+02  0.10616390513E+02  0.34514707844E+02  0.47000000000E+01 0.  1.
         13    1    6    6    0    0  0.32087060035E+02 -0.87044172507E+02  0.21834280692E+03  0.23723374280E+03  0.00000000000E+00 0. -1.
        -14    1    6    6    0    0 -0.33702291380E+02 -0.28234915936E+02  0.60563982772E+02  0.74840169237E+02  0.00000000000E+00 0.  1.
</event>
<event>
12    1  0.8633375E-002  0.2136659E+03  0.7818608E-02  0.1138711E+00
         21   -1    0    0  503  502  0.00000000000E+00  0.00000000000E+00  0.62088752112E+02  0.62088752112E+02  0.00000000000E+00 0.  1.
         21   -1    0    0  501  503 -0.00000000000E+00 -0.00000000000E+00 -0.12983331746E+04  0.12983331746E+04  0.00000000000E+00 0.  1.
          6    2    1    2  501    0 -0.98811895528E+02  0.79002731673E+02 -0.10662348546E+04  0.10874326941E+04  0.17218558802E+03 0.  0.
         24    2    3    3    0    0 -0.60742621618E+02 -0.18298554903E+02 -0.38767366976E+03  0.40085845808E+03  0.79825597408E+02 0.  0.
         -6    2    1    2    0  502  0.98811895528E+02 -0.79002731673E+02 -0.17000956783E+03  0.27298923256E+03  0.17208906307E+03 0.  0.
        -24    2    5    5    0    0 -0.19183442383E+01  0.89048061221E+01 -0.66767684682E+02  0.10400611849E+03  0.79223565612E+02 0.  0.
          5    1    3    3  501    0 -0.38069273910E+02  0.97301286576E+02 -0.67856118487E+03  0.68657423604E+03  0.47000000000E+01 0. -1.
        -11    1    4    4    0    0 -0.19272818471E+02  0.11742649663E+02 -0.28722493446E+03  0.28811021212E+03  0.00000000000E+00 0.  1.
         12    1    4    4    0    0 -0.41469803147E+02 -0.30041204567E+02 -0.10044873530E+03  0.11274824597E+03  0.00000000000E+00 0. -1.
         -5    1    5    5    0  502  0.10073023977E+03 -0.87907537795E+02 -0.10324188315E+03  0.16898311407E+03  0.47000000000E+01 0.  1.
         11    1    6    6    0    0  0.55140610371E+01 -0.23440955858E+02  0.53057459915E+01  0.24658349928E+02  0.00000000000E+00 0. -1.
        -12    1    6    6    0    0 -0.74324052753E+01  0.32345761980E+02 -0.72073430674E+02  0.79347768559E+02  0.00000000000E+00 0.  1.
</event>
<event>
12    1  0.8633375E-002  0.1833209E+03  0.7818608E-02  0.1164949E+00
         21   -1    0    0  503  502  0.00000000000E+00  0.00000000000E+00  0.32478757713E+03  0.32478757713E+03  0.00000000000E+00 0.  1.
         21   -1    0    0  501  503 -0.00000000000E+00 -0.00000000000E+00 -0.21616693788E+03  0.21616693788E+03  0.00000000000E+00 0.  1.
          6    2    1    2  501    0  0.43032762831E+02 -0.42802324431E+02 -0.14173889171E+03  0.23065396726E+03  0.17154440107E+03 0.  0.
         24    2    3    3    0    0  0.83101447358E+02  0.67980780078E+01 -0.67586057170E+02  0.13274363956E+03  0.78108477784E+02 0.  0.
         -6    2    1    2    0  502 -0.43032762831E+02  0.42802324431E+02  0.25035953095E+03  0.31030054775E+03  0.17298172603E+03 0.  0.
        -24    2    5    5    0    0  0.14650609053E+02  0.39382507088E+02  0.23312266327E+03  0.24981694542E+03  0.79351798232E+02 0.  0.
          5    1    3    3  501    0 -0.40068684526E+02 -0.49600402439E+02 -0.74152834538E+02  0.97910327707E+02  0.47000000000E+01 0. -1.
        -13    1    4    4    0    0  0.94839103008E+02 -0.37030853513E+01 -0.68372962588E+02  0.11697448574E+03  0.00000000000E+00 0.  1.
         14    1    4    4    0    0 -0.11737655650E+02  0.10501163359E+02  0.78690541837E+00  0.15769153820E+02  0.00000000000E+00 0. -1.
         -5    1    5    5    0  502 -0.57683371884E+02  0.34198173427E+01  0.17236867687E+02  0.60483602325E+02  0.47000000000E+01 0.  1.
         13    1    6    6    0    0 -0.62783741651E+01  0.17082460357E+02  0.39637946316E+01  0.18626328191E+02  0.00000000000E+00 0. -1.
        -14    1    6    6    0    0  0.20928983218E+02  0.22300046731E+02  0.22915886863E+03  0.23119061723E+03  0.00000000000E+00 0.  1.
</event>
<event>
12    1  0.8633375E-002  0.1911429E+03  0.7818608E-02  0.1157673E+00
         21   -1    0    0  503  502  0.00000000000E+00  0.00000000000E+00  0.54352363046E+03  0.54352363046E+03  0.00000000000E+00 0. -1.
         21   -1    0    0  501  503 -0.00000000000E+00 -0.00000000000E+00 -0.38203620217E+03  0.38203620217E+03  0.00000000000E+00 0. -1.
          6    2    1    2  501    0  0.77940664184E+02  0.29403823233E+02 -0.33956370209E+03  0.38966537953E+03  0.17203565989E+03 0.  0.
         24    2    3    3    0    0  0.68328391559E+02  0.63667898769E+02 -0.13687608738E+03  0.18382373696E+03  0.79584750724E+02 0.  0.
         -6    2    1    2    0  502 -0.77940664184E+02 -0.29403823233E+02  0.50105113038E+03  0.53589445310E+03  0.17085460968E+03 0.  0.
        -24    2    5    5    0    0 -0.36659093111E+02  0.40182369467E+02  0.36330494027E+03  0.37607421278E+03  0.80515973378E+02 0.  0.
          5    1    3    3  501    0  0.96122726252E+01 -0.34264075536E+02 -0.20268761471E+03  0.20584164257E+03  0.47000000000E+01 0. -1.
        -13    1    4    4    0    0  0.17716805289E+02 -0.12295527939E+02 -0.29747104024E+01  0.21769568184E+02  0.00000000000E+00 0.  1.
         14    1    4    4    0    0  0.50611586270E+02  0.75963426708E+02 -0.13390137697E+03  0.16205416878E+03  0.00000000000E+00 0. -1.
         -5    1    5    5    0  502 -0.41281571072E+02 -0.69586192700E+02  0.13774619012E+03  0.15982024032E+03  0.47000000000E+01 0.  1.
         13    1    6    6    0    0 -0.52170540843E+02  0.16659123841E+02  0.31829418387E+03  0.32297132880E+03  0.00000000000E+00 0. -1.
        -14    1    6    6    0    0  0.15511447732E+02  0.23523245627E+02  0.45010756397E+02  0.53102883980E+02  0.00000000000E+00 0.  1.
</event>
<event>
12    1  0.8633375E-002  0.2390321E+03  0.7818608E-02  0.1120593E+00
         21   -1    0    0  501  502  0.00000000000E+00  0.00000000000E+00  0.80951653922E+03  0.80951653922E+03  0.00000000000E+00 0.  1.
         21   -1    0    0  502  503 -0.00000000000E+00 -0.00000000000E+00 -0.19270463342E+03  0.19270463342E+03  0.00000000000E+00 0.  1.
         -6    2    1    2    0  503  0.77619732099E+02  0.14553330206E+03 -0.90740454506E+02  0.25567589954E+03  0.17300742961E+03 0.  0.
        -24    2    3    3    0    0  0.25343239295E+02  0.13507667789E+03 -0.10179967218E+02  0.15895850296E+03  0.79222378430E+02 0.  0.
          6    2    1    2  501    0 -0.77619732099E+02 -0.14553330206E+03  0.70755236031E+03  0.74654527310E+03  0.17174031967E+03 0.  0.
         24    2    5    5    0    0 -0.64850130091E+02 -0.12975237954E+03  0.35410967439E+03  0.39248888991E+03  0.87250489046E+02 0.  0.
          5    1    5    5  501    0 -0.12769602008E+02 -0.15780922517E+02  0.35344268592E+03  0.35405638319E+03  0.47000000000E+01 0. -1.
        -13    1    6    6    0    0 -0.58071788880E+02 -0.23244634652E+02  0.13111915444E+03  0.14527518152E+03  0.00000000000E+00 0.  1.
         14    1    6    6    0    0 -0.67783412116E+01 -0.10650774489E+03  0.22299051995E+03  0.24721370840E+03  0.00000000000E+00 0. -1.
         -5    1    3    3    0  503  0.52276492805E+02  0.10456624176E+02 -0.80560487288E+02  0.96717396580E+02  0.47000000000E+01 0.  1.
         13    1    4    4    0    0 -0.22808232143E+02  0.83280454193E+02 -0.16666395104E+02  0.87940992886E+02  0.00000000000E+00 0. -1.
        -14    1    4    4    0    0  0.48151471437E+02  0.51796223693E+02  0.64864278857E+01  0.71017510075E+02  0.00000000000E+00 0.  1.
</event>
<event>
12    1  0.8633375E-002  0.1846759E+03  0.7818608E-02  0.1163762E+00
         21   -1    0    0  503  502  0.00000000000E+00  0.00000000000E+00  0.19790396618E+02  0.19790396618E+02  0.00000000000E+00 0.  1.
         21   -1    0    0  501  503 -0.00000000000E+00 -0.00000000000E+00 -0.17731930239E+04  0.17731930239E+04  0.00000000000E+00 0. -1.
          6    2    1    2  501    0  0.13128331666E+02 -0.61842182759E+02 -0.70764775678E+03  0.73134843439E+03  0.17351765369E+03 0.  0.
         24    2    3    3    0    0 -0.57906124488E+02 -0.23271703954E+02 -0.33510237612E+03  0.35010608830E+03  0.79912321490E+02 0.  0.
         -6    2    1    2    0  502 -0.13128331666E+02  0.61842182759E+02 -0.10457548705E+04  0.10616349862E+04  0.17166474870E+03 0.  0.
        -24    2    5    5    0    0  0.13459890944E+02  0.10450821717E+03 -0.73192527129E+03  0.74376955641E+03  0.79846190679E+02 0.  0.
          5    1    3    3  501    0  0.71034456154E+02 -0.38570478804E+02 -0.37254538066E+03  0.38124234609E+03  0.47000000000E+01 0. -1.
        -11    1    4    4    0    0  0.16787582391E+02  0.54453747784E+01 -0.10530539089E+03  0.10677406230E+03  0.00000000000E+00 0.  1.
         12    1    4    4    0    0 -0.74693706879E+02 -0.28717078732E+02 -0.22979698523E+03  0.24333202600E+03  0.00000000000E+00 0. -1.
         -5    1    5    5    0  502 -0.26588222610E+02 -0.42666034408E+02 -0.31382959924E+03  0.31786542976E+03  0.47000000000E+01 0.  1.
         11    1    6    6    0    0  0.13668938695E+02  0.10344971353E+03 -0.73402703844E+03  0.74140702470E+03  0.00000000000E+00 0. -1.
        -12    1    6    6    0    0 -0.20904775058E+00  0.10585036366E+01  0.21017671502E+01  0.23625317065E+01  0.00000000000E+00 0.  1.
</event>
<event>
12    1  0.8633375E-002  0.2011432E+03  0.7818608E-02  0.1150487E+00
         21   -1    0    0  503  502  0.00000000000E+00  0.00000000000E+00  0.40525446687E+03  0.40525446687E+03  0.00000000000E+00 0. -1.
         21   -1    0    0  501  503 -0.00000000000E+00 -0.00000000000E+00 -0.11593203227E+03  0.11593203227E+03  0.00000000000E+00 0. -1.
          6    2    1    2  501    0  0.30324603503E+02  0.80842272869E+02  0.38807424138E+02  0.20485267735E+03  0.18166878815E+03 0.  0.
         24    2    3    3    0    0 -0.45338845407E+02  0.81135262593E+02  0.20840931551E+02  0.12694293341E+03  0.83914374075E+02 0.  0.
         -6    2    1    2    0  502 -0.30324603503E+02 -0.80842272869E+02  0.25051501047E+03  0.31633382180E+03  0.17278385828E+03 0.  0.
        -24    2    5    5    0    0 -0.62409133039E+02 -0.10858982253E+03  0.17585716757E+03  0.23033831579E+03  0.80270460885E+02 0.  0.
          5    1    3    3  501    0  0.75663448910E+02 -0.29298972459E+00  0.17966492586E+02  0.77909743934E+02  0.47000000000E+01 0. -1.
        -13    1    4    4    0    0 -0.16767736589E+02  0.33738427690E+02  0.51396097405E+02  0.63725954852E+02  0.00000000000E+00 0.  1.
         14    1    4    4    0    0 -0.28571108819E+02  0.47396834903E+02 -0.30555165854E+02  0.63216978560E+02  0.00000000000E+00 0. -1.
         -5    1    5    5    0  502  0.32084529536E+02  0.27747549660E+02  0.74657842894E+02  0.85995506006E+02  0.47000000000E+01 0.  1.
         13    1    6    6    0    0 -0.36652176094E+02 -0.97137661339E+02  0.17331901546E+03  0.20203610663E+03  0.00000000000E+00 0. -1.
        -14    1    6    6    0    0 -0.25756956944E+02 -0.11452161190E+02  0.25381521100E+01  0.28302209156E+02  0.00000000000E+00 0.  1.
</event>
<event>
12    1  0.8633375E-002  0.2135583E+03  0.7818608E-02  0.1138884E+00
         21   -1    0    0  501  502  0.00000000000E+00  0.00000000000E+00  0.70916944691E+03  0.70916944691E+03  0.00000000000E+00 0. -1.
         21   -1    0    0  502  503 -0.00000000000E+00 -0.00000000000E+00 -0.28475593081E+03  0.28475593081E+03  0.00000000000E+00 0. -1.
         -6    2    1    2    0  503  0.12129982280E+03 -0.32150563704E+02 -0.22527362616E+03  0.31003902334E+03  0.17212984516E+03 0.  0.
        -24    2    3    3    0    0  0.68860068588E+02 -0.74417367422E+02 -0.83736537732E+02  0.15322305503E+03  0.78650131731E+02 0.  0.
          6    2    1    2  501    0 -0.12129982280E+03  0.32150563704E+02  0.64968714225E+03  0.68388635437E+03  0.17280004958E+03 0.  0.
         24    2    5    5    0    0  0.34474845779E+01  0.24164012164E+01  0.19195452870E+03  0.20850519507E+03  0.81302835964E+02 0.  0.
          5    1    5    5  501    0 -0.12474730738E+03  0.29734162487E+02  0.45773261355E+03  0.47538115931E+03  0.47000000000E+01 0. -1.
        -11    1    6    6    0    0  0.16128227402E+02  0.43090986662E+00  0.19471017623E+03  0.19537747600E+03  0.00000000000E+00 0.  1.
         12    1    6    6    0    0 -0.12680742824E+02  0.19854913498E+01 -0.27556475282E+01  0.13127719062E+02  0.00000000000E+00 0. -1.
         -5    1    3    3    0  503  0.52439754211E+02  0.42266803719E+02 -0.14153708842E+03  0.15681596831E+03  0.47000000000E+01 0.  1.
         13    1    4    4    0    0  0.65545200418E+02 -0.13066673832E+02 -0.41650755961E+02  0.78750852280E+02  0.00000000000E+00 0. -1.
        -14    1    4    4    0    0  0.33148681705E+01 -0.61350693590E+02 -0.42085781771E+02  0.74472202749E+02  0.00000000000E+00 0.  1.
</event>
<event>
12    1  0.8633375E-002  0.1920777E+03  0.7818608E-02  0.1158018E+00
         21   -1    0    0  501  502  0.00000000000E+00  0.00000000000E+00  0.11397671293E+03  0.11397671293E+03  0.00000000000E+00 0.  1.
         21   -1    0    0  502  503 -0.00000000000E+00 -0.00000000000E+00 -0.46605098413E+03  0.46605098413E+03  0.00000000000E+00 0.  1.
         -6    2    1    2    0  503  0.81001277263E+02  0.29314846207E+02 -0.34013214048E+03  0.38757910366E+03  0.16464240485E+03 0.  0.
        -24    2    3    3    0    0  0.39495385514E+02 -0.30888369115E+02 -0.27084200444E+03  0.28673080601E+03  0.79656681599E+02 0.  0.
          6    2    1    2  501    0 -0.81001277263E+02 -0.29314846207E+02 -0.11942130721E+02  0.19244859340E+03  0.17167783634E+03 0.  0.
         24    2    5    5    0    0 -0.16620506201E+02 -0.63572917386E+02 -0.44225494925E+02  0.11255613614E+03  0.79970196509E+02 0.  0.
          5    1    5    5  501    0 -0.64380771062E+02  0.34258071179E+02  0.32283364203E+02  0.79892457264E+02  0.47000000000E+01 0. -1.
        -13    1    6    6    0    0  0.13401929663E+02 -0.71107610970E+02 -0.27814317976E+02  0.77521225100E+02  0.00000000000E+00 0.  1.
         14    1    6    6    0    0 -0.30022435864E+02  0.75346935840E+01 -0.16411176949E+02  0.35034911038E+02  0.00000000000E+00 0. -1.
         -5    1    3    3    0  503  0.41505891749E+02  0.60203215322E+02 -0.69290136040E+02  0.10084829764E+03  0.47000000000E+01 0.  1.
         11    1    4    4    0    0 -0.74240842711E+00 -0.39978429873E+02 -0.61449127240E+02  0.73313172513E+02  0.00000000000E+00 0. -1.
        -12    1    4    4    0    0  0.40237793941E+02  0.90900607581E+01 -0.20939287720E+03  0.21341763350E+03  0.00000000000E+00 0.  1.
</event>
<event>
12    1  0.8633375E-002  0.1766869E+03  0.7818608E-02  0.1171453E+00
         21   -1    0    0  503  502  0.00000000000E+00  0.00000000000E+00  0.79692532036E+02  0.79692532036E+02  0.00000000000E+00 0. -1.
         21   -1    0    0  501  503 -0.00000000000E+00 -0.00000000000E+00 -0.38883653102E+03  0.38883653102E+03  0.00000000000E+00 0. -1.
          6    2    1    2  501    0 -0.15258637288E+02  0.35628575417E+02 -0.16517020315E+03  0.24186664417E+03  0.17238345674E+03 0.  0.
         24    2    3    3    0    0  0.42147407928E+02 -0.74893431963E+01 -0.45082029738E+02  0.10187425750E+03  0.80706137806E+02 0.  0.
         -6    2    1    2    0  502  0.15258637288E+02 -0.35628575417E+02 -0.14397379583E+03  0.22666241888E+03  0.17071958542E+03 0.  0.
        -24    2    5    5    0    0 -0.79958227966E+01 -0.75996955846E+02 -0.48849500094E+02  0.12063837589E+03  0.79547932704E+02 0.  0.
          5    1    3    3  501    0 -0.57406045216E+02  0.43117918613E+02 -0.12008817341E+03  0.13999238667E+03  0.47000000000E+01 0. -1.
        -11    1    4    4    0    0 -0.22751162478E+02 -0.94961262914E+01 -0.38318908928E+01  0.24949452829E+02  0.00000000000E+00 0.  1.
         12    1    4    4    0    0  0.64898570406E+02  0.20067830951E+01 -0.41250138845E+02  0.76924804673E+02  0.00000000000E+00 0. -1.
         -5    1    5    5    0  502  0.23254460085E+02  0.40368380429E+02 -0.95124295738E+02  0.10602404299E+03  0.47000000000E+01 0.  1.
         11    1    6    6    0    0 -0.33179488022E+02 -0.33216330010E+01 -0.13192676978E+02  0.35860262088E+02  0.00000000000E+00 0. -1.
        -12    1    6    6    0    0  0.25183665225E+02 -0.72675322845E+02 -0.35656823117E+02  0.84778113801E+02  0.00000000000E+00 0.  1.
</event>
<event>
12    1  0.8633375E-002  0.1734599E+03  0.7818608E-02  0.1174441E+00
         21   -1    0    0  501  502  0.00000000000E+00  0.00000000000E+00  0.40003385804E+02  0.40003385804E+02  0.00000000000E+00 0. -1.
         21   -1    0    0  502  503 -0.00000000000E+00 -0.00000000000E+00 -0.86109425964E+03  0.86109425964E+03  0.00000000000E+00 0. -1.
         -6    2    1    2    0  503  0.18277140033E+02 -0.17410214414E+02 -0.24899082302E+03  0.30345474163E+03  0.17161346351E+03 0.  0.
        -24    2    3    3    0    0 -0.50450922591E+02  0.70186726158E+01 -0.10673446475E+03  0.14351950917E+03  0.81308340236E+02 0.  0.
          6    2    1    2  501    0 -0.18277140033E+02  0.17410214414E+02 -0.57210005081E+03  0.59764290381E+03  0.17100117812E+03 0.  0.
         24    2    5    5    0    0 -0.22246679623E+02  0.11673586814E+02 -0.12588776120E+03  0.15135133595E+03  0.80176749064E+02 0.  0.
          5    1    5    5  501    0  0.39695395906E+01  0.57366276005E+01 -0.44621228961E+03  0.44629156786E+03  0.47000000000E+01 0. -1.
        -11    1    6    6    0    0  0.12338434467E+02 -0.14610475388E+02 -0.10280248846E+01  0.19150973639E+02  0.00000000000E+00 0.  1.
         12    1    6    6    0    0 -0.34585114090E+02  0.26284062201E+02 -0.12485973632E+03  0.13220036231E+03  0.00000000000E+00 0. -1.
         -5    1    3    3    0  503  0.68728062624E+02 -0.24428887030E+02 -0.14225635828E+03  0.15993523246E+03  0.47000000000E+01 0.  1.
         13    1    4    4    0    0  0.50539176644E+01 -0.59290927518E+01  0.10552932530E+02  0.13117187565E+02  0.00000000000E+00 0. -1.
        -14    1    4    4    0    0 -0.55504840256E+02  0.12947765368E+02 -0.11728739728E+03  0.13040232160E+03  0.00000000000E+00 0.  1.
</event>
<event>
12    1  0.8633375E-002  0.2732105E+03  0.7818608E-02  0.1099733E+00
         21   -1    0    0  501  502  0.00000000000E+00  0.00000000000E+00  0.44987607106E+02  0.44987607106E+02  0.00000000000E+00 0.  1.
         21   -1    0    0  502  503 -0.00000000000E+00 -0.00000000000E+00 -0.16826825533E+04  0.16826825533E+04  0.00000000000E+00 0. -1.
         -6    2    1    2    0  503 -0.83552694694E+02  0.19350084950E+03 -0.94694522545E+03  0.98557051987E+03  0.17384003593E+03 0.  0.
        -24    2    3    3    0    0 -0.36275639046E+01  0.13971117670E+03 -0.39745417727E+03  0.42767818487E+03  0.73528461597E+02 0.  0.
          6    2    1    2  501    0  0.83552694694E+02 -0.19350084950E+03 -0.69074972077E+03  0.74209964056E+03  0.17074269597E+03 0.  0.
         24    2    5    5    0    0  0.11191982630E+03 -0.10009509175E+03 -0.43134556286E+03  0.46489585834E+03  0.86741510194E+02 0.  0.
          5    1    5    5  501    0 -0.28367131606E+02 -0.93405757749E+02 -0.25940415791E+03  0.27720378222E+03  0.47000000000E+01 0. -1.
        -13    1    6    6    0    0  0.93185943142E+02 -0.11575384358E+03 -0.35896262278E+03  0.38850577454E+03  0.00000000000E+00 0.  1.
         14    1    6    6    0    0  0.18733883158E+02  0.15658751833E+02 -0.72382940085E+02  0.76390083797E+02  0.00000000000E+00 0. -1.
         -5    1    3    3    0  503 -0.79925130790E+02  0.53789672799E+02 -0.54949104817E+03  0.55789233500E+03  0.47000000000E+01 0.  1.
         13    1    4    4    0    0 -0.26107331592E+01  0.46697286682E+02 -0.52087106891E+02  0.70003708583E+02  0.00000000000E+00 0. -1.
        -14    1    4    4    0    0 -0.10168307454E+01  0.93013890019E+02 -0.34536707038E+03  0.35767447628E+03  0.00000000000E+00 0.  1.
</event>
<event>
12    1  0.8633375E-002  0.2227088E+03  0.7818608E-02  0.1132229E+00
         21   -1    0    0  503  502  0.00000000000E+00  0.00000000000E+00  0.60790483544E+03  0.60790483544E+03  0.00000000000E+00 0.  1.
         21   -1    0    0  501  503 -0.00000000000E+00 -0.00000000000E+00 -0.10070118162E+03  0.10070118162E+03  0.00000000000E+00 0.  1.
          6    2    1    2  501    0  0.11808763722E+03 -0.72871587270E+02  0.95611359818E+02  0.24062373822E+03  0.17176522631E+03 0.  0.
         24    2    3    3    0    0  0.25447279536E+02 -0.74812979359E+02  0.96421608916E+02  0.14784038098E+03  0.79467639121E+02 0.  0.
         -6    2    1    2    0  502 -0.11808763722E+03  0.72871587270E+02  0.41159229400E+03  0.46798227885E+03  0.17419597739E+03 0.  0.
        -24    2    5    5    0    0 -0.13902140588E+03  0.44998331427E+02  0.39611858006E+03  0.42955485525E+03  0.79092623347E+02 0.  0.
          5    1    3    3  501    0  0.92640357686E+02  0.19413920881E+01 -0.81024909778E+00  0.92783357231E+02  0.47000000000E+01 0. -1.
        -13    1    4    4    0    0  0.31620581479E+02 -0.35130060436E+02  0.44392158711E+01  0.47473033997E+02  0.00000000000E+00 0.  1.
         14    1    4    4    0    0 -0.61733019434E+01 -0.39682918923E+02  0.91982393045E+02  0.10036734699E+03  0.00000000000E+00 0. -1.
         -5    1    5    5    0  502  0.20933768662E+02  0.27873255843E+02  0.15473713934E+02  0.38427423601E+02  0.47000000000E+01 0.  1.
         11    1    6    6    0    0 -0.26537233945E+02 -0.22482517181E+02  0.91906207800E+02  0.98267183721E+02  0.00000000000E+00 0. -1.
        -12    1    6    6    0    0 -0.11248417194E+03  0.67480848609E+02  0.30421237226E+03  0.33128767152E+03  0.00000000000E+00 0.  1.
</event>
<event>
12    1  0.8633375E-002  0.1740796E+03  0.7818608E-02  0.1174375E+00
         21   -1    0    0  501  502  0.00000000000E+00  0.00000000000E+00  0.41014545642E+02  0.41014545642E+02  0.00000000000E+00 0. -1.
         21   -1    0    0  502  503 -0.00000000000E+00 -0.00000000000E+00 -0.12856374586E+04  0.12856374586E+04  0.00000000000E+00 0. -1.
         -6    2    1    2    0  503  0.77231253604E+01  0.93068505126E+01 -0.10624249617E+04  0.10765920724E+04  0.17365893830E+03 0.  0.
        -24    2    3    3    0    0 -0.14981719502E+01  0.27883022910E+02 -0.10470073197E+04  0.10503261212E+04  0.78618864590E+02 0.  0.
          6    2    1    2  501    0 -0.77231253604E+01 -0.93068505126E+01 -0.18219795126E+03  0.25005993190E+03  0.17084382333E+03 0.  0.
         24    2    5    5    0    0  0.51594828510E+02 -0.13937450363E+02 -0.15632988014E+03  0.18501141763E+03  0.83270128951E+02 0.  0.
          5    1    5    5  501    0 -0.59317953870E+02  0.46305998502E+01 -0.25868071120E+02  0.65048514278E+02  0.47000000000E+01 0. -1.
        -11    1    6    6    0    0 -0.41243358799E+01 -0.26519928721E+02 -0.10446080301E+03  0.10785349383E+03  0.00000000000E+00 0.  1.
         12    1    6    6    0    0  0.55719164390E+02  0.12582478358E+02 -0.51869077128E+02  0.77157923793E+02  0.00000000000E+00 0. -1.
         -5    1    3    3    0  503  0.92212973107E+01 -0.18576172397E+02 -0.15417642008E+02  0.26265951156E+02  0.47000000000E+01 0.  1.
         11    1    4    4    0    0 -0.18911078710E+02  0.98016591881E+01 -0.94622028491E+03  0.94645999863E+03  0.00000000000E+00 0. -1.
        -12    1    4    4    0    0  0.17412906760E+02  0.18081363721E+02 -0.10078703482E+03  0.10386612259E+03  0.00000000000E+00 0.  1.
</event>
<event>
12    1  0.8633375E-002  0.2355631E+03  0.7818608E-02  0.1122815E+00
         21   -1    0    0  501  502  0.00000000000E+00  0.00000000000E+00  0.29929173264E+03  0.29929173264E+03  0.00000000000E+00 0.  1.
         21   -1    0    0  502  503 -0.00000000000E+00 -0.00000000000E+00 -0.46066545454E+03  0.46066545454E+03  0.00000000000E+00 0. -1.
         -6    2    1    2    0  503 -0.15570119414E+03 -0.41268353490E+02 -0.37449742608E+03  0.44242318805E+03  0.17188372911E+03 0.  0.
        -24    2    3    3    0    0 -0.42592743010E+02 -0.11791756045E+02 -0.65747797071E+02  0.11225532934E+03  0.79531747612E+02 0.  0.
          6    2    1    2  501    0  0.15570119414E+03  0.41268353490E+02  0.21312370418E+03  0.31753399912E+03  0.17163970537E+03 0.  0.
         24    2    5    5    0    0  0.15177659896E+03  0.57836496455E+02  0.23027310783E+03  0.29291494442E+03  0.79951636380E+02 0.  0.
          5    1    5    5  501    0  0.39245951849E+01 -0.16568142965E+02 -0.17149403656E+02  0.24619054702E+02  0.47000000000E+01 0. -1.
        -11    1    6    6    0    0  0.12267083196E+02 -0.76905320367E+01  0.66342369924E+02  0.67903870731E+02  0.00000000000E+00 0.  1.
         12    1    6    6    0    0  0.13950951576E+03  0.65527028492E+02  0.16393073791E+03  0.22501107369E+03  0.00000000000E+00 0. -1.
         -5    1    3    3    0  503 -0.11310845113E+03 -0.29476597445E+02 -0.30874962901E+03  0.33016785871E+03  0.47000000000E+01 0.  1.
         13    1    4    4    0    0 -0.13293804534E+00  0.30806901949E+02 -0.20836036239E+02  0.37191709914E+02  0.00000000000E+00 0. -1.
        -14    1    4    4    0    0 -0.42459804964E+02 -0.42598657994E+02 -0.44911760833E+02  0.75063619428E+02  0.00000000000E+00 0.  1.
</event>
<event>
12    1  0.8633375E-002  0.2339985E+03  0.7818608E-02  0.1124083E+00
         21   -1    0    0  501  502  0.00000000000E+00  0.00000000000E+00  0.54529704133E+03  0.54529704133E+03  0.00000000000E+00 0. -1.
         21   -1    0    0  502  503 -0.00000000000E+00 -0.00000000000E+00 -0.14161525929E+03  0.14161525929E+03  0.00000000000E+00 0.  1.
         -6    2    1    2    0  503  0.15648872670E+03  0.87488684030E+00  0.14925120136E+02  0.23316453640E+03  0.17220178516E+03 0.  0.
        -24    2    3    3    0    0  0.12864524246E+03  0.58094043654E+01  0.72609735163E+02  0.16875014446E+03  0.81370080673E+02 0.  0.
          6    2    1    2  501    0 -0.15648872670E+03 -0.87488684030E+00  0.38875666190E+03  0.45374776423E+03  0.17397069971E+03 0.  0.
         24    2    5    5    0    0 -0.19970915446E+02  0.40708399893E+02  0.10748351893E+03  0.13830687677E+03  0.74297200714E+02 0.  0.
          5    1    5    5  501    0 -0.13651781125E+03 -0.41583286733E+02  0.28127314297E+03  0.31544088746E+03  0.47000000000E+01 0. -1.
        -11    1    6    6    0    0 -0.62328954230E+01 -0.20514070434E+02  0.13611187867E+02  0.25395678890E+02  0.00000000000E+00 0.  1.
         12    1    6    6    0    0 -0.13738020023E+02  0.61222470326E+02  0.93872331063E+02  0.11291119788E+03  0.00000000000E+00 0. -1.
         -5    1    3    3    0  503  0.27843484241E+02 -0.49345175251E+01 -0.57684615027E+02  0.64414391938E+02  0.47000000000E+01 0.  1.
         13    1    4    4    0    0  0.85349886329E+02  0.40227204746E+02  0.60640233556E+02  0.11216090684E+03  0.00000000000E+00 0. -1.
        -14    1    4    4    0    0  0.43295356130E+02 -0.34417800381E+02  0.11969501607E+02  0.56589237618E+02  0.00000000000E+00 0.  1.
</event>
<event>
12    1  0.8633375E-002  0.2166229E+03  0.7818608E-02  0.1136529E+00
         21   -1    0    0  501  502  0.00000000000E+00  0.00000000000E+00  0.79597231790E+02  0.79597231790E+02  0.00000000000E+00 0. -1.
         21   -1    0    0  502  503 -0.00000000000E+00 -0.00000000000E+00 -0.59930606828E+03  0.59930606828E+03  0.00000000000E+00 0. -1.
         -6    2    1    2    0  503  0.11120317723E+03  0.70579402391E+02 -0.30602947748E+03  0.37462650966E+03  0.17129910094E+03 0.  0.
        -24    2    3    3    0    0  0.72453189348E+02 -0.26604219708E+02 -0.17963842003E+03  0.21048325707E+03  0.77948639530E+02 0.  0.
          6    2    1    2  501    0 -0.11120317723E+03 -0.70579402391E+02 -0.21367935901E+03  0.30427679042E+03  0.17198226086E+03 0.  0.
         24    2    5    5    0    0 -0.31728611715E+02 -0.87139732137E+02 -0.75317196598E+02  0.14378807096E+03  0.80014320771E+02 0.  0.
          5    1    5    5  501    0 -0.79474565514E+02  0.16560329747E+02 -0.13836216241E+03  0.16048871946E+03  0.47000000000E+01 0. -1.
        -11    1    6    6    0    0  0.25061795029E+02 -0.44905556091E+02 -0.26884759600E+02  0.58029241221E+02  0.00000000000E+00 0.  1.
         12    1    6    6    0    0 -0.56790406744E+02 -0.42234176047E+02 -0.48432436998E+02  0.85758829738E+02  0.00000000000E+00 0. -1.
         -5    1    3    3    0  503  0.38749987882E+02  0.97183622099E+02 -0.12639105745E+03  0.16414325258E+03  0.47000000000E+01 0.  1.
         11    1    4    4    0    0  0.64024574149E+02  0.71883694789E+01 -0.15489820729E+03  0.16776255056E+03  0.00000000000E+00 0. -1.
        -12    1    4    4    0    0  0.84286151990E+01 -0.33792589187E+02 -0.24740212741E+02  0.42720706509E+02  0.00000000000E+00 0.  1.
</event>
<event>
12    1  0.8633375E-002  0.2332841E+03  0.7818608E-02  0.1124390E+00
         21   -1    0    0  501  502  0.00000000000E+00  0.00000000000E+00  0.59324832413E+03  0.59324832413E+03  0.00000000000E+00 0.  1.
         21   -1    0    0  502  503 -0.00000000000E+00 -0.00000000000E+00 -0.20849255569E+03  0.20849255569E+03  0.00000000000E+00 0.  1.
         -6    2    1    2    0  503  0.13284800205E+03  0.83608306781E+02 -0.10777028613E+03  0.25676070939E+03  0.17225761725E+03 0.  0.
        -24    2    3    3    0    0  0.18495346842E+02  0.18087263898E+02 -0.39208632586E+01  0.88902645995E+02  0.84965171253E+02 0.  0.
          6    2    1    2  501    0 -0.13284800205E+03 -0.83608306781E+02  0.49252605458E+03  0.54498017044E+03  0.17257616034E+03 0.  0.
         24    2    5    5    0    0  0.20574105411E+01 -0.50679371801E+02  0.18109083348E+03  0.20395557888E+03  0.78938941731E+02 0.  0.
          5    1    5    5  501    0 -0.13490541260E+03 -0.32928934980E+02  0.31143522110E+03  0.34102459156E+03  0.47000000000E+01 0. -1.
        -11    1    6    6    0    0 -0.25371385894E+02 -0.13113207130E+02  0.13672445042E+03  0.13967547661E+03  0.00000000000E+00 0.  1.
         12    1    6    6    0    0  0.27428796435E+02 -0.37566164671E+02  0.44366383055E+02  0.64280102266E+02  0.00000000000E+00 0. -1.
         -5    1    3    3    0  503  0.11435265521E+03  0.65521042883E+02 -0.10384942287E+03  0.16785806339E+03  0.47000000000E+01 0.  1.
         11    1    4    4    0    0  0.39188071861E+02  0.39666107096E+02 -0.13752897944E+02  0.57430368536E+02  0.00000000000E+00 0. -1.
        -12    1    4    4    0    0 -0.20692725019E+02 -0.21578843198E+02  0.98320346849E+01  0.31472277460E+02  0.00000000000E+00 0.  1.
</event>
<event>
12    1  0.8633375E-002  0.1808255E+03  0.7818608E-02  0.1167432E+00
         21   -1    0    0  501  502  0.00000000000E+00  0.00000000000E+00  0.15829243388E+03  0.15829243388E+03  0.00000000000E+00 0. -1.
         21   -1    0    0  502  503 -0.00000000000E+00 -0.00000000000E+00 -0.26321445981E+03  0.26321445981E+03  0.00000000000E+00 0. -1.
         -6    2    1    2    0  503 -0.27626450737E+02 -0.50860722781E+02 -0.15214583918E+03  0.23631803644E+03  0.17131206632E+03 0.  0.
        -24    2    3    3    0    0 -0.28900064588E+02 -0.69425997930E+02 -0.30881135983E+02  0.11354381368E+03  0.79267711860E+02 0.  0.
          6    2    1    2  501    0  0.27626450737E+02  0.50860722781E+02  0.47223813244E+02  0.18518885725E+03  0.16945439035E+03 0.  0.
         24    2    5    5    0    0  0.66087662850E+02  0.69154795163E+02  0.31329324404E+02  0.13948696782E+03  0.96566675152E+02 0.  0.
          5    1    5    5  501    0 -0.38461212113E+02 -0.18294072383E+02  0.15894488840E+02  0.45701889425E+02  0.47000000000E+01 0. -1.
        -13    1    6    6    0    0  0.13517782482E+02 -0.29962220773E+01 -0.28730388912E+02  0.31892679990E+02  0.00000000000E+00 0.  1.
         14    1    6    6    0    0  0.52569880368E+02  0.72151017241E+02  0.60059713315E+02  0.10759428783E+03  0.00000000000E+00 0. -1.
         -5    1    3    3    0  503  0.12736138511E+01  0.18565275149E+02 -0.12126470319E+03  0.12277422276E+03  0.47000000000E+01 0.  1.
         13    1    4    4    0    0 -0.34704504301E+02 -0.75542747912E+02 -0.46893430160E+02  0.95446860468E+02  0.00000000000E+00 0. -1.
        -14    1    4    4    0    0  0.58044397126E+01  0.61167499825E+01  0.16012294178E+02  0.18096953212E+02  0.00000000000E+00 0.  1.
</event>
<event>
12    1  0.8633375E-002  0.2546515E+03  0.7818608E-02  0.1110436E+00
         21   -1    0    0  503  502  0.00000000000E+00  0.00000000000E+00  0.63438640176E+02  0.63438640176E+02  0.00000000000E+00 0.  1.
         21   -1    0    0  501  503 -0.00000000000E+00 -0.00000000000E+00 -0.13811700812E+04  0.13811700812E+04  0.00000000000E+00 0.  1.
          6    2    1    2  501    0  0.16770717728E+03  0.85871789357E+02 -0.10277991103E+04  0.10588760163E+04  0.17131183626E+03 0.  0.
         24    2    3    3    0    0  0.10608256012E+03  0.57072179841E+01 -0.37758251746E+03  0.40082764456E+03  0.82511582546E+02 0.  0.
         -6    2    1    2    0  502 -0.16770717728E+03 -0.85871789357E+02 -0.28993233071E+03  0.38573270506E+03  0.17096579145E+03 0.  0.
        -24    2    5    5    0    0 -0.14926315895E+03 -0.32324791044E+02 -0.13046459474E+03  0.21644150134E+03  0.80632067366E+02 0.  0.
          5    1    3    3  501    0  0.61624617154E+02  0.80164571372E+02 -0.65021659282E+03  0.65804837172E+03  0.47000000000E+01 0. -1.
        -13    1    4    4    0    0  0.11918181565E+03  0.12305197015E+02 -0.33907316236E+03  0.35961970536E+03  0.00000000000E+00 0.  1.
         14    1    4    4    0    0 -0.13099255524E+02 -0.65979790313E+01 -0.38509355107E+02  0.41207939203E+02  0.00000000000E+00 0. -1.
         -5    1    5    5    0  502 -0.18444018325E+02 -0.53546998312E+02 -0.15946773597E+03  0.16929120372E+03  0.47000000000E+01 0.  1.
         13    1    6    6    0    0 -0.98476830906E+02 -0.89732119958E+01 -0.12627687931E+03  0.16038720337E+03  0.00000000000E+00 0. -1.
        -14    1    6    6    0    0 -0.50786328046E+02 -0.23351579048E+02 -0.41877154317E+01  0.56054297970E+02  0.00000000000E+00 0.  1.
</event>
<event>
12    1  0.8633375E-002  0.3308142E+03  0.7818608E-02  0.1070787E+00
         21   -1    0    0  503  502  0.00000000000E+00  0.00000000000E+00  0.70529950156E+02  0.70529950156E+02  0.00000000000E+00 0.  1.
         21   -1    0    0  501  503 -0.00000000000E+00 -0.00000000000E+00 -0.15947432207E+04  0.15947432207E+04  0.00000000000E+00 0. -1.
          6    2    1    2  501    0  0.27067024661E+03  0.79825724376E+02 -0.89976965262E+03  0.95865709904E+03  0.17263683589E+03 0.  0.
         24    2    3    3    0    0  0.22238106248E+03  0.29959643924E+01 -0.58945285631E+03  0.63531013154E+03  0.81865625712E+02 0.  0.
         -6    2    1    2    0  502 -0.27067024661E+03 -0.79825724376E+02 -0.62444361797E+03  0.70661607186E+03  0.17245843648E+03 0.  0.
        -24    2    5    5    0    0 -0.12308963900E+03 -0.41395933757E+02 -0.17709555898E+03  0.23396476229E+03  0.80696904674E+02 0.  0.
          5    1    3    3  501    0  0.48289184123E+02  0.76829759983E+02 -0.31031679631E+03  0.32334696750E+03  0.47000000000E+01 0. -1.
        -11    1    4    4    0    0  0.10436741735E+03 -0.39450450429E+02 -0.27814232592E+03  0.29968658514E+03  0.00000000000E+00 0.  1.
         12    1    4    4    0    0  0.11801364513E+03  0.42446414821E+02 -0.31131053039E+03  0.33562354641E+03  0.00000000000E+00 0. -1.
         -5    1    5    5    0  502 -0.14758060760E+03 -0.38429790619E+02 -0.44734805900E+03  0.47265130957E+03  0.47000000000E+01 0.  1.
         13    1    6    6    0    0 -0.82918048816E+02 -0.33117855964E+02 -0.17044226100E+03  0.19241299213E+03  0.00000000000E+00 0. -1.
        -14    1    6    6    0    0 -0.40171590186E+02 -0.82780777930E+01 -0.66532979735E+01  0.41551770166E+02  0.00000000000E+00 0.  1.
</event>
<event>
12    1  0.8633375E-002  0.1974658E+03  0.7818608E-02  0.1152696E+00
         21   -1    0    0  501  502  0.00000000000E+00  0.00000000000E+00  0.10746055058E+03  0.10746055058E+03  0.00000000000E+00 0.  1.
         21   -1    0    0  502  503 -0.00000000000E+00 -0.00000000000E+00 -0.36855882921E+03  0.36855882921E+03  0.00000000000E+00 0.  1.
         -6    2    1    2    0  503 -0.66397443061E+02 -0.59640411342E+02 -0.87967834549E+02  0.21617374445E+03  0.17614524905E+03 0.  0.
        -24    2    3    3    0    0 -0.42730822757E+01 -0.73096573973E+01 -0.10630587963E+03  0.13276920075E+03  0.79088749517E+02 0.  0.
          6    2    1    2  501    0  0.66397443061E+02  0.59640411342E+02 -0.17313044408E+03  0.25984563534E+03  0.17198838457E+03 0.  0.
         24    2    5    5    0    0 -0.15975445507E+02  0.98931362188E+01 -0.25837710647E+02  0.83841875507E+02  0.77516345332E+02 0.  0.
          5    1    5    5  501    0  0.82372888568E+02  0.49747275123E+02 -0.14729273343E+03  0.17600375983E+03  0.47000000000E+01 0. -1.
        -13    1    6    6    0    0 -0.40824854434E+02  0.25886798681E+02 -0.71217396553E+01  0.48862196647E+02  0.00000000000E+00 0.  1.
         14    1    6    6    0    0  0.24849408927E+02 -0.15993662462E+02 -0.18715970992E+02  0.34979678860E+02  0.00000000000E+00 0. -1.
         -5    1    3    3    0  503 -0.62124360786E+02 -0.52330753945E+02  0.18338045085E+02  0.83404543695E+02  0.47000000000E+01 0.  1.
         13    1    4    4    0    0  0.14576070408E+02  0.15142033491E+02  0.14783029412E+01  0.21069608121E+02  0.00000000000E+00 0. -1.
        -14    1    4    4    0    0 -0.18849152684E+02 -0.22451690888E+02 -0.10778418258E+03  0.11169959263E+03  0.00000000000E+00 0.  1.
</event>
<event>
12    1  0.8633375E-002  0.1724566E+03  0.7818608E-02  0.1175409E+00
         21   -1    0    0  501  502  0.00000000000E+00  0.00000000000E+00  0.23395214896E+03  0.23395214896E+03  0.00000000000E+00 0. -1.
         21   -1    0    0  502  503 -0.00000000000E+00 -0.00000000000E+00 -0.12789109258E+03  0.12789109258E+03  0.00000000000E+00 0. -1.
         -6    2    1    2    0  503  0.12890684235E+02  0.10669048473E+02  0.36689531061E+02  0.17631621595E+03  0.17164290834E+03 0.  0.
        -24    2    3    3    0    0  0.42847884044E+02  0.60296669323E+02  0.64258770803E+00  0.10789248691E+03  0.78541366893E+02 0.  0.
          6    2    1    2  501    0 -0.12890684235E+02 -0.10669048473E+02  0.69371525327E+02  0.18552702559E+03  0.17125381853E+03 0.  0.
         24    2    5    5    0    0 -0.10197452976E+02  0.26627926090E+02 -0.20397101702E+02  0.88167823635E+02  0.80898015251E+02 0.  0.
          5    1    5    5  501    0 -0.26932312590E+01 -0.37296974562E+02  0.89768627029E+02  0.97359201952E+02  0.47000000000E+01 0. -1.
        -11    1    6    6    0    0 -0.23107334489E+02 -0.17742431973E+02 -0.29064132054E+02  0.41151750528E+02  0.00000000000E+00 0.  1.
         12    1    6    6    0    0  0.12909881513E+02  0.44370358062E+02  0.86670303521E+01  0.47016073107E+02  0.00000000000E+00 0. -1.
         -5    1    3    3    0  503 -0.29957199809E+02 -0.49627620850E+02  0.36046943353E+02  0.68423729047E+02  0.47000000000E+01 0.  1.
         13    1    4    4    0    0  0.23906394495E+02  0.28516642152E+01 -0.31300433553E+02  0.39488793691E+02  0.00000000000E+00 0. -1.
        -14    1    4    4    0    0  0.18941489549E+02  0.57445005108E+02  0.31943021261E+02  0.68403693215E+02  0.00000000000E+00 0.  1.
</event>
<event>
12    1  0.8633375E-002  0.2265398E+03  0.7818608E-02  0.1129108E+00
         21   -1    0    0  503  502  0.00000000000E+00  0.00000000000E+00  0.59996104885E+03  0.59996104885E+03  0.00000000000E+00 0.  1.
         21   -1    0    0  501  503 -0.00000000000E+00 -0.00000000000E+00 -0.85544975798E+02  0.85544975798E+02  0.00000000000E+00 0. -1.
          6    2    1    2  501    0  0.14681519000E+03  0.94972620802E+01  0.25146321329E+03  0.33845829159E+03  0.17226540426E+03 0.  0.
         24    2    3    3    0    0  0.15758100493E+03  0.40459953531E+02  0.24503440954E+03  0.30472387962E+03  0.79661785072E+02 0.  0.
         -6    2    1    2    0  502 -0.14681519000E+03 -0.94972620802E+01  0.26295285976E+03  0.34704773306E+03  0.17220053590E+03 0.  0.
        -24    2    5    5    0    0 -0.11515419276E+03  0.50841870549E+02  0.22306204097E+03  0.26794907886E+03  0.78706104133E+02 0.  0.
          5    1    3    3  501    0 -0.10765814930E+02 -0.30962691451E+02  0.64288037499E+01  0.33734411965E+02  0.47000000000E+01 0. -1.
        -13    1    4    4    0    0  0.67584523042E+02  0.58205566533E+02  0.11320978894E+03  0.14412498757E+03  0.00000000000E+00 0.  1.
         14    1    4    4    0    0  0.89996481883E+02 -0.17745613003E+02  0.13182462060E+03  0.16059889205E+03  0.00000000000E+00 0. -1.
         -5    1    5    5    0  502 -0.31660997233E+02 -0.60339132629E+02  0.39890818786E+02  0.79098654196E+02  0.47000000000E+01 0.  1.
         13    1    6    6    0    0  0.78963807308E+01  0.19618115558E+02  0.25689404967E+02  0.33274146334E+02  0.00000000000E+00 0. -1.
        -14    1    6    6    0    0 -0.12305057349E+03  0.31223754991E+02  0.19737263601E+03  0.23467493253E+03  0.00000000000E+00 0.  1.
</event>
<event>
12    1  0.8633375E-002  0.2191446E+03  0.7818608E-02  0.1134680E+00
         21   -1    0    0  503  502  0.00000000000E+00  0.00000000000E+00  0.11974874924E+03  0.11974874924E+03  0.00000000000E+00 0.  1.
         21   -1    0    0  501  503 -0.00000000000E+00 -0.00000000000E+00 -0.62486222456E+03  0.62486222456E+03  0.00000000000E+00 0.  1.
          6    2    1    2  501    0 -0.11036719735E+03 -0.80459680682E+02 -0.47644869184E+03  0.52443086017E+03  0.17137588124E+03 0.  0.
         24    2    3    3    0    0 -0.91106712049E+02 -0.82292576799E+02 -0.20310751901E+03  0.25036551656E+03  0.79735352423E+02 0.  0.
         -6    2    1    2    0  502  0.11036719735E+03  0.80459680682E+02 -0.28664783480E+02  0.22018011363E+03  0.17030247843E+03 0.  0.
        -24    2    5    5    0    0  0.79350569599E+02  0.10758065112E+03 -0.49987090764E+02  0.17355062701E+03  0.98747159458E+02 0.  0.
          5    1    3    3  501    0 -0.19260485300E+02  0.18328961168E+01 -0.27334117283E+03  0.27406534361E+03  0.47000000000E+01 0. -1.
        -11    1    4    4    0    0 -0.59124029559E+02 -0.50990989217E+02 -0.54628440617E+02  0.95289025480E+02  0.00000000000E+00 0.  1.
         12    1    4    4    0    0 -0.31982682490E+02 -0.31301587582E+02 -0.14847907840E+03  0.15507649108E+03  0.00000000000E+00 0. -1.
         -5    1    5    5    0  502  0.31016627750E+02 -0.27120970439E+02  0.21322307284E+02  0.46629486620E+02  0.47000000000E+01 0.  1.
         13    1    6    6    0    0  0.13400156505E+02 -0.17736102822E+02 -0.17422996442E+02  0.28243483190E+02  0.00000000000E+00 0. -1.
        -14    1    6    6    0    0  0.65950413094E+02  0.12531675394E+03 -0.32564094322E+02  0.14530714382E+03  0.00000000000E+00 0.  1.
</event>
<event>
12    1  0.8633375E-002  0.2284762E+03  0.7818608E-02  0.1127946E+00
         21   -1    0    0  501  502  0.00000000000E+00  0.00000000000E+00  0.17533065268E+03  0.17533065268E+03  0.00000000000E+00 0. -1.
         21   -1    0    0  502  503 -0.00000000000E+00 -0.00000000000E+00 -0.60285118311E+03  0.60285118311E+03  0.00000000000E+00 0. -1.
         -6    2    1    2    0  503 -0.15059460401E+03 -0.10609948765E+01 -0.49103129327E+03  0.54104265176E+03  0.17010455486E+03 0.  0.
        -24    2    3    3    0    0 -0.15004386885E+03 -0.18360587831E+02 -0.49403052138E+03  0.52285846646E+03  0.80402401304E+02 0.  0.
          6    2    1    2  501    0  0.15059460401E+03  0.10609948765E+01  0.63510762844E+02  0.23713918404E+03  0.17181826195E+03 0.  0.
         24    2    5    5    0    0  0.10342321317E+03 -0.43408975622E+02 -0.12408333119E+02  0.13719661292E+03  0.78027198323E+02 0.  0.
          5    1    5    5  501    0  0.47171390846E+02  0.44469970498E+02  0.75919095964E+02  0.99942571122E+02  0.47000000000E+01 0. -1.
        -11    1    6    6    0    0 -0.54668325940E+01  0.11006704662E+02  0.66668990133E+01  0.13981464465E+02  0.00000000000E+00 0.  1.
         12    1    6    6    0    0  0.10889004576E+03 -0.54415680284E+02 -0.19075232133E+02  0.12321514845E+03  0.00000000000E+00 0. -1.
         -5    1    3    3    0  503 -0.55073516849E+00  0.17299592955E+02  0.29992281075E+01  0.18184185296E+02  0.47000000000E+01 0.  1.
         11    1    4    4    0    0 -0.86654669771E+02 -0.48585324403E+02 -0.25301058964E+03  0.27181597453E+03  0.00000000000E+00 0. -1.
        -12    1    4    4    0    0 -0.63389199075E+02  0.30224736572E+02 -0.24101993174E+03  0.25104249194E+03  0.00000000000E+00 0.  1.
</event>
<event>
12    1  0.8633375E-002  0.2999148E+03  0.7818608E-02  0.1085475E+00
         21   -1    0    0  501  502  0.00000000000E+00  0.00000000000E+00  0.30009230327E+03  0.30009230327E+03  0.00000000000E+00 0. -1.
         21   -1    0    0  502  503 -0.00000000000E+00 -0.00000000000E+00 -0.30156818528E+03  0.30156818528E+03  0.00000000000E+00 0.  1.
         -6    2    1    2    0  503  0.23376741407E+03  0.69627063217E+02 -0.32468827162E+02  0.30014857473E+03  0.17187149374E+03 0.  0.
        -24    2    3    3    0    0  0.15343651828E+03  0.76381111480E+02  0.38388032376E+02  0.19271741291E+03  0.79306499583E+02 0.  0.
          6    2    1    2  501    0 -0.23376741407E+03 -0.69627063217E+02  0.30992945155E+02  0.30151191382E+03  0.17450999889E+03 0.  0.
         24    2    5    5    0    0 -0.15976221610E+03 -0.10048757429E+03  0.67822423335E+02  0.21315105748E+03  0.72192616794E+02 0.  0.
          5    1    5    5  501    0 -0.74005197968E+02  0.30860511069E+02 -0.36829478180E+02  0.88360856337E+02  0.47000000000E+01 0. -1.
        -11    1    6    6    0    0 -0.82829585505E+01 -0.10146656565E+02 -0.13607882467E+02  0.18887469578E+02  0.00000000000E+00 0.  1.
         12    1    6    6    0    0 -0.15147925755E+03 -0.90340917721E+02  0.81430305803E+02  0.19426358790E+03  0.00000000000E+00 0. -1.
         -5    1    3    3    0  503  0.80330895790E+02 -0.67540482627E+01 -0.70856859539E+02  0.10743116182E+03  0.47000000000E+01 0.  1.
         13    1    4    4    0    0  0.83417013395E+02  0.24367372277E+01 -0.11902921659E+01  0.83461084390E+02  0.00000000000E+00 0. -1.
        -14    1    4    4    0    0  0.70019504880E+02  0.73944374252E+02  0.39578324542E+02  0.10925632852E+03  0.00000000000E+00 0.  1.
</event>
<event>
12    1  0.8633375E-002  0.1791689E+03  0.7818608E-02  0.1168715E+00
         21   -1    0    0  501  502  0.00000000000E+00  0.00000000000E+00  0.26911922042E+02  0.26911922042E+02  0.00000000000E+00 0.  1.
         21   -1    0    0  502  503 -0.00000000000E+00 -0.00000000000E+00 -0.13006289231E+04  0.13006289231E+04  0.00000000000E+00 0.  1.
         -6    2    1    2    0  503  0.31382649249E+02  0.38386420164E+02 -0.82978051566E+03  0.84881221763E+03  0.17172096175E+03 0.  0.
        -24    2    3    3    0    0  0.15033600607E+02  0.20195115925E+02 -0.17770757307E+03  0.19626380763E+03  0.79408115476E+02 0.  0.
          6    2    1    2  501    0 -0.31382649249E+02 -0.38386420164E+02 -0.44393648536E+03  0.47872862748E+03  0.17217173927E+03 0.  0.
         24    2    5    5    0    0 -0.31227016315E+02 -0.82345206291E+02 -0.39369285430E+03  0.41180395668E+03  0.82659395470E+02 0.  0.
          5    1    5    5  501    0 -0.15563293448E+00  0.43958786127E+02 -0.50243631063E+02  0.66924670801E+02  0.47000000000E+01 0. -1.
        -13    1    6    6    0    0 -0.36217242406E+02 -0.19539031607E+02 -0.63601514358E+02  0.75753646990E+02  0.00000000000E+00 0.  1.
         14    1    6    6    0    0  0.49902260916E+01 -0.62806174684E+02 -0.33009133994E+03  0.33605030969E+03  0.00000000000E+00 0. -1.
         -5    1    3    3    0  503  0.16349048642E+02  0.18191304239E+02 -0.65207294258E+03  0.65254841000E+03  0.47000000000E+01 0.  1.
         11    1    4    4    0    0 -0.23609143849E+02 -0.12297892003E+02 -0.10086815472E+03  0.10432168738E+03  0.00000000000E+00 0. -1.
        -12    1    4    4    0    0  0.38642744457E+02  0.32493007928E+02 -0.76839418353E+02  0.91942120251E+02  0.00000000000E+00 0.  1.
</event>
<event>
12    1  0.8633375E-002  0.2042397E+03  0.7818608E-02  0.1150079E+00
         21   -1    0    0  501  502  0.00000000000E+00  0.00000000000E+00  0.39948543890E+02  0.39948543890E+02  0.00000000000E+00 0. -1.
         21   -1    0    0  502  503 -0.00000000000E+00 -0.00000000000E+00 -0.97433033967E+03  0.97433033967E+03  0.00000000000E+00 0. -1.
         -6    2    1    2    0  503  0.21404814054E+02 -0.68779102770E+02 -0.41585622640E+03  0.46330364525E+03  0.19111550336E+03 0.  0.
        -24    2    3    3    0    0  0.74075205838E+02 -0.56763123940E+01 -0.14773323318E+03  0.18282519364E+03  0.77978116169E+02 0.  0.
          6    2    1    2  501    0 -0.21404814054E+02  0.68779102770E+02 -0.51852556937E+03  0.55097523830E+03  0.17180284074E+03 0.  0.
         24    2    5    5    0    0  0.10072070299E+02  0.96922773857E+02 -0.26120034476E+03  0.29016645453E+03  0.80470370573E+02 0.  0.
          5    1    5    5  501    0 -0.31476884353E+02 -0.28143671087E+02 -0.25732522461E+03  0.26080878377E+03  0.47000000000E+01 0. -1.
        -11    1    6    6    0    0  0.45505598305E+02  0.52277666674E+02 -0.13851576371E+03  0.15488812319E+03  0.00000000000E+00 0.  1.
         12    1    6    6    0    0 -0.35433528006E+02  0.44645107183E+02 -0.12268458106E+03  0.13527833134E+03  0.00000000000E+00 0. -1.
         -5    1    3    3    0  503 -0.52670391784E+02 -0.63102790376E+02 -0.26812299323E+03  0.28047845161E+03  0.47000000000E+01 0.  1.
         13    1    4    4    0    0  0.51463979499E+01  0.23859743730E+02 -0.72925290364E+02  0.76901695413E+02  0.00000000000E+00 0. -1.
        -14    1    4    4    0    0  0.68928807888E+02 -0.29536056124E+02 -0.74807942813E+02  0.10592349822E+03  0.00000000000E+00 0.  1.
</event>
<event>
12    1  0.8633375E-002  0.2037729E+03  0.7818608E-02  0.1153017E+00
         21   -1    0    0  503  502  0.00000000000E+00  0.00000000000E+00  0.11588269146E+04  0.11588269146E+04  0.00000000000E+00 0.  1.
         21   -1    0    0  501  503 -0.00000000000E+00 -0.00000000000E+00 -0.77424269076E+02  0.77424269076E+02  0.00000000000E+00 0.  1.
          6    2    1    2  501    0  0.45819309199E+02  0.63259015084E+02  0.78780098258E+02  0.21847130883E+03  0.18820812101E+03 0.  0.
         24    2    3    3    0    0  0.40224873299E+02 -0.26350318015E+02  0.94682473622E+02  0.12716903157E+03  0.69962933663E+02 0.  0.
         -6    2    1    2    0  502 -0.45819309199E+02 -0.63259015084E+02  0.10026225472E+04  0.10177798748E+04  0.15659753915E+03 0.  0.
        -24    2    5    5    0    0 -0.27568111289E+02 -0.56197668022E+02  0.33230513435E+03  0.34716039041E+03  0.78584067736E+02 0.  0.
          5    1    3    3  501    0  0.55944359007E+01  0.89609333099E+02 -0.15902375364E+02  0.91302277265E+02  0.47000000000E+01 0. -1.
        -11    1    4    4    0    0  0.38006690245E+02  0.13875417700E+02  0.27800794092E+02  0.49090934723E+02  0.00000000000E+00 0.  1.
         12    1    4    4    0    0  0.22181830532E+01 -0.40225735715E+02  0.66881679530E+02  0.78078096843E+02  0.00000000000E+00 0. -1.
         -5    1    5    5    0  502 -0.18251197910E+02 -0.70613470614E+01  0.67031741288E+03  0.67061948440E+03  0.47000000000E+01 0.  1.
         11    1    6    6    0    0  0.14506432386E+02  0.12975708579E+02  0.60617781684E+02  0.63665697593E+02  0.00000000000E+00 0. -1.
        -12    1    6    6    0    0 -0.42074543675E+02 -0.69173376602E+02  0.27168735267E+03  0.28349469282E+03  0.00000000000E+00 0.  1.
</event>
<event>
12    1  0.8633375E-002  0.2018434E+03  0.7818608E-02  0.1148765E+00
         21   -1    0    0  503  502  0.00000000000E+00  0.00000000000E+00  0.17257668226E+03  0.17257668226E+03  0.00000000000E+00 0. -1.
         21   -1    0    0  501  503 -0.00000000000E+00 -0.00000000000E+00 -0.28030774155E+03  0.28030774155E+03  0.00000000000E+00 0. -1.
          6    2    1    2  501    0 -0.16868121959E+02  0.10138090386E+03 -0.14668807362E+03  0.24731592875E+03  0.17054370836E+03 0.  0.
         24    2    3    3    0    0 -0.62598246949E+02  0.22720988963E+02 -0.10298997237E+03  0.14627019357E+03  0.79707284852E+02 0.  0.
         -6    2    1    2    0  502  0.16868121959E+02 -0.10138090386E+03  0.38957014332E+02  0.20556849507E+03  0.17371855397E+03 0.  0.
        -24    2    5    5    0    0  0.63412461065E+02 -0.15427832221E+02  0.19306757536E+02  0.10575602781E+03  0.80947071021E+02 0.  0.
          5    1    3    3  501    0  0.45730124989E+02  0.78659914899E+02 -0.43698101249E+02  0.10104573517E+03  0.47000000000E+01 0. -1.
        -13    1    4    4    0    0  0.41122150429E+00 -0.16929630855E+02 -0.55355718415E+02  0.57888142700E+02  0.00000000000E+00 0.  1.
         14    1    4    4    0    0 -0.63009468453E+02  0.39650619818E+02 -0.47634253958E+02  0.88382050875E+02  0.00000000000E+00 0. -1.
         -5    1    5    5    0  502 -0.46544339105E+02 -0.85953071641E+02  0.19650256796E+02  0.99812467254E+02  0.47000000000E+01 0.  1.
         13    1    6    6    0    0  0.62903198088E+02 -0.34736190123E+02 -0.80083316821E+01  0.72301788431E+02  0.00000000000E+00 0. -1.
        -14    1    6    6    0    0  0.50926297630E+00  0.19308357901E+02  0.27315089218E+02  0.33454239382E+02  0.00000000000E+00 0.  1.
</event>
<event>
12    1  0.8633375E-002  0.2322335E+03  0.7818608E-02  0.1125412E+00
         21   -1    0    0  503  502  0.00000000000E+00  0.00000000000E+00  0.25409034914E+03  0.25409034914E+03  0.00000000000E+00 0.  1.
         21   -1    0    0  501  503 -0.00000000000E+00 -0.00000000000E+00 -0.22137557859E+03  0.22137557859E+03  0.00000000000E+00 0. -1.
          6    2    1    2  501    0  0.79156596882E+02 -0.13457889462E+03  0.68962401064E+02  0.24042065226E+03  0.16931931835E+03 0.  0.
         24    2    3    3    0    0  0.13412508598E+01 -0.47959368112E+02 -0.20124281858E+02  0.93734942245E+02  0.77970204141E+02 0.  0.
         -6    2    1    2    0  502 -0.79156596882E+02  0.13457889462E+03 -0.36247630513E+02  0.23504527547E+03  0.17191609901E+03 0.  0.
        -24    2    5    5    0    0 -0.56947127661E+02  0.11096878646E+03 -0.79876412314E+02  0.18049018101E+03  0.10314755101E+03 0.  0.
          5    1    3    3  501    0  0.77815346022E+02 -0.86619526510E+02  0.89086682922E+02  0.14668571002E+03  0.47000000000E+01 0. -1.
        -11    1    4    4    0    0  0.36713874573E+02 -0.95541803926E+01 -0.45286668373E+00  0.37939373181E+02  0.00000000000E+00 0.  1.
         12    1    4    4    0    0 -0.35372623714E+02 -0.38405187719E+02 -0.19671415175E+02  0.55795569063E+02  0.00000000000E+00 0. -1.
         -5    1    5    5    0  502 -0.22209469221E+02  0.23610108162E+02  0.43628781801E+02  0.54555094464E+02  0.47000000000E+01 0.  1.
         13    1    6    6    0    0 -0.69497909713E+02  0.60184185015E+02 -0.88337916323E+02  0.12749777661E+03  0.00000000000E+00 0. -1.
        -14    1    6    6    0    0  0.12550782052E+02  0.50784601445E+02  0.84615040087E+01  0.52992404400E+02  0.00000000000E+00 0.  1.
</event>
<event>
12    1  0.8633375E-002  0.1938105E+03  0.7818608E-02  0.1155410E+00
         21   -1    0    0  501  502  0.00000000000E+00  0.00000000000E+00  0.79419752043E+03  0.79419752043E+03  0.00000000000E+00 0.  1.
         21   -1    0    0  502  503 -0.00000000000E+00 -0.00000000000E+00 -0.57369866274E+02  0.57369866274E+02  0.00000000000E+00 0. -1.
         -6    2    1    2    0  503 -0.26642240031E+02  0.86378500851E+02  0.18548509675E+03  0.26715218167E+03  0.16968945959E+03 0.  0.
        -24    2    3    3    0    0 -0.45644694068E+02  0.30653275267E+01  0.14608349990E+03  0.17293565476E+03  0.80458171847E+02 0.  0.
          6    2    1    2  501    0  0.26642240031E+02 -0.86378500851E+02  0.55134255741E+03  0.58441520503E+03  0.17143938257E+03 0.  0.
         24    2    5    5    0    0 -0.79613485956E+01  0.17758337122E+02  0.17593407264E+03  0.19326880047E+03  0.77596969706E+02 0.  0.
          5    1    5    5  501    0  0.34603588626E+02 -0.10413683797E+03  0.37540848477E+03  0.39114640456E+03  0.47000000000E+01 0. -1.
        -13    1    6    6    0    0 -0.15501446701E+02  0.22312410360E+02  0.18105343759E+03  0.18308054449E+03  0.00000000000E+00 0.  1.
         14    1    6    6    0    0  0.75400981054E+01 -0.45540732379E+01 -0.51193649451E+01  0.10188255981E+02  0.00000000000E+00 0. -1.
         -5    1    3    3    0  503  0.19002454037E+02  0.83313173325E+02  0.39401596849E+02  0.94216526911E+02  0.47000000000E+01 0.  1.
         13    1    4    4    0    0  0.19727819746E+02  0.13839083454E+02  0.23871824645E+02  0.33920069497E+02  0.00000000000E+00 0. -1.
        -14    1    4    4    0    0 -0.65372513814E+02 -0.10773755928E+02  0.12221167525E+03  0.13901558527E+03  0.00000000000E+00 0.  1.
</event>
<event>
12    1  0.8633375E-002  0.2579834E+03  0.7818608E-02  0.1108494E+00
         21   -1    0    0  501  502  0.00000000000E+00  0.00000000000E+00  0.42687452314E+03  0.42687452314E+03  0.00000000000E+00 0.  1.
         21   -1    0    0  502  503 -0.00000000000E+00 -0.00000000000E+00 -0.15619933326E+03  0.15619933326E+03  0.00000000000E+00 0.  1.
         -6    2    1    2    0  503 -0.17615523668E+03  0.78942415735E+02  0.11405166001E+03  0.28126868032E+03  0.16982849281E+03 0.  0.
        -24    2    3    3    0    0 -0.16941781733E+03  0.17858655078E+02  0.57224922386E+02  0.19743559172E+03  0.81760581861E+02 0.  0.
          6    2    1    2  501    0  0.17615523668E+03 -0.78942415735E+02  0.15662352987E+03  0.30180517608E+03  0.17115157548E+03 0.  0.
         24    2    5    5    0    0  0.85414687603E+02 -0.10218448931E+03  0.42036126404E+02  0.15372950535E+03  0.64252518836E+02 0.  0.
          5    1    5    5  501    0  0.90740549074E+02  0.23242073578E+02  0.11458740347E+03  0.14807567073E+03  0.47000000000E+01 0. -1.
        -13    1    6    6    0    0  0.72136159251E+02 -0.49207172603E+02  0.46501685768E+02  0.98931178535E+02  0.00000000000E+00 0.  1.
         14    1    6    6    0    0  0.13278528352E+02 -0.52977316710E+02 -0.44655593639E+01  0.54798326812E+02  0.00000000000E+00 0. -1.
         -5    1    3    3    0  503 -0.67374193476E+01  0.61083760657E+02  0.56826737627E+02  0.83833088603E+02  0.47000000000E+01 0.  1.
         11    1    4    4    0    0 -0.38027172498E+02 -0.20123756120E+02 -0.11266078487E+02  0.44474216497E+02  0.00000000000E+00 0. -1.
        -12    1    4    4    0    0 -0.13139064483E+03  0.37982411198E+02  0.68491000873E+02  0.15296137522E+03  0.00000000000E+00 0.  1.
</event>
<event>
12    1  0.8633375E-002  0.2009258E+03  0.7818608E-02  0.1149121E+00
         21   -1    0    0  501  502  0.00000000000E+00  0.00000000000E+00  0.60030651888E+03  0.60030651888E+03  0.00000000000E+00 0. -1.
         21   -1    0    0  502  503 -0.00000000000E+00 -0.00000000000E+00 -0.67677991184E+02  0.67677991184E+02  0.00000000000E+00 0.  1.
         -6    2    1    2    0  503 -0.62709840267E+01  0.10214377090E+03  0.23326004246E+03  0.30786591718E+03  0.17291182835E+03 0.  0.
        -24    2    3    3    0    0 -0.71201664748E+02  0.71785531421E+02  0.14397460814E+03  0.19327274643E+03  0.80017667660E+02 0.  0.
          6    2    1    2  501    0  0.62709840267E+01 -0.10214377090E+03  0.29936848524E+03  0.36011859288E+03  0.17202103305E+03 0.  0.
         24    2    5    5    0    0  0.51609266547E+02 -0.33254052003E+02  0.89609040153E+02  0.13468020211E+03  0.79621783419E+02 0.  0.
          5    1    5    5  501    0 -0.45338282521E+02 -0.68889718893E+02  0.20975944508E+03  0.22543839077E+03  0.47000000000E+01 0. -1.
        -13    1    6    6    0    0  0.63535454363E+02 -0.66646218705E+01  0.83104685453E+02  0.10482156214E+03  0.00000000000E+00 0.  1.
         14    1    6    6    0    0 -0.11926187816E+02 -0.26589430132E+02  0.65043547000E+01  0.29858639966E+02  0.00000000000E+00 0. -1.
         -5    1    3    3    0  503  0.64930680721E+02  0.30358239475E+02  0.89285434316E+02  0.11459317076E+03  0.47000000000E+01 0.  1.
         13    1    4    4    0    0 -0.23965999473E+02  0.77652493399E+02  0.87587432962E+02  0.11948153529E+03  0.00000000000E+00 0. -1.
        -14    1    4    4    0    0 -0.47235665274E+02 -0.58669619773E+01  0.56387175181E+02  0.73791211141E+02  0.00000000000E+00 0.  1.
</event>
<event>
12    1  0.8633375E-002  0.1880233E+03  0.7818608E-02  0.1160858E+00
         21   -1    0    0  501  502  0.00000000000E+00  0.00000000000E+00  0.90297281145E+03  0.90297281145E+03  0.00000000000E+00 0. -1.
         21   -1    0    0  502  503 -0.00000000000E+00 -0.00000000000E+00 -0.48561075616E+02  0.48561075616E+02  0.00000000000E+00 0. -1.
         -6    2    1    2    0  503  0.86137455201E+00 -0.66735011063E+02  0.21420767502E+03  0.28502223799E+03  0.17577953364E+03 0.  0.
        -24    2    3    3    0    0  0.69321053246E+02 -0.45116997664E+02  0.11515841451E+03  0.16260119357E+03  0.79603616857E+02 0.  0.
          6    2    1    2  501    0 -0.86137455201E+00  0.66735011063E+02  0.64020406082E+03  0.66651164908E+03  0.17298044745E+03 0.  0.
         24    2    5    5    0    0  0.60738058579E+01  0.67704901220E+02  0.19286775523E+03  0.21909584950E+03  0.78639528823E+02 0.  0.
          5    1    5    5  501    0 -0.69351804099E+01 -0.96989015767E+00  0.44733630559E+03  0.44741579958E+03  0.47000000000E+01 0. -1.
        -13    1    6    6    0    0 -0.92350677143E+01 -0.83017819585E+01  0.13645560474E+01  0.12492720784E+02  0.00000000000E+00 0.  1.
         14    1    6    6    0    0  0.15308873572E+02  0.76006683179E+02  0.19150319918E+03  0.20660312871E+03  0.00000000000E+00 0. -1.
         -5    1    3    3    0  503 -0.68459678694E+02 -0.21618013398E+02  0.99049260504E+02  0.12242104442E+03  0.47000000000E+01 0.  1.
         13    1    4    4    0    0  0.23348649259E+02 -0.59803089789E+02  0.81562303552E+02  0.10379777614E+03  0.00000000000E+00 0. -1.
        -14    1    4    4    0    0  0.45972403987E+02  0.14686092125E+02  0.33596110961E+02  0.58803417434E+02  0.00000000000E+00 0.  1.
</event>
<event>
12    1  0.8633375E-002  0.2149518E+03  0.7818608E-02  0.1137762E+00
         21   -1    0    0  501  502  0.00000000000E+00  0.00000000000E+00  0.17572292501E+03  0.17572292501E+03  0.00000000000E+00 0.  1.
         21   -1    0    0  502  503 -0.00000000000E+00 -0.00000000000E+00 -0.26757782994E+03  0.26757782994E+03  0.00000000000E+00 0. -1.
         -6    2    1    2    0  503  0.12801270943E+03  0.16393129795E+02 -0.76285971802E+02  0.22808732899E+03  0.17189616538E+03 0.  0.
        -24    2    3    3    0    0  0.93722778624E+02  0.59465329335E+02 -0.26544420037E+01  0.13602916310E+03  0.78592636578E+02 0.  0.
          6    2    1    2  501    0 -0.12801270943E+03 -0.16393129795E+02 -0.15568933133E+02  0.21521342595E+03  0.17151804148E+03 0.  0.
         24    2    5    5    0    0  0.74295314113E+01 -0.17617828718E+02 -0.98637831038E+01  0.79564101489E+02  0.76600040488E+02 0.  0.
          5    1    5    5  501    0 -0.13544224084E+03  0.12246989239E+01 -0.57051500292E+01  0.13564932446E+03  0.47000000000E+01 0. -1.
        -11    1    6    6    0    0  0.19647258687E+02  0.21379598809E+02  0.14005419458E+02  0.32237459474E+02  0.00000000000E+00 0.  1.
         12    1    6    6    0    0 -0.12217727276E+02 -0.38997427527E+02 -0.23869202561E+02  0.47326642015E+02  0.00000000000E+00 0. -1.
         -5    1    3    3    0  503  0.34289930803E+02 -0.43072199541E+02 -0.73631529798E+02  0.92058165896E+02  0.47000000000E+01 0.  1.
         13    1    4    4    0    0  0.20098597302E+02  0.32261324593E+02 -0.34493549682E+02  0.51327883725E+02  0.00000000000E+00 0. -1.
        -14    1    4    4    0    0  0.73624181322E+02  0.27204004742E+02  0.31839107678E+02  0.84701279371E+02  0.00000000000E+00 0.  1.
</event>
<event>
12    1  0.8633375E-002  0.2126431E+03  0.7818608E-02  0.1139942E+00
         21   -1    0    0  503  502  0.00000000000E+00  0.00000000000E+00  0.31395183645E+02  0.31395183645E+02  0.00000000000E+00 0. -1.
         21   -1    0    0  501  503 -0.00000000000E+00 -0.00000000000E+00 -0.15714611039E+04  0.15714611039E+04  0.00000000000E+00 0. -1.
          6    2    1    2  501    0  0.94248945282E+02 -0.78667401342E+02 -0.10187873104E+04  0.10407423599E+04  0.17362503318E+03 0.  0.
         24    2    3    3    0    0  0.25554510122E+02  0.10285538038E+02 -0.65403133841E+03  0.65903493275E+03  0.76231395599E+02 0.  0.
         -6    2    1    2    0  502 -0.94248945282E+02  0.78667401342E+02 -0.52127860989E+03  0.56211392768E+03  0.17079008998E+03 0.  0.
        -24    2    5    5    0    0 -0.48160288889E+02 -0.24792835225E+02 -0.20286928564E+03  0.22412757800E+03  0.78378096806E+02 0.  0.
          5    1    3    3  501    0  0.68694435161E+02 -0.88952939380E+02 -0.36475597194E+03  0.38170742712E+03  0.47000000000E+01 0. -1.
        -11    1    4    4    0    0 -0.72542493110E+01 -0.23790849765E+02 -0.39053725972E+03  0.39132848081E+03  0.00000000000E+00 0.  1.
         12    1    4    4    0    0  0.32808759433E+02  0.34076387804E+02 -0.26349407869E+03  0.26770645194E+03  0.00000000000E+00 0. -1.
         -5    1    5    5    0  502 -0.46088656393E+02  0.10346023657E+03 -0.31840932425E+03  0.33798634968E+03  0.47000000000E+01 0.  1.
         13    1    6    6    0    0 -0.56094860517E+02 -0.33346978203E+02 -0.92837238975E+02  0.11347866439E+03  0.00000000000E+00 0. -1.
        -14    1    6    6    0    0  0.79345716273E+01  0.85541429771E+01 -0.11003204667E+03  0.11064891361E+03  0.00000000000E+00 0.  1.
</event>
<event>
12    1  0.8633375E-002  0.1811353E+03  0.7818608E-02  0.1166882E+00
         21   -1    0    0  501  502  0.00000000000E+00  0.00000000000E+00  0.32496399884E+03  0.32496399884E+03  0.00000000000E+00 0. -1.
         21   -1    0    0  502  503 -0.00000000000E+00 -0.00000000000E+00 -0.55119995773E+03  0.55119995773E+03  0.00000000000E+00 0. -1.
         -6    2    1    2    0  503 -0.58689721655E+02 -0.20722032717E+01 -0.50926702882E+03  0.54052095958E+03  0.17135117054E+03 0.  0.
        -24    2    3    3    0    0  0.17588346228E+02  0.50464538930E+01 -0.38262494950E+03  0.39243542627E+03  0.85257816024E+02 0.  0.
          6    2    1    2  501    0  0.58689721655E+02  0.20722032717E+01  0.28303106994E+03  0.33564299699E+03  0.17058973422E+03 0.  0.
         24    2    5    5    0    0  0.39140658876E+02 -0.60339215698E+02  0.11479185963E+03  0.15507757129E+03  0.75492184698E+02 0.  0.
          5    1    5    5  501    0  0.19549062779E+02  0.62411418970E+02  0.16823921031E+03  0.18056542570E+03  0.47000000000E+01 0. -1.
        -11    1    6    6    0    0  0.48968814974E+02 -0.71638531240E+01  0.45913020108E+02  0.67507562887E+02  0.00000000000E+00 0.  1.
         12    1    6    6    0    0 -0.98281560980E+01 -0.53175362574E+02  0.68878839522E+02  0.87570008399E+02  0.00000000000E+00 0. -1.
         -5    1    3    3    0  503 -0.76278067884E+02 -0.71186571647E+01 -0.12664207932E+03  0.14808553331E+03  0.47000000000E+01 0.  1.
         11    1    4    4    0    0 -0.47433618539E+00 -0.37923033674E+02 -0.22070924975E+03  0.22394408767E+03  0.00000000000E+00 0. -1.
        -12    1    4    4    0    0  0.18062682414E+02  0.42969487567E+02 -0.16191569975E+03  0.16849133860E+03  0.00000000000E+00 0.  1.
</event>
<event>
12    1  0.8633375E-002  0.2088738E+03  0.7818608E-02  0.1142527E+00
         21   -1    0    0  501  502  0.00000000000E+00  0.00000000000E+00  0.23323270361E+03  0.23323270361E+03  0.00000000000E+00 0. -1.
         21   -1    0    0  502  503 -0.00000000000E+00 -0.00000000000E+00 -0.25347600472E+03  0.25347600472E+03  0.00000000000E+00 0. -1.
         -6    2    1    2    0  503  0.10661883029E+03 -0.51758675881E+02 -0.13496231723E+03  0.24840489360E+03  0.17159145838E+03 0.  0.
        -24    2    3    3    0    0  0.13653911925E+03 -0.66365226263E+02 -0.99068499931E+02  0.19922124666E+03  0.82627253971E+02 0.  0.
          6    2    1    2  501    0 -0.10661883029E+03  0.51758675881E+02  0.11471901612E+03  0.23830381473E+03  0.17199337183E+03 0.  0.
         24    2    5    5    0    0 -0.74493386956E+02 -0.33433793284E+02  0.43805731105E+02  0.12280236494E+03  0.80587812494E+02 0.  0.
          5    1    5    5  501    0 -0.32125443334E+02  0.85192469165E+02  0.70913285020E+02  0.11550144979E+03  0.47000000000E+01 0. -1.
        -11    1    6    6    0    0 -0.59591822064E+02 -0.15355023053E+02  0.66205421430E+02  0.90388715095E+02  0.00000000000E+00 0.  1.
         12    1    6    6    0    0 -0.14901564892E+02 -0.18078770231E+02 -0.22399690325E+02  0.32413649840E+02  0.00000000000E+00 0. -1.
         -5    1    3    3    0  503 -0.29920288963E+02  0.14606550382E+02 -0.35893817304E+02  0.49183646940E+02  0.47000000000E+01 0.  1.
         11    1    4    4    0    0  0.85656008527E+02 -0.57980231359E+02 -0.10490601497E+03  0.14732254072E+03  0.00000000000E+00 0. -1.
        -12    1    4    4    0    0  0.50883110727E+02 -0.83849949039E+01  0.58375150441E+01  0.51898705944E+02  0.00000000000E+00 0.  1.
</event>
<event>
12    1  0.8633375E-002  0.1766655E+03  0.7818608E-02  0.1171387E+00
         21   -1    0    0  501  502  0.00000000000E+00  0.00000000000E+00  0.91010881094E+03  0.91010881094E+03  0.00000000000E+00 0.  1.
         21   -1    0    0  502  503 -0.00000000000E+00 -0.00000000000E+00 -0.49197167009E+02  0.49197167009E+02  0.00000000000E+00 0.  1.
         -6    2    1    2    0  503  0.38353405872E+02  0.54408099798E+01  0.69770778358E+03  0.71972693271E+03  0.17236623870E+03 0.  0.
        -24    2    3    3    0    0  0.79097613143E+02  0.13182983468E+02  0.31088934033E+03  0.33066314653E+03  0.79093053327E+02 0.  0.
          6    2    1    2  501    0 -0.38353405872E+02 -0.54408099798E+01  0.16320386035E+03  0.23957904524E+03  0.17106148815E+03 0.  0.
         24    2    5    5    0    0 -0.42893398666E+02  0.31901927008E+02  0.28777764929E+02  0.99909590202E+02  0.79348534101E+02 0.  0.
          5    1    5    5  501    0  0.45399927940E+01 -0.37342736988E+02  0.13442609542E+03  0.13966945504E+03  0.47000000000E+01 0. -1.
        -13    1    6    6    0    0 -0.18789930412E+02  0.48898208933E+02  0.42427767915E+02  0.67410769258E+02  0.00000000000E+00 0.  1.
         14    1    6    6    0    0 -0.24103468255E+02 -0.16996281925E+02 -0.13650002986E+02  0.32498820943E+02  0.00000000000E+00 0. -1.
         -5    1    3    3    0  503 -0.40744207270E+02 -0.77421734878E+01  0.38681844325E+03  0.38906378618E+03  0.47000000000E+01 0.  1.
         13    1    4    4    0    0  0.45080829527E+02 -0.20592813298E+02  0.74617600917E+02  0.89577516805E+02  0.00000000000E+00 0. -1.
        -14    1    4    4    0    0  0.34016783615E+02  0.33775796766E+02  0.23627173941E+03  0.24108562972E+03  0.00000000000E+00 0.  1.
</event>
<event>
12    1  0.8633375E-002  0.2025048E+03  0.7818608E-02  0.1148106E+00
         21   -1    0    0  501  502  0.00000000000E+00  0.00000000000E+00  0.56746806658E+02  0.56746806658E+02  0.00000000000E+00 0.  1.
         21   -1    0    0  502  503 -0.00000000000E+00 -0.00000000000E+00 -0.84501913531E+03  0.84501913531E+03  0.00000000000E+00 0.  1.
         -6    2    1    2    0  503  0.96298462420E+02  0.47359475095E+02 -0.57299638313E+03  0.60772778854E+03  0.17173204748E+03 0.  0.
        -24    2    3    3    0    0  0.14140609765E+02 -0.23819568181E+02 -0.16662585807E+03  0.18704327184E+03  0.80334801224E+02 0.  0.
          6    2    1    2  501    0 -0.96298462420E+02 -0.47359475095E+02 -0.21527594552E+03  0.29403815343E+03  0.16911058278E+03 0.  0.
         24    2    5    5    0    0 -0.12067029574E+03 -0.36156394478E+02 -0.22078460483E+03  0.26625451432E+03  0.79227643729E+02 0.  0.
          5    1    5    5  501    0  0.24371833324E+02 -0.11203080617E+02  0.55086593058E+01  0.27783639111E+02  0.47000000000E+01 0. -1.
        -11    1    6    6    0    0 -0.20297661521E+02 -0.41982468433E+02 -0.52467233599E+02  0.70194966490E+02  0.00000000000E+00 0.  1.
         12    1    6    6    0    0 -0.10037263422E+03  0.58260739549E+01 -0.16831737123E+03  0.19605954783E+03  0.00000000000E+00 0. -1.
         -5    1    3    3    0  503  0.82157852655E+02  0.71179043277E+02 -0.40637052506E+03  0.42068451670E+03  0.47000000000E+01 0.  1.
         11    1    4    4    0    0  0.30863466367E+02  0.20806708955E+02 -0.77548388229E+02  0.86018749180E+02  0.00000000000E+00 0. -1.
        -12    1    4    4    0    0 -0.16722856602E+02 -0.44626277136E+02 -0.89077469843E+02  0.10102452265E+03  0.00000000000E+00 0.  1.
</event>
<event>
12    1  0.8633375E-002  0.1941652E+03  0.7818608E-02  0.1154826E+00
         21   -1    0    0  503  502  0.00000000000E+00  0.00000000000E+00  0.17113261030E+03  0.17113261030E+03  0.00000000000E+00 0. -1.
         21   -1    0    0  501  503 -0.00000000000E+00 -0.00000000000E+00 -0.51864575034E+03  0.51864575034E+03  0.00000000000E+00 0. -1.
          6    2    1    2  501    0  0.88005759016E+02 -0.12869092278E+02 -0.43555134309E+03  0.47687012029E+03  0.17259638466E+03 0.  0.
         24    2    3    3    0    0  0.23832036198E+02 -0.50876965991E+00 -0.38562609327E+03  0.39449497327E+03  0.79690497135E+02 0.  0.
         -6    2    1    2    0  502 -0.88005759016E+02  0.12869092278E+02  0.88038203044E+02  0.21290824035E+03  0.17224565730E+03 0.  0.
        -24    2    5    5    0    0 -0.11190582298E+03  0.38524861578E+02  0.31908313218E+02  0.14656002193E+03  0.80340658455E+02 0.  0.
          5    1    3    3  501    0  0.64173722818E+02 -0.12360322619E+02 -0.49925249822E+02  0.82375147013E+02  0.47000000000E+01 0. -1.
        -13    1    4    4    0    0 -0.43578227060E+01  0.38809903848E+01  0.17324638402E+01  0.60872108606E+01  0.00000000000E+00 0.  1.
         14    1    4    4    0    0  0.28189858904E+02 -0.43897600447E+01 -0.38735855711E+03  0.38840776241E+03  0.00000000000E+00 0. -1.
         -5    1    5    5    0  502  0.23900063962E+02 -0.25655769300E+02  0.56129889826E+02  0.66348218420E+02  0.47000000000E+01 0.  1.
         11    1    6    6    0    0 -0.53841285003E+01  0.12255538435E+01  0.33233394293E+02  0.33689008863E+02  0.00000000000E+00 0. -1.
        -12    1    6    6    0    0 -0.10652169448E+03  0.37299307735E+02 -0.13250810747E+01  0.11287101307E+03  0.00000000000E+00 0.  1.
</event>
<event>
12    1  0.8633375E-002  0.2067297E+03  0.7818608E-02  0.1146378E+00
         21   -1    0    0  503  502  0.00000000000E+00  0.00000000000E+00  0.87247664046E+03  0.87247664046E+03  0.00000000000E+00 0.  1.
         21   -1    0    0  501  503 -0.00000000000E+00 -0.00000000000E+00 -0.58675769172E+02  0.58675769172E+02  0.00000000000E+00 0. -1.
          6    2    1    2  501    0 -0.81346748414E+02 -0.47700318309E+02  0.18651619832E+03  0.27068044927E+03  0.17200871936E+03 0.  0.
         24    2    3    3    0    0 -0.56154009409E+02  0.38618362134E+02  0.97730297050E+02  0.14422644595E+03  0.81273649375E+02 0.  0.
         -6    2    1    2    0  502  0.81346748414E+02  0.47700318309E+02  0.62728467297E+03  0.66047196037E+03  0.18396884420E+03 0.  0.
        -24    2    5    5    0    0  0.34687999406E+02  0.19348687533E+01  0.55939238409E+03  0.56611641934E+03  0.79755625838E+02 0.  0.
          5    1    3    3  501    0 -0.25192739005E+02 -0.86318680443E+02  0.88785901265E+02  0.12645400332E+03  0.47000000000E+01 0. -1.
        -11    1    4    4    0    0 -0.49973845162E+02  0.20122691003E+02  0.10908346504E+03  0.12166145749E+03  0.00000000000E+00 0.  1.
         12    1    4    4    0    0 -0.61801642465E+01  0.18495671130E+02 -0.11353167990E+02  0.22564988458E+02  0.00000000000E+00 0. -1.
         -5    1    5    5    0  502  0.46658749008E+02  0.45765449555E+02  0.67892288888E+02  0.94355541026E+02  0.47000000000E+01 0.  1.
         11    1    6    6    0    0 -0.24061903548E+02  0.97525033087E+01  0.12240904347E+03  0.12513217191E+03  0.00000000000E+00 0. -1.
        -12    1    6    6    0    0  0.58749902954E+02 -0.78176345554E+01  0.43698334061E+03  0.44098424743E+03  0.00000000000E+00 0.  1.
</event>
<event>
12    1  0.8633375E-002  0.2089708E+03  0.7818608E-02  0.1142597E+00
         21   -1    0    0  503  502  0.00000000000E+00  0.00000000000E+00  0.99105121775E+02  0.99105121775E+02  0.00000000000E+00 0.  1.
         21   -1    0    0  501  503 -0.00000000000E+00 -0.00000000000E+00 -0.44550477760E+03  0.44550477760E+03  0.00000000000E+00 0. -1.
          6    2    1    2  501    0 -0.48024440391E+02 -0.10718453010E+03 -0.20720246476E+03  0.29352292602E+03  0.17154584324E+03 0.  0.
         24    2    3    3    0    0 -0.26611432152E+02 -0.82235459093E+02 -0.38698725520E+02  0.12177726173E+03  0.76558938505E+02 0.  0.
         -6    2    1    2    0  502  0.48024440391E+02  0.10718453010E+03 -0.13919719106E+03  0.25108697335E+03  0.17284079327E+03 0.  0.
        -24    2    5    5    0    0  0.78380527688E+02  0.50926093218E+02 -0.32053374017E+02  0.12623349407E+03  0.78552543870E+02 0.  0.
          5    1    3    3  501    0 -0.21413008239E+02 -0.24949071002E+02 -0.16850373924E+03  0.17174566429E+03  0.47000000000E+01 0. -1.
        -13    1    4    4    0    0 -0.32721791658E+02 -0.11253513516E+01 -0.27777887355E+01  0.32858761011E+02  0.00000000000E+00 0.  1.
         14    1    4    4    0    0  0.61103595058E+01 -0.81110107742E+02 -0.35920936785E+02  0.88918500722E+02  0.00000000000E+00 0. -1.
         -5    1    5    5    0  502 -0.30356087297E+02  0.56258436878E+02 -0.10714381705E+03  0.12485347927E+03  0.47000000000E+01 0.  1.
         13    1    6    6    0    0  0.44749991779E+02 -0.11879227402E+02 -0.29591112660E+02  0.54948264361E+02  0.00000000000E+00 0. -1.
        -14    1    6    6    0    0  0.33630535909E+02  0.62805320621E+02 -0.24622613574E+01  0.71285229710E+02  0.00000000000E+00 0.  1.
</event>
<event>
12    1  0.8633375E-002  0.2251957E+03  0.7818608E-02  0.1130099E+00
         21   -1    0    0  501  502  0.00000000000E+00  0.00000000000E+00  0.56994495937E+03  0.56994495937E+03  0.00000000000E+00 0. -1.
         21   -1    0    0  502  503 -0.00000000000E+00 -0.00000000000E+00 -0.89031350967E+02  0.89031350967E+02  0.00000000000E+00 0.  1.
         -6    2    1    2    0  503 -0.12864534325E+03  0.67831037592E+02  0.22818307393E+03  0.32047102528E+03  0.17170756772E+03 0.  0.
        -24    2    3    3    0    0 -0.94729200826E+02  0.93844183468E+02  0.90509565124E+02  0.17623831920E+03  0.71327494810E+02 0.  0.
          6    2    1    2  501    0  0.12864534325E+03 -0.67831037592E+02  0.25273053447E+03  0.33850528506E+03  0.17193728786E+03 0.  0.
         24    2    5    5    0    0  0.92602559721E+02  0.10252956329E+02  0.20687693022E+03  0.24093051694E+03  0.81049938643E+02 0.  0.
          5    1    5    5  501    0  0.36042783531E+02 -0.78083993921E+02  0.45853604255E+02  0.97574768124E+02  0.47000000000E+01 0. -1.
        -13    1    6    6    0    0  0.59001879811E+02  0.28004568754E+02  0.58219716864E+02  0.87492931852E+02  0.00000000000E+00 0.  1.
         14    1    6    6    0    0  0.33600679910E+02 -0.17751612425E+02  0.14865721336E+03  0.15343758508E+03  0.00000000000E+00 0. -1.
         -5    1    3    3    0  503 -0.33916142426E+02 -0.26013145876E+02  0.13767350881E+03  0.14423270608E+03  0.47000000000E+01 0.  1.
         11    1    4    4    0    0 -0.62302648304E+02  0.88106016850E+02  0.94018541987E+02  0.14312154425E+03  0.00000000000E+00 0. -1.
        -12    1    4    4    0    0 -0.32426552522E+02  0.57381666179E+01 -0.35089768627E+01  0.33116774952E+02  0.00000000000E+00 0.  1.
</event>
<event>
12    1  0.8633375E-002  0.2380063E+03  0.7818608E-02  0.1121327E+00
         21   -1    0    0  501  502  0.00000000000E+00  0.00000000000E+00  0.16141830950E+03  0.16141830950E+03  0.00000000000E+00 0.  1.
         21   -1    0    0  502  503 -0.00000000000E+00 -0.00000000000E+00 -0.35039046233E+03  0.35039046233E+03  0.00000000000E+00 0. -1.
         -6    2    1    2    0  503 -0.11921887330E+03  0.11249114022E+03 -0.79793326865E+02  0.25102580554E+03  0.17256762053E+03 0.  0.
        -24    2    3    3    0    0 -0.10132914809E+03  0.39846012340E+01 -0.44852480660E+02  0.13554133037E+03  0.77950201532E+02 0.  0.
          6    2    1    2  501    0  0.11921887330E+03 -0.11249114022E+03 -0.10917882597E+03  0.26078296629E+03  0.17093958901E+03 0.  0.
         24    2    5    5    0    0  0.22983408164E+02 -0.96812509015E+02 -0.82869281876E+02  0.15968219312E+03  0.93435464184E+02 0.  0.
          5    1    5    5  501    0  0.96235465137E+02 -0.15678631206E+02 -0.26309544089E+02  0.10110077318E+03  0.47000000000E+01 0. -1.
        -11    1    6    6    0    0 -0.33206744219E+02 -0.27927585263E+02 -0.46598799873E+02  0.63671705096E+02  0.00000000000E+00 0.  1.
         12    1    6    6    0    0  0.56190152383E+02 -0.68884923752E+02 -0.36270482003E+02  0.96010488021E+02  0.00000000000E+00 0. -1.
         -5    1    3    3    0  503 -0.17889725214E+02  0.10850653899E+03 -0.34940846205E+02  0.11548447517E+03  0.47000000000E+01 0.  1.
         13    1    4    4    0    0  0.11222153297E+02 -0.74192007247E+01 -0.11227056624E+02  0.17522216311E+02  0.00000000000E+00 0. -1.
        -14    1    4    4    0    0 -0.11255130138E+03  0.11403801959E+02 -0.33625424036E+02  0.11801911406E+03  0.00000000000E+00 0.  1.
</event>
<event>
12    1  0.8633375E-002  0.1859055E+03  0.7818608E-02  0.1162256E+00
         21   -1    0    0  503  502  0.00000000000E+00  0.00000000000E+00  0.13786908874E+03  0.13786908874E+03  0.00000000000E+00 0.  1.
         21   -1    0    0  501  503 -0.00000000000E+00 -0.00000000000E+00 -0.25763441278E+03  0.25763441278E+03  0.00000000000E+00 0.  1.
          6    2    1    2  501    0 -0.26068593243E+02  0.62388659704E+02 -0.26763436567E+02  0.18782206768E+03  0.17317312482E+03 0.  0.
         24    2    3    3    0    0 -0.54090777615E+02  0.97399618444E+02 -0.40118076432E+02  0.14079604877E+03  0.76168033956E+02 0.  0.
         -6    2    1    2    0  502  0.26068593243E+02 -0.62388659704E+02 -0.93001887476E+02  0.20768143383E+03  0.17294597558E+03 0.  0.
        -24    2    5    5    0    0 -0.23053016346E+02  0.23948319474E+02 -0.34200411929E+02  0.92153471721E+02  0.78851953723E+02 0.  0.
          5    1    3    3  501    0  0.28022184372E+02 -0.35010958740E+02  0.13354639866E+02  0.47026018913E+02  0.47000000000E+01 0. -1.
        -13    1    4    4    0    0  0.10864593280E+02  0.35564375776E+02  0.93934023810E+01  0.38354924322E+02  0.00000000000E+00 0.  1.
         14    1    4    4    0    0 -0.64955370895E+02  0.61835242668E+02 -0.49511478813E+02  0.10244112445E+03  0.00000000000E+00 0. -1.
         -5    1    5    5    0  502  0.49121609589E+02 -0.86336979178E+02 -0.58801475548E+02  0.11552796211E+03  0.47000000000E+01 0.  1.
         13    1    6    6    0    0  0.27058747942E+02  0.20967411673E+02 -0.21316414380E+02  0.40326141825E+02  0.00000000000E+00 0. -1.
        -14    1    6    6    0    0 -0.50111764288E+02  0.29809078011E+01 -0.12883997549E+02  0.51827329897E+02  0.00000000000E+00 0.  1.
</event>
<event>
12    1  0.8633375E-002  0.1952730E+03  0.7818608E-02  0.1153995E+00
         21   -1    0    0  503  502  0.00000000000E+00  0.00000000000E+00  0.16972120559E+03  0.16972120559E+03  0.00000000000E+00 0. -1.
         21   -1    0    0  501  503 -0.00000000000E+00 -0.00000000000E+00 -0.22661702256E+03  0.22661702256E+03  0.00000000000E+00 0.  1.
          6    2    1    2  501    0  0.71192733712E+02  0.61039446026E+02 -0.51410620087E+02  0.20192720964E+03  0.17128142582E+03 0.  0.
         24    2    3    3    0    0  0.77842601959E+02  0.38238008850E+02 -0.95208791816E+02  0.15188226852E+03  0.80510207128E+02 0.  0.
         -6    2    1    2    0  502 -0.71192733712E+02 -0.61039446026E+02 -0.54851968853E+01  0.19441101851E+03  0.17020968665E+03 0.  0.
        -24    2    5    5    0    0  0.12102131268E+02 -0.52409628078E+02 -0.39464011390E+02  0.10391705117E+03  0.79675056528E+02 0.  0.
          5    1    3    3  501    0 -0.66498682478E+01  0.22801437177E+02  0.43798171729E+02  0.50044941122E+02  0.47000000000E+01 0. -1.
        -13    1    4    4    0    0  0.85568013728E+02  0.44870357629E+02 -0.56650480215E+02  0.11200228067E+03  0.00000000000E+00 0.  1.
         14    1    4    4    0    0 -0.77254117691E+01 -0.66323487797E+01 -0.38558311602E+02  0.39879987850E+02  0.00000000000E+00 0. -1.
         -5    1    5    5    0  502 -0.83294864980E+02 -0.86298179480E+01  0.33978814504E+02  0.90493967340E+02  0.47000000000E+01 0.  1.
         11    1    6    6    0    0  0.33755797130E+02 -0.21349091736E+02  0.10432843984E+02  0.41280525571E+02  0.00000000000E+00 0. -1.
        -12    1    6    6    0    0 -0.21653665862E+02 -0.31060536342E+02 -0.49896855374E+02  0.62636525600E+02  0.00000000000E+00 0.  1.
</event>
<event>
12    1  0.8633375E-002  0.2016805E+03  0.7818608E-02  0.1148614E+00
         21   -1    0    0  503  502  0.00000000000E+00  0.00000000000E+00  0.28589269013E+03  0.28589269013E+03  0.00000000000E+00 0. -1.
         21   -1    0    0  501  503 -0.00000000000E+00 -0.00000000000E+00 -0.16292917229E+03  0.16292917229E+03  0.00000000000E+00 0.  1.
          6    2    1    2  501    0 -0.80580485580E+02 -0.61693173020E+02 -0.20436608458E+02  0.20135750466E+03  0.17270763580E+03 0.  0.
         24    2    3    3    0    0 -0.41088458406E+02 -0.86480216504E+02  0.38695949495E+02  0.12590707626E+03  0.72028647670E+02 0.  0.
         -6    2    1    2    0  502  0.80580485580E+02  0.61693173020E+02  0.14340012630E+03  0.24746435776E+03  0.17428640189E+03 0.  0.
        -24    2    5    5    0    0  0.53531535676E+02  0.10162929229E+03  0.14119808053E+03  0.19895169633E+03  0.80316506178E+02 0.  0.
          5    1    3    3  501    0 -0.39492027175E+02  0.24787043485E+02 -0.59132557953E+02  0.75450428396E+02  0.47000000000E+01 0. -1.
        -13    1    4    4    0    0 -0.37542725215E+01 -0.31794602253E+01 -0.17858231985E+02  0.18523498026E+02  0.00000000000E+00 0.  1.
         14    1    4    4    0    0 -0.37334185884E+02 -0.83300756279E+02  0.56554181480E+02  0.10738357824E+03  0.00000000000E+00 0. -1.
         -5    1    5    5    0  502  0.27048949905E+02 -0.39936119270E+02  0.22020457689E+01  0.48512661428E+02  0.47000000000E+01 0.  1.
         11    1    6    6    0    0  0.63977611089E+02  0.48536690284E+02  0.11094284741E+03  0.13695714810E+03  0.00000000000E+00 0. -1.
        -12    1    6    6    0    0 -0.10446075414E+02  0.53092602005E+02  0.30255233123E+02  0.61994548233E+02  0.00000000000E+00 0.  1.
</event>
<event>
12    1  0.8633375E-002  0.1836374E+03  0.7818608E-02  0.1164633E+00
         21   -1    0    0  503  502  0.00000000000E+00  0.00000000000E+00  0.28629998491E+03  0.28629998491E+03  0.00000000000E+00 0. -1.
         21   -1    0    0  501  503 -0.00000000000E+00 -0.00000000000E+00 -0.11721304498E+03  0.11721304498E+03  0.00000000000E+00 0. -1.
          6    2    1    2  501    0 -0.59181517950E+02 -0.12720748739E+02  0.93555534517E+02  0.20494892704E+03  0.17200917167E+03 0.  0.
         24    2    3    3    0    0 -0.97963314548E+02 -0.30057495748E+02  0.38645182288E+02  0.13536568677E+03  0.79562271159E+02 0.  0.
         -6    2    1    2    0  502  0.59181517950E+02  0.12720748739E+02  0.75531405414E+02  0.19856410285E+03  0.17337370107E+03 0.  0.
        -24    2    5    5    0    0  0.19377339108E+02  0.68654279863E+02  0.72321379068E+02  0.12967777020E+03  0.80604285235E+02 0.  0.
          5    1    3    3  501    0  0.38781796599E+02  0.17336747009E+02  0.54910352228E+02  0.69583240267E+02  0.47000000000E+01 0. -1.
        -13    1    4    4    0    0 -0.59792578141E+02 -0.22553477518E+01  0.58919706949E+02  0.83974822781E+02  0.00000000000E+00 0.  1.
         14    1    4    4    0    0 -0.38170736407E+02 -0.27802147996E+02 -0.20274524660E+02  0.51390863986E+02  0.00000000000E+00 0. -1.
         -5    1    5    5    0  502  0.39804178842E+02 -0.55933531125E+02  0.32100263468E+01  0.68886332654E+02  0.47000000000E+01 0.  1.
         11    1    6    6    0    0  0.15421862405E+01  0.24672159148E+02  0.78051264526E+02  0.81872423133E+02  0.00000000000E+00 0. -1.
        -12    1    6    6    0    0  0.17835152868E+02  0.43982120715E+02 -0.57298854589E+01  0.47805347063E+02  0.00000000000E+00 0.  1.
</event>
<event>
12    1  0.8633375E-002  0.1971288E+03  0.7818608E-02  0.1152309E+00
         21   -1    0    0  503  502  0.00000000000E+00  0.00000000000E+00  0.64304431021E+02  0.64304431021E+02  0.00000000000E+00 0. -1.
         21   -1    0    0  501  503 -0.00000000000E+00 -0.00000000000E+00 -0.13937025304E+04  0.13937025304E+04  0.00000000000E+00 0. -1.
          6    2    1    2  501    0  0.76357426411E+02 -0.57128970887E+02 -0.12143834470E+04  0.12302792003E+04  0.17252703713E+03 0.  0.
         24    2    3    3    0    0  0.97427317439E+02  0.11456953267E+02 -0.72614608904E+03  0.73677562688E+03  0.76985958324E+02 0.  0.
         -6    2    1    2    0  502 -0.76357426411E+02  0.57128970887E+02 -0.11501465240E+03  0.22772776111E+03  0.17186444377E+03 0.  0.
        -24    2    5    5    0    0 -0.11569135410E+03  0.25043164579E+02 -0.67269997388E+02  0.15788294086E+03  0.79938232142E+02 0.  0.
          5    1    3    3  501    0 -0.21069891028E+02 -0.68585924153E+02 -0.48823735794E+03  0.49350357343E+03  0.47000000000E+01 0. -1.
        -13    1    4    4    0    0  0.86361004077E+01  0.28460436819E+02 -0.27908543787E+03  0.28066574484E+03  0.00000000000E+00 0.  1.
         14    1    4    4    0    0  0.88791217031E+02 -0.17003483553E+02 -0.44706065117E+03  0.45610988205E+03  0.00000000000E+00 0. -1.
         -5    1    5    5    0  502  0.39333927693E+02  0.32085806308E+02 -0.47744655016E+02  0.69844820257E+02  0.47000000000E+01 0.  1.
         11    1    6    6    0    0 -0.10210430932E+03  0.44040788583E+02 -0.32233617844E+02  0.11577515778E+03  0.00000000000E+00 0. -1.
        -12    1    6    6    0    0 -0.13587044788E+02 -0.18997624004E+02 -0.35036379544E+02  0.42107783074E+02  0.00000000000E+00 0.  1.
</event>
<event>
12    1  0.8633375E-002  0.1937074E+03  0.7818608E-02  0.1155287E+00
         21   -1    0    0  503  502  0.00000000000E+00  0.00000000000E+00  0.57170321874E+02  0.57170321874E+02  0.00000000000E+00 0. -1.
         21   -1    0    0  501  503 -0.00000000000E+00 -0.00000000000E+00 -0.96523933044E+03  0.96523933044E+03  0.00000000000E+00 0.  1.
          6    2    1    2  501    0 -0.79320214788E+02 -0.39385094919E+02 -0.74368736675E+03  0.76835478439E+03  0.17162544407E+03 0.  0.
         24    2    3    3    0    0 -0.10611129079E+03 -0.65420261668E+02 -0.66281551283E+03  0.67914750656E+03  0.79859344762E+02 0.  0.
         -6    2    1    2    0  502  0.79320214788E+02  0.39385094919E+02 -0.16438164182E+03  0.25405486793E+03  0.17227788475E+03 0.  0.
        -24    2    5    5    0    0  0.11801490439E+03  0.54325298044E+02 -0.12915987141E+03  0.19943663119E+03  0.78828559629E+02 0.  0.
          5    1    3    3  501    0  0.26791076007E+02  0.26035166749E+02 -0.80871853920E+02  0.89207277829E+02  0.47000000000E+01 0. -1.
        -13    1    4    4    0    0 -0.70983284808E+02 -0.82587680613E+02 -0.48027868189E+03  0.49247026711E+03  0.00000000000E+00 0.  1.
         14    1    4    4    0    0 -0.35128005987E+02  0.17167418945E+02 -0.18253683094E+03  0.18667723944E+03  0.00000000000E+00 0. -1.
         -5    1    5    5    0  502 -0.38694689605E+02 -0.14940203125E+02 -0.35221770407E+02  0.54618236731E+02  0.47000000000E+01 0.  1.
         13    1    6    6    0    0  0.74161423317E+02  0.63004771689E+02 -0.52182210154E+02  0.11041965867E+03  0.00000000000E+00 0. -1.
        -14    1    6    6    0    0  0.43853481075E+02 -0.86794736447E+01 -0.76977661256E+02  0.89016972525E+02  0.00000000000E+00 0.  1.
</event>
<event>
12    1  0.8633375E-002  0.1745013E+03  0.7818608E-02  0.1173861E+00
         21   -1    0    0  503  502  0.00000000000E+00  0.00000000000E+00  0.42035143011E+03  0.42035143011E+03  0.00000000000E+00 0. -1.
         21   -1    0    0  501  503 -0.00000000000E+00 -0.00000000000E+00 -0.14403864549E+03  0.14403864549E+03  0.00000000000E+00 0. -1.
          6    2    1    2  501    0  0.20406861288E+02 -0.20123671268E+02 -0.62701576415E+02  0.18310087382E+03  0.16962617774E+03 0.  0.
         24    2    3    3    0    0  0.18041714871E+02 -0.11116325842E+02 -0.10958920174E+03  0.13506686922E+03  0.76053861482E+02 0.  0.
         -6    2    1    2    0  502 -0.20406861288E+02  0.20123671268E+02  0.33901436104E+03  0.38128920178E+03  0.17213168294E+03 0.  0.
        -24    2    5    5    0    0 -0.56441374421E+02  0.52070242770E+02  0.30036117295E+03  0.31935997995E+03  0.76661748261E+02 0.  0.
          5    1    3    3  501    0  0.23651464168E+01 -0.90073454268E+01  0.46887625328E+02  0.48034004602E+02  0.47000000000E+01 0. -1.
        -13    1    4    4    0    0 -0.76090822649E+01 -0.20065568196E+02  0.70965273193E+00  0.21471580448E+02  0.00000000000E+00 0.  1.
         14    1    4    4    0    0  0.25650797136E+02  0.89492423547E+01 -0.11029885447E+03  0.11359528877E+03  0.00000000000E+00 0. -1.
         -5    1    5    5    0  502  0.36034513133E+02 -0.31946571502E+02  0.38653188081E+02  0.61929221828E+02  0.47000000000E+01 0.  1.
         11    1    6    6    0    0 -0.48102242279E+02  0.10750223128E+02  0.72726056034E+02  0.87854836155E+02  0.00000000000E+00 0. -1.
        -12    1    6    6    0    0 -0.83391321417E+01  0.41320019642E+02  0.22763511692E+03  0.23150514380E+03  0.00000000000E+00 0.  1.
</event>
<event>
12    1  0.8633375E-002  0.2940290E+03  0.7818608E-02  0.1088441E+00
         21   -1    0    0  503  502  0.00000000000E+00  0.00000000000E+00  0.41901771370E+03  0.41901771370E+03  0.00000000000E+00 0.  1.
         21   -1    0    0  501  503 -0.00000000000E+00 -0.00000000000E+00 -0.21303089007E+03  0.21303089007E+03  0.00000000000E+00 0.  1.
          6    2    1    2  501    0 -0.11769339970E+03 -0.20598012986E+03  0.42786271780E+02  0.29576375363E+03  0.17136505676E+03 0.  0.
         24    2    3    3    0    0 -0.67484868052E+02 -0.43317557613E+02  0.54232135202E+02  0.12507952223E+03  0.79203182883E+02 0.  0.
         -6    2    1    2    0  502  0.11769339970E+03  0.20598012986E+03  0.16320055184E+03  0.33628485014E+03  0.17370529663E+03 0.  0.
        -24    2    5    5    0    0  0.33540943625E+02  0.93643920187E+02  0.14904899286E+03  0.19513451720E+03  0.77250882471E+02 0.  0.
          5    1    3    3  501    0 -0.50208531651E+02 -0.16266257225E+03 -0.11445863423E+02  0.17068423140E+03  0.47000000000E+01 0. -1.
        -11    1    4    4    0    0 -0.33329117923E+02  0.24897959460E-01 -0.14997053383E+02  0.36547808848E+02  0.00000000000E+00 0.  1.
         12    1    4    4    0    0 -0.34155750130E+02 -0.43342455573E+02  0.69229188585E+02  0.88531713381E+02  0.00000000000E+00 0. -1.
         -5    1    5    5    0  502  0.84152456079E+02  0.11233620967E+03  0.14151558987E+02  0.14115033294E+03  0.47000000000E+01 0.  1.
         13    1    6    6    0    0  0.45289678747E+02  0.84176644632E+02  0.15219409021E+03  0.17972173936E+03  0.00000000000E+00 0. -1.
        -14    1    6    6    0    0 -0.11748735122E+02  0.94672755542E+01 -0.31450973526E+01  0.15412777840E+02  0.00000000000E+00 0.  1.
</event>
<event>
12    1  0.8633375E-002  0.1776770E+03  0.7818608E-02  0.1170219E+00
         21   -1    0    0  503  502  0.00000000000E+00  0.00000000000E+00  0.60633459481E+02  0.60633459481E+02  0.00000000000E+00 0. -1.
         21   -1    0    0  501  503 -0.00000000000E+00 -0.00000000000E+00 -0.55363835279E+03  0.55363835279E+03  0.00000000000E+00 0. -1.
          6    2    1    2  501    0 -0.43816521523E+01 -0.41245620651E+02 -0.32384200972E+03  0.36938160116E+03  0.17276782084E+03 0.  0.
         24    2    3    3    0    0 -0.29432525064E+02 -0.20220311428E+02 -0.32475487709E+03  0.33632811135E+03  0.79848192020E+02 0.  0.
         -6    2    1    2    0  502  0.43816521523E+01  0.41245620651E+02 -0.16916288360E+03  0.24489021111E+03  0.17214742001E+03 0.  0.
        -24    2    5    5    0    0 -0.29646311809E+02  0.44929434520E+02 -0.29159543493E+02  0.10068723592E+03  0.79937992279E+02 0.  0.
          5    1    3    3  501    0  0.25050872912E+02 -0.21025309223E+02  0.91286736955E+00  0.33053489806E+02  0.47000000000E+01 0. -1.
        -11    1    4    4    0    0 -0.48389569171E+02 -0.34376966183E+02 -0.17691970073E+03  0.18661164678E+03  0.00000000000E+00 0.  1.
         12    1    4    4    0    0  0.18957044107E+02  0.14156654755E+02 -0.14783517636E+03  0.14971646457E+03  0.00000000000E+00 0. -1.
         -5    1    5    5    0  502  0.34027963961E+02 -0.36838138696E+01 -0.14000334010E+03  0.14420297520E+03  0.47000000000E+01 0.  1.
         13    1    6    6    0    0 -0.46336657718E+02  0.57633591801E+02 -0.15215245125E+02  0.75499804215E+02  0.00000000000E+00 0. -1.
        -14    1    6    6    0    0  0.16690345909E+02 -0.12704157280E+02 -0.13944298368E+02  0.25187431702E+02  0.00000000000E+00 0.  1.
</event>
<event>
12    1  0.8633375E-002  0.2361683E+03  0.7818608E-02  0.1123225E+00
         21   -1    0    0  503  502  0.00000000000E+00  0.00000000000E+00  0.50142601646E+02  0.50142601646E+02  0.00000000000E+00 0.  1.
         21   -1    0    0  501  503 -0.00000000000E+00 -0.00000000000E+00 -0.14780806403E+04  0.14780806403E+04  0.00000000000E+00 0.  1.
          6    2    1    2  501    0 -0.37719344490E+02  0.15803724035E+03 -0.31642062642E+03  0.39189300113E+03  0.16449800372E+03 0.  0.
         24    2    3    3    0    0  0.24140338037E+02  0.82543410197E+02 -0.98256032324E+02  0.15284526776E+03  0.79443423270E+02 0.  0.
         -6    2    1    2    0  502  0.37719344490E+02 -0.15803724035E+03 -0.11115174123E+04  0.11363302408E+04  0.17139702508E+03 0.  0.
        -24    2    5    5    0    0 -0.74848077876E+01 -0.10718263933E+03 -0.40970262271E+03  0.43120919119E+03  0.80876368553E+02 0.  0.
          5    1    3    3  501    0 -0.61859682527E+02  0.75493830150E+02 -0.21816459410E+03  0.23904773337E+03  0.47000000000E+01 0. -1.
        -13    1    4    4    0    0  0.36736509244E+01  0.50800624109E+02 -0.10287680648E+03  0.11479475786E+03  0.00000000000E+00 0.  1.
         14    1    4    4    0    0  0.20466687113E+02  0.31742786089E+02  0.46207741516E+01  0.38050509902E+02  0.00000000000E+00 0. -1.
         -5    1    5    5    0  502  0.45204152278E+02 -0.50854601016E+02 -0.70181478954E+03  0.70512104964E+03  0.47000000000E+01 0.  1.
         11    1    6    6    0    0  0.28484861224E+02 -0.10077916518E+02 -0.75142245149E+02  0.80989559366E+02  0.00000000000E+00 0. -1.
        -12    1    6    6    0    0 -0.35969669012E+02 -0.97104722813E+02 -0.33456037756E+03  0.35021963183E+03  0.00000000000E+00 0.  1.
</event>
<event>
12    1  0.8633375E-002  0.1817376E+03  0.7818608E-02  0.1166253E+00
         21   -1    0    0  501  502  0.00000000000E+00  0.00000000000E+00  0.10524524978E+03  0.10524524978E+03  0.00000000000E+00 0.  1.
         21   -1    0    0  502  503 -0.00000000000E+00 -0.00000000000E+00 -0.34046449377E+03  0.34046449377E+03  0.00000000000E+00 0. -1.
         -6    2    1    2    0  503  0.47274910783E+02  0.32664311127E+02 -0.54107241877E+02  0.18913596596E+03  0.17188061434E+03 0.  0.
        -24    2    3    3    0    0 -0.34038581901E+02  0.63722612081E+02 -0.22989462847E+02  0.96578371338E+02  0.59830343974E+02 0.  0.
          6    2    1    2  501    0 -0.47274910783E+02 -0.32664311127E+02 -0.18111200212E+03  0.25657377759E+03  0.17241424426E+03 0.  0.
         24    2    5    5    0    0 -0.76653997602E+02  0.20152517425E+02 -0.77837377653E+02  0.13682200858E+03  0.79872682228E+02 0.  0.
          5    1    5    5  501    0  0.29379086820E+02 -0.52816828552E+02 -0.10327462447E+03  0.11975176900E+03  0.47000000000E+01 0. -1.
        -13    1    6    6    0    0 -0.37830612980E+02  0.29326965985E+02 -0.83779179115E+02  0.96489258809E+02  0.00000000000E+00 0.  1.
         14    1    6    6    0    0 -0.38823384622E+02 -0.91744485600E+01  0.59418014614E+01  0.40332749776E+02  0.00000000000E+00 0. -1.
         -5    1    3    3    0  503  0.81313492684E+02 -0.31058300954E+02 -0.31117779031E+02  0.92557594623E+02  0.47000000000E+01 0.  1.
         13    1    4    4    0    0 -0.43990690138E+02  0.31510148883E+02 -0.30389245298E+02  0.62061070981E+02  0.00000000000E+00 0. -1.
        -14    1    4    4    0    0  0.99521082376E+01  0.32212463197E+02  0.73997824509E+01  0.34517300357E+02  0.00000000000E+00 0.  1.
</event>
<event>
12    1  0.8633375E-002  0.1920162E+03  0.7818608E-02  0.1156778E+00
         21   -1    0    0  501  502  0.00000000000E+00  0.00000000000E+00  0.11554599794E+03  0.11554599794E+03  0.00000000000E+00 0. -1.
         21   -1    0    0  502  503 -0.00000000000E+00 -0.00000000000E+00 -0.32054026034E+03  0.32054026034E+03  0.00000000000E+00 0. -1.
         -6    2    1    2    0  503  0.11919151075E+01  0.83252752796E+02 -0.83657313340E+02  0.20894557745E+03  0.17241597012E+03 0.  0.
        -24    2    3    3    0    0  0.34224780362E+02  0.36521935429E+01  0.24223599199E+01  0.87047179721E+02  0.79916641329E+02 0.  0.
          6    2    1    2  501    0 -0.11919151075E+01 -0.83252752796E+02 -0.12133694906E+03  0.22714068082E+03  0.17302540902E+03 0.  0.
         24    2    5    5    0    0 -0.61080073276E+02 -0.24817868733E+02 -0.93009170244E+02  0.13867724082E+03  0.78955490071E+02 0.  0.
          5    1    5    5  501    0  0.59888158169E+02 -0.58434884063E+02 -0.28327778818E+02  0.88463440003E+02  0.47000000000E+01 0. -1.
        -11    1    6    6    0    0 -0.11371249031E+02  0.14574399848E+02  0.74017932849E+01  0.19912432782E+02  0.00000000000E+00 0.  1.
         12    1    6    6    0    0 -0.49708824245E+02 -0.39392268581E+02 -0.10041096353E+03  0.11876480804E+03  0.00000000000E+00 0. -1.
         -5    1    3    3    0  503 -0.33032865255E+02  0.79600559253E+02 -0.86079673260E+02  0.12189839773E+03  0.47000000000E+01 0.  1.
         11    1    4    4    0    0  0.19225956892E+02  0.29937617283E+02  0.29668092816E+02  0.46325954694E+02  0.00000000000E+00 0. -1.
        -12    1    4    4    0    0  0.14998823470E+02 -0.26285423740E+02 -0.27245732896E+02  0.40721225027E+02  0.00000000000E+00 0.  1.
</event>
<event>
12    1  0.8633375E-002  0.1754007E+03  0.7818608E-02  0.1172818E+00
         21   -1    0    0  501  502  0.00000000000E+00  0.00000000000E+00  0.47937655694E+02  0.47937655694E+02  0.00000000000E+00 0.  1.
         21   -1    0    0  502  503 -0.00000000000E+00 -0.00000000000E+00 -0.71617155561E+03  0.71617155561E+03  0.00000000000E+00 0.  1.
         -6    2    1    2    0  503 -0.20566677266E+02  0.27578851154E+02 -0.46462275049E+03  0.49662834085E+03  0.17199368423E+03 0.  0.
        -24    2    3    3    0    0 -0.27867401468E+02 -0.28021023464E+02 -0.40565177404E+03  0.41511568726E+03  0.78777548862E+02 0.  0.
          6    2    1    2  501    0  0.20566677266E+02 -0.27578851154E+02 -0.20361114942E+03  0.26748087045E+03  0.17001451304E+03 0.  0.
         24    2    5    5    0    0  0.11783496513E+02 -0.68948280074E+02 -0.62411703901E+02  0.12000901779E+03  0.74928148592E+02 0.  0.
          5    1    5    5  501    0  0.87831807532E+01  0.41369428921E+02 -0.14119944552E+03  0.14747185267E+03  0.47000000000E+01 0. -1.
        -13    1    6    6    0    0  0.16567667777E+01 -0.28454652900E+02  0.14889992128E+02  0.32157798641E+02  0.00000000000E+00 0.  1.
         14    1    6    6    0    0  0.10126729735E+02 -0.40493627174E+02 -0.77301696029E+02  0.87851219148E+02  0.00000000000E+00 0. -1.
         -5    1    3    3    0  503  0.73007242026E+01  0.55599874618E+02 -0.58970976445E+02  0.81512653584E+02  0.47000000000E+01 0.  1.
         11    1    4    4    0    0  0.22371297763E+02 -0.10746737882E+02 -0.23696288841E+03  0.23825905612E+03  0.00000000000E+00 0. -1.
        -12    1    4    4    0    0 -0.50238699231E+02 -0.17274285582E+02 -0.16868888563E+03  0.17685663114E+03  0.00000000000E+00 0.  1.
</event>
<event>
12    1  0.8633375E-002  0.1807521E+03  0.7818608E-02  0.1167231E+00
         21   -1    0    0  501  502  0.00000000000E+00  0.00000000000E+00  0.12962230527E+03  0.12962230527E+03  0.00000000000E+00 0. -1.
         21   -1    0    0  502  503 -0.00000000000E+00 -0.00000000000E+00 -0.28371416595E+03  0.28371416595E+03  0.00000000000E+00 0. -1.
         -6    2    1    2    0  503 -0.32204898742E+02  0.47013667538E+02 -0.69206713557E+01  0.18024702803E+03  0.17086150819E+03 0.  0.
        -24    2    3    3    0    0 -0.63231082676E+02  0.31708620719E+02 -0.53774655366E+02  0.12181540675E+03  0.83328706441E+02 0.  0.
          6    2    1    2  501    0  0.32204898742E+02 -0.47013667538E+02 -0.14717118933E+03  0.23308944319E+03  0.17153392994E+03 0.  0.
         24    2    5    5    0    0  0.25030965622E+02 -0.59068895119E+02 -0.19543363776E+02  0.10460697091E+03  0.80280705555E+02 0.  0.
          5    1    5    5  501    0  0.71739331201E+01  0.12055227581E+02 -0.12762782556E+03  0.12848247229E+03  0.47000000000E+01 0. -1.
        -13    1    6    6    0    0  0.81487239502E+01  0.19909549540E+02 -0.83324483226E+01  0.23069927610E+02  0.00000000000E+00 0.  1.
         14    1    6    6    0    0  0.16882241671E+02 -0.78978444659E+02 -0.11210915453E+02  0.81537043299E+02  0.00000000000E+00 0. -1.
         -5    1    3    3    0  503  0.31026183934E+02  0.15305046819E+02  0.46853984011E+02  0.58431621279E+02  0.47000000000E+01 0.  1.
         13    1    4    4    0    0 -0.16672635959E+01  0.45518702299E+02 -0.29197369138E+02  0.54103774281E+02  0.00000000000E+00 0. -1.
        -14    1    4    4    0    0 -0.61563819080E+02 -0.13810081580E+02 -0.24577286228E+02  0.67711632467E+02  0.00000000000E+00 0.  1.
</event>
<event>
12    1  0.8633375E-002  0.2248446E+03  0.7818608E-02  0.1130367E+00
         21   -1    0    0  503  502  0.00000000000E+00  0.00000000000E+00  0.10378599859E+03  0.10378599859E+03  0.00000000000E+00 0.  1.
         21   -1    0    0  501  503 -0.00000000000E+00 -0.00000000000E+00 -0.51973672345E+03  0.51973672345E+03  0.00000000000E+00 0. -1.
          6    2    1    2  501    0  0.14306616573E+03  0.12142258369E+02 -0.28684039788E+03  0.36446196493E+03  0.17303106025E+03 0.  0.
         24    2    3    3    0    0  0.29602661950E+02  0.42045994982E+02 -0.69809033462E+02  0.11769709042E+03  0.79593471159E+02 0.  0.
         -6    2    1    2    0  502 -0.14306616573E+03 -0.12142258369E+02 -0.12911032698E+03  0.25906075711E+03  0.17270679526E+03 0.  0.
        -24    2    5    5    0    0 -0.11173666390E+03  0.31046194018E+01 -0.16122681835E+03  0.21144181146E+03  0.78859571129E+02 0.  0.
          5    1    3    3  501    0  0.11346350377E+03 -0.29903736613E+02 -0.21703136442E+03  0.24676487451E+03  0.47000000000E+01 0. -1.
        -11    1    4    4    0    0  0.39061315732E+02  0.61104417160E+02 -0.46561459495E+02  0.86182977980E+02  0.00000000000E+00 0.  1.
         12    1    4    4    0    0 -0.94586537819E+01 -0.19058422179E+02 -0.23247573967E+02  0.31514112436E+02  0.00000000000E+00 0. -1.
         -5    1    5    5    0  502 -0.31329501827E+02 -0.15246877771E+02  0.32116491375E+02  0.47618945649E+02  0.47000000000E+01 0.  1.
         11    1    6    6    0    0 -0.20789555217E+02 -0.32292921560E+02 -0.35656093293E+02  0.52406062416E+02  0.00000000000E+00 0. -1.
        -12    1    6    6    0    0 -0.90947108682E+02  0.35397540962E+02 -0.12557072506E+03  0.15903574905E+03  0.00000000000E+00 0.  1.
</event>
<event>
12    1  0.8633375E-002  0.2072683E+03  0.7818608E-02  0.1144388E+00
         21   -1    0    0  501  502  0.00000000000E+00  0.00000000000E+00  0.35433578478E+03  0.35433578478E+03  0.00000000000E+00 0.  1.
         21   -1    0    0  502  503 -0.00000000000E+00 -0.00000000000E+00 -0.96245821192E+03  0.96245821192E+03  0.00000000000E+00 0.  1.
         -6    2    1    2    0  503 -0.28578468495E+01  0.10994391133E+03 -0.92055218181E+03  0.94359761056E+03  0.17568238471E+03 0.  0.
        -24    2    3    3    0    0 -0.47869872232E+02  0.88143371922E+02 -0.37933170688E+03  0.40005088908E+03  0.78021736270E+02 0.  0.
          6    2    1    2  501    0  0.28578468495E+01 -0.10994391133E+03  0.31242975467E+03  0.37319638614E+03  0.17195162139E+03 0.  0.
         24    2    5    5    0    0  0.30803161023E+01  0.13984494224E+02  0.14380950350E+03  0.16388040897E+03  0.77269403525E+02 0.  0.
          5    1    5    5  501    0 -0.22246925283E+00 -0.12392840555E+03  0.16862025117E+03  0.20931597717E+03  0.47000000000E+01 0. -1.
        -13    1    6    6    0    0 -0.98209648492E+01  0.97244625961E+01  0.14877458817E+03  0.14941517529E+03  0.00000000000E+00 0.  1.
         14    1    6    6    0    0  0.12901280952E+02  0.42600316276E+01 -0.49650846651E+01  0.14465233679E+02  0.00000000000E+00 0. -1.
         -5    1    3    3    0  503  0.45012025382E+02  0.21800539408E+02 -0.54122047493E+03  0.54354672148E+03  0.47000000000E+01 0.  1.
         11    1    4    4    0    0 -0.50488984860E+02  0.32454143562E+02 -0.27789849624E+03  0.28430614352E+03  0.00000000000E+00 0. -1.
        -12    1    4    4    0    0  0.26191126289E+01  0.55689228360E+02 -0.10143321063E+03  0.11574474556E+03  0.00000000000E+00 0.  1.
</event>
<event>
12    1  0.8633375E-002  0.2139661E+03  0.7818608E-02  0.1138588E+00
         21   -1    0    0  503  502  0.00000000000E+00  0.00000000000E+00  0.12408549741E+03  0.12408549741E+03  0.00000000000E+00 0.  1.
         21   -1    0    0  501  503 -0.00000000000E+00 -0.00000000000E+00 -0.65495110346E+03  0.65495110346E+03  0.00000000000E+00 0.  1.
          6    2    1    2  501    0  0.12316321908E+03 -0.31725023952E+02 -0.52355745007E+03  0.56559164894E+03  0.17206351778E+03 0.  0.
         24    2    3    3    0    0  0.44653826959E+02  0.46990143938E+02 -0.23773704268E+03  0.25887484538E+03  0.79342587677E+02 0.  0.
         -6    2    1    2    0  502 -0.12316321908E+03  0.31725023952E+02 -0.73081559818E+01  0.21344495192E+03  0.17125910977E+03 0.  0.
        -24    2    5    5    0    0 -0.56385113675E+02  0.80635549572E+02  0.17277011485E+02  0.12696908629E+03  0.78366324706E+02 0.  0.
          5    1    3    3  501    0  0.78509392121E+02 -0.78715167890E+02 -0.28582040739E+03  0.30671680356E+03  0.47000000000E+01 0. -1.
        -11    1    4    4    0    0  0.33966496929E+02 -0.14569134032E+02 -0.12032803253E+03  0.12587620106E+03  0.00000000000E+00 0.  1.
         12    1    4    4    0    0  0.10687330030E+02  0.61559277970E+02 -0.11740901015E+03  0.13299864432E+03  0.00000000000E+00 0. -1.
         -5    1    5    5    0  502 -0.66778105405E+02 -0.48910525620E+02 -0.24585167467E+02  0.86475865635E+02  0.47000000000E+01 0.  1.
         11    1    6    6    0    0 -0.74655666412E+01  0.72575731515E+02  0.24291351939E+02  0.76896302052E+02  0.00000000000E+00 0. -1.
        -12    1    6    6    0    0 -0.48919547034E+02  0.80598180568E+01 -0.70143404538E+01  0.50072784236E+02  0.00000000000E+00 0.  1.
</event>
<event>
12    1  0.8633375E-002  0.1795575E+03  0.7818608E-02  0.1168625E+00
         21   -1    0    0  503  502  0.00000000000E+00  0.00000000000E+00  0.90773025367E+02  0.90773025367E+02  0.00000000000E+00 0. -1.
         21   -1    0    0  501  503 -0.00000000000E+00 -0.00000000000E+00 -0.44538683832E+03  0.44538683832E+03  0.00000000000E+00 0. -1.
          6    2    1    2  501    0  0.21394017770E+02 -0.38035640769E+02 -0.55184004029E+02  0.18784614262E+03  0.17417372084E+03 0.  0.
         24    2    3    3    0    0  0.76032027092E+02 -0.45866710221E+02 -0.57454638234E+02  0.13240352822E+03  0.79655725342E+02 0.  0.
         -6    2    1    2    0  502 -0.21394017770E+02  0.38035640769E+02 -0.29942980892E+03  0.34831372107E+03  0.17251035867E+03 0.  0.
        -24    2    5    5    0    0  0.53092163544E+02  0.25973147927E+02 -0.20193289337E+03  0.22493854738E+03  0.79542909367E+02 0.  0.
          5    1    3    3  501    0 -0.54638009322E+02  0.78310694526E+01  0.22706342058E+01  0.55442614397E+02  0.47000000000E+01 0. -1.
        -13    1    4    4    0    0  0.20410684704E+02  0.56627085056E+01 -0.52276407061E+02  0.56404654533E+02  0.00000000000E+00 0.  1.
         14    1    4    4    0    0  0.55621342388E+02 -0.51529418727E+02 -0.51782311729E+01  0.75998873686E+02  0.00000000000E+00 0. -1.
         -5    1    5    5    0  502 -0.74486181314E+02  0.12062492842E+02 -0.97496915558E+02  0.12337517369E+03  0.47000000000E+01 0.  1.
         11    1    6    6    0    0 -0.92817865753E+01 -0.19555914879E+02 -0.50789940841E+02  0.55210537576E+02  0.00000000000E+00 0. -1.
        -12    1    6    6    0    0  0.62373950120E+02  0.45529062807E+02 -0.15114295253E+03  0.16972800980E+03  0.00000000000E+00 0.  1.
</event>
<event>
12    1  0.8633375E-002  0.1829417E+03  0.7818608E-02  0.1166461E+00
         21   -1    0    0  503  502  0.00000000000E+00  0.00000000000E+00  0.36289550798E+02  0.36289550798E+02  0.00000000000E+00 0. -1.
         21   -1    0    0  501  503 -0.00000000000E+00 -0.00000000000E+00 -0.92694961225E+03  0.92694961225E+03  0.00000000000E+00 0.  1.
          6    2    1    2  501    0  0.11670339147E+02 -0.59308745117E+02 -0.35866565986E+03  0.40262727178E+03  0.17266713745E+03 0.  0.
         24    2    3    3    0    0  0.21830268162E+02 -0.81947072588E+02 -0.35911726642E+03  0.37736837282E+03  0.79055641453E+02 0.  0.
         -6    2    1    2    0  502 -0.11670339147E+02  0.59308745117E+02 -0.53199440160E+03  0.56061189127E+03  0.16617438203E+03 0.  0.
        -24    2    5    5    0    0 -0.13224976091E+02 -0.42754999581E+02 -0.21528028198E+03  0.22782164436E+03  0.59617210986E+02 0.  0.
          5    1    3    3  501    0 -0.10159929016E+02  0.22638327471E+02  0.45160656522E+00  0.25258898962E+02  0.47000000000E+01 0. -1.
        -11    1    4    4    0    0  0.44552879809E+02 -0.25688262616E+02 -0.11773217424E+03  0.12847455307E+03  0.00000000000E+00 0.  1.
         12    1    4    4    0    0 -0.22722611646E+02 -0.56258809972E+02 -0.24138509218E+03  0.24889381975E+03  0.00000000000E+00 0. -1.
         -5    1    5    5    0  502  0.15546369446E+01  0.10206374470E+03 -0.31671411961E+03  0.33279024691E+03  0.47000000000E+01 0.  1.
         11    1    6    6    0    0 -0.15556811266E+02 -0.38188630031E+02 -0.62030000108E+02  0.74485614408E+02  0.00000000000E+00 0. -1.
        -12    1    6    6    0    0  0.23318351745E+01 -0.45663695505E+01 -0.15325028187E+03  0.15333602995E+03  0.00000000000E+00 0.  1.
</event>
<event>
12    1  0.8633375E-002  0.5354586E+03  0.7818608E-02  0.1004940E+00
         21   -1    0    0  503  502  0.00000000000E+00  0.00000000000E+00  0.68390332406E+03  0.68390332406E+03  0.00000000000E+00 0.  1.
         21   -1    0    0  501  503 -0.00000000000E+00 -0.00000000000E+00 -0.56188034190E+03  0.56188034190E+03  0.00000000000E+00 0. -1.
          6    2    1    2  501    0  0.18551075227E+03  0.47214239613E+03  0.37521431183E+03  0.65383614405E+03  0.17141540779E+03 0.  0.
         24    2    3    3    0    0  0.97415896787E+02  0.15276846309E+03  0.19041944225E+03  0.27445289918E+03  0.78973220883E+02 0.  0.
         -6    2    1    2    0  502 -0.18551075227E+03 -0.47214239613E+03 -0.25319132968E+03  0.59194752191E+03  0.17018618581E+03 0.  0.
        -24    2    5    5    0    0 -0.10993576967E+02 -0.18134975380E+03 -0.65751218197E+02  0.20442656674E+03  0.66771300380E+02 0.  0.
          5    1    3    3  501    0  0.88094855485E+02  0.31937393304E+03  0.18479486958E+03  0.37938324487E+03  0.47000000000E+01 0. -1.
        -13    1    4    4    0    0  0.11027282814E+02  0.90469686854E+02  0.87632722443E+02  0.12643519782E+03  0.00000000000E+00 0.  1.
         14    1    4    4    0    0  0.86388613974E+02  0.62298776239E+02  0.10278671981E+03  0.14801770135E+03  0.00000000000E+00 0. -1.
         -5    1    5    5    0  502 -0.17451717531E+03 -0.29079264233E+03 -0.18744011148E+03  0.38752095518E+03  0.47000000000E+01 0.  1.
         11    1    6    6    0    0 -0.92921398787E+01 -0.16911836323E+03 -0.78497256648E+02  0.18667936133E+03  0.00000000000E+00 0. -1.
        -12    1    6    6    0    0 -0.17014370885E+01 -0.12231390568E+02  0.12746038451E+02  0.17747205402E+02  0.00000000000E+00 0.  1.
</event>
<event>
12    1  0.8633375E-002  0.1820880E+03  0.7818608E-02  0.1165921E+00
         21   -1    0    0  501  502  0.00000000000E+00  0.00000000000E+00  0.21353103008E+03  0.21353103008E+03  0.00000000000E+00 0. -1.
         21   -1    0    0  502  503 -0.00000000000E+00 -0.00000000000E+00 -0.18065692056E+03  0.18065692056E+03  0.00000000000E+00 0. -1.
         -6    2    1    2    0  503 -0.38247396450E+02 -0.45552171425E+02 -0.58057457649E+02  0.19111957698E+03  0.17209927559E+03 0.  0.
        -24    2    3    3    0    0  0.10247928506E+02 -0.46144380604E+02 -0.92725281848E+02  0.13131911470E+03  0.80077513015E+02 0.  0.
          6    2    1    2  501    0  0.38247396450E+02  0.45552171425E+02  0.90931567172E+02  0.20306837366E+03  0.17155276394E+03 0.  0.
         24    2    5    5    0    0  0.53243203074E+02 -0.31748939683E+02  0.42045175114E+02  0.11026586657E+03  0.80919285307E+02 0.  0.
          5    1    5    5  501    0 -0.14995806624E+02  0.77301111108E+02  0.48886392057E+02  0.92802507096E+02  0.47000000000E+01 0. -1.
        -13    1    6    6    0    0  0.42309766019E+02 -0.50889423760E+01 -0.15953997201E+02  0.45503226939E+02  0.00000000000E+00 0.  1.
         14    1    6    6    0    0  0.10933437054E+02 -0.26659997307E+02  0.57999172316E+02  0.64762639628E+02  0.00000000000E+00 0. -1.
         -5    1    3    3    0  503 -0.48495324956E+02  0.59220917885E+00  0.34667824199E+02  0.59800462281E+02  0.47000000000E+01 0.  1.
         11    1    4    4    0    0 -0.54013244699E+01  0.12424317508E+02 -0.61792350593E+02  0.63260039230E+02  0.00000000000E+00 0. -1.
        -12    1    4    4    0    0  0.15649252976E+02 -0.58568698112E+02 -0.30932931255E+02  0.68059075466E+02  0.00000000000E+00 0.  1.
</event>
<event>
12    1  0.8633375E-002  0.2228403E+03  0.7818608E-02  0.1131810E+00
         21   -1    0    0  503  502  0.00000000000E+00  0.00000000000E+00  0.10845344334E+03  0.10845344334E+03  0.00000000000E+00 0. -1.
         21   -1    0    0  501  503 -0.00000000000E+00 -0.00000000000E+00 -0.45844301563E+03  0.45844301563E+03  0.00000000000E+00 0. -1.
          6    2    1    2  501    0  0.11712935654E+03 -0.84993554935E+02 -0.16259675543E+03  0.27573692445E+03  0.16926297908E+03 0.  0.
         24    2    3    3    0    0  0.88665722424E+02 -0.11586503906E+03 -0.16360777299E+03  0.23347181880E+03  0.80344689823E+02 0.  0.
         -6    2    1    2    0  502 -0.11712935654E+03  0.84993554935E+02 -0.18739281687E+03  0.29115953452E+03  0.16945387628E+03 0.  0.
        -24    2    5    5    0    0 -0.34688179041E+02  0.81230112693E+02 -0.16840938492E+03  0.20634696509E+03  0.80098365152E+02 0.  0.
          5    1    3    3  501    0  0.28463634114E+02  0.30871484124E+02  0.10110175636E+01  0.42265105649E+02  0.47000000000E+01 0. -1.
        -13    1    4    4    0    0 -0.25158336675E+01 -0.18852440832E+02  0.39848788888E+01  0.19432529535E+02  0.00000000000E+00 0.  1.
         14    1    4    4    0    0  0.91181556091E+02 -0.97012598228E+02 -0.16759265188E+03  0.21403928927E+03  0.00000000000E+00 0. -1.
         -5    1    5    5    0  502 -0.82441177496E+02  0.37634422421E+01 -0.18983431944E+02  0.84812569428E+02  0.47000000000E+01 0.  1.
         13    1    6    6    0    0 -0.56307057704E+02  0.79254061997E+02 -0.14312554511E+03  0.17302200077E+03  0.00000000000E+00 0. -1.
        -14    1    6    6    0    0  0.21618878662E+02  0.19760506961E+01 -0.25283839817E+02  0.33324964319E+02  0.00000000000E+00 0.  1.
</event>
<event>
12    1  0.8633375E-002  0.2788041E+03  0.7818608E-02  0.1096657E+00
         21   -1    0    0  501  502  0.00000000000E+00  0.00000000000E+00  0.78008269095E+03  0.78008269095E+03  0.00000000000E+00 0. -1.
         21   -1    0    0  502  503 -0.00000000000E+00 -0.00000000000E+00 -0.10367582115E+03  0.10367582115E+03  0.00000000000E+00 0. -1.
         -6    2    1    2    0  503 -0.21090958888E+03  0.43068623501E+02  0.24140379692E+03  0.36707734760E+03  0.17358636162E+03 0.  0.
        -24    2    3    3    0    0 -0.23186498193E+03  0.31955783354E+02  0.19827718478E+03  0.31763426528E+03  0.82432654564E+02 0.  0.
          6    2    1    2  501    0  0.21090958888E+03 -0.43068623501E+02  0.43500307288E+03  0.51668116450E+03  0.17718349620E+03 0.  0.
         24    2    5    5    0    0  0.16629108224E+03 -0.25493289375E+00  0.19713169870E+03  0.27085865965E+03  0.82769063374E+02 0.  0.
          5    1    5    5  501    0  0.44618506642E+02 -0.42813690608E+02  0.23787137418E+03  0.24582250486E+03  0.47000000000E+01 0. -1.
        -13    1    6    6    0    0  0.53499014841E+02  0.16381524745E+02  0.18474872315E+02  0.58922150750E+02  0.00000000000E+00 0.  1.
         14    1    6    6    0    0  0.11279206739E+03 -0.16636457639E+02  0.17865682638E+03  0.21193650890E+03  0.00000000000E+00 0. -1.
         -5    1    3    3    0  503  0.20955393057E+02  0.11112840148E+02  0.43126612143E+02  0.49443082319E+02  0.47000000000E+01 0.  1.
         13    1    4    4    0    0 -0.24190905578E+02  0.17466622183E+02 -0.43524935441E+00  0.29840781578E+02  0.00000000000E+00 0. -1.
        -14    1    4    4    0    0 -0.20767407636E+03  0.14489161171E+02  0.19871243413E+03  0.28779348370E+03  0.00000000000E+00 0.  1.
</event>
<event>
12    1  0.8633375E-002  0.1867702E+03  0.7818608E-02  0.1162474E+00
         21   -1    0    0  501  502  0.00000000000E+00  0.00000000000E+00  0.12279711382E+03  0.12279711382E+03  0.00000000000E+00 0. -1.
         21   -1    0    0  502  503 -0.00000000000E+00 -0.00000000000E+00 -0.35765172060E+03  0.35765172060E+03  0.00000000000E+00 0.  1.
         -6    2    1    2    0  503 -0.68435488353E+02 -0.26772262077E+02 -0.23025140513E+03  0.29362189436E+03  0.16672713396E+03 0.  0.
        -24    2    3    3    0    0 -0.98767105986E+02  0.13647546541E+02 -0.13400995365E+03  0.18481805738E+03  0.79106573098E+02 0.  0.
          6    2    1    2  501    0  0.68435488353E+02  0.26772262077E+02 -0.46032016560E+01  0.18682694006E+03  0.17170598704E+03 0.  0.
         24    2    5    5    0    0  0.74398459584E+02  0.76807097362E+02  0.13917783589E+02  0.13293669361E+03  0.77743159283E+02 0.  0.
          5    1    5    5  501    0 -0.59629712314E+01 -0.50034835285E+02 -0.18520985245E+02  0.53890246450E+02  0.47000000000E+01 0. -1.
        -11    1    6    6    0    0  0.69144562640E+02  0.90204038851E+02  0.10939095186E+01  0.11366149658E+03  0.00000000000E+00 0.  1.
         12    1    6    6    0    0  0.52538969442E+01 -0.13396941489E+02  0.12823874071E+02  0.19275197030E+02  0.00000000000E+00 0. -1.
         -5    1    3    3    0  503  0.30331617634E+02 -0.40419808618E+02 -0.96241451481E+02  0.10880383697E+03  0.47000000000E+01 0.  1.
         11    1    4    4    0    0  0.59263805026E+01  0.30307381088E+01  0.64787618513E+01  0.92887951033E+01  0.00000000000E+00 0. -1.
        -12    1    4    4    0    0 -0.10469348649E+03  0.10616808432E+02 -0.14048871550E+03  0.17552926228E+03  0.00000000000E+00 0.  1.
</event>
<event>
12    1  0.8633375E-002  0.1902550E+03  0.7818608E-02  0.1158826E+00
         21   -1    0    0  501  502  0.00000000000E+00  0.00000000000E+00  0.13658939986E+03  0.13658939986E+03  0.00000000000E+00 0. -1.
         21   -1    0    0  502  503 -0.00000000000E+00 -0.00000000000E+00 -0.29101745541E+03  0.29101745541E+03  0.00000000000E+00 0.  1.
         -6    2    1    2    0  503 -0.55395217739E+02 -0.62767829954E+02 -0.14497904646E+03  0.23711735725E+03  0.16792047693E+03 0.  0.
        -24    2    3    3    0    0 -0.85580977621E+02 -0.88897898236E+02 -0.11803169442E+03  0.18872096947E+03  0.80356601414E+02 0.  0.
          6    2    1    2  501    0  0.55395217739E+02  0.62767829954E+02 -0.94490090872E+01  0.19048949802E+03  0.17084652311E+03 0.  0.
         24    2    5    5    0    0  0.63213980297E+02 -0.21192539564E+02  0.71511332172E+01  0.10441899539E+03  0.80044093191E+02 0.  0.
          5    1    5    5  501    0 -0.78187625573E+01  0.83960369518E+02 -0.16600142304E+02  0.86070502625E+02  0.47000000000E+01 0. -1.
        -13    1    6    6    0    0  0.55275041499E+02  0.77294051326E+00 -0.28193233638E+02  0.62054702261E+02  0.00000000000E+00 0.  1.
         14    1    6    6    0    0  0.79389387977E+01 -0.21965480077E+02  0.35344366855E+02  0.42364293133E+02  0.00000000000E+00 0. -1.
         -5    1    3    3    0  503  0.30185759882E+02  0.26130068282E+02 -0.26947352040E+02  0.48396387779E+02  0.47000000000E+01 0.  1.
         13    1    4    4    0    0  0.24443329453E+01  0.50711270039E+01  0.71772732758E+01  0.91216415361E+01  0.00000000000E+00 0. -1.
        -14    1    4    4    0    0 -0.88025310566E+02 -0.93969025240E+02 -0.12520896769E+03  0.17959932794E+03  0.00000000000E+00 0.  1.
</event>
<event>
12    1  0.8633375E-002  0.2079039E+03  0.7818608E-02  0.1143372E+00
         21   -1    0    0  503  502  0.00000000000E+00  0.00000000000E+00  0.10255827472E+03  0.10255827472E+03  0.00000000000E+00 0. -1.
         21   -1    0    0  501  503 -0.00000000000E+00 -0.00000000000E+00 -0.78961607044E+03  0.78961607044E+03  0.00000000000E+00 0.  1.
          6    2    1    2  501    0  0.10273624369E+03  0.53843578461E+02 -0.64839482000E+03  0.68070599984E+03  0.17172928963E+03 0.  0.
         24    2    3    3    0    0  0.12366705393E+03  0.59211680455E+02 -0.63506525965E+03  0.65488580396E+03  0.82267666092E+02 0.  0.
         -6    2    1    2    0  502 -0.10273624369E+03 -0.53843578461E+02 -0.38662975723E+02  0.21146834532E+03  0.17254033926E+03 0.  0.
        -24    2    5    5    0    0 -0.70831164984E+02 -0.95659543911E+02 -0.58129795076E+02  0.15518729994E+03  0.80846909112E+02 0.  0.
          5    1    3    3  501    0 -0.20930810240E+02 -0.53681019948E+01 -0.13329560342E+02  0.25820195880E+02  0.47000000000E+01 0. -1.
        -11    1    4    4    0    0  0.78937708426E+02  0.68308165725E+02 -0.53230291459E+03  0.54244221830E+03  0.00000000000E+00 0.  1.
         12    1    4    4    0    0  0.44729345502E+02 -0.90964852696E+01 -0.10276234507E+03  0.11244358567E+03  0.00000000000E+00 0. -1.
         -5    1    5    5    0  502 -0.31905078703E+02  0.41815965450E+02  0.19466819353E+02  0.56281045382E+02  0.47000000000E+01 0.  1.
         11    1    6    6    0    0 -0.29469423132E+02 -0.83215175935E+01 -0.49446932374E+02  0.58160929119E+02  0.00000000000E+00 0. -1.
        -12    1    6    6    0    0 -0.41361741852E+02 -0.87338026317E+02 -0.86828627020E+01  0.97026370821E+02  0.00000000000E+00 0.  1.
</event>
<event>
12    1  0.8633375E-002  0.2462197E+03  0.7818608E-02  0.1115929E+00
         21   -1    0    0  503  502  0.00000000000E+00  0.00000000000E+00  0.23260726249E+03  0.23260726249E+03  0.00000000000E+00 0.  1.
         21   -1    0    0  501  503 -0.00000000000E+00 -0.00000000000E+00 -0.34088158585E+03  0.34088158585E+03  0.00000000000E+00 0. -1.
          6    2    1    2  501    0  0.10279047861E+03  0.14127322955E+03 -0.19435332431E+03  0.31265607761E+03  0.17162925250E+03 0.  0.
         24    2    3    3    0    0  0.49015316076E+02  0.76969681735E+02 -0.25180390019E+02  0.12379558395E+03  0.79777574844E+02 0.  0.
         -6    2    1    2    0  502 -0.10279047861E+03 -0.14127322955E+03  0.86079000951E+02  0.26083277073E+03  0.17349389615E+03 0.  0.
        -24    2    5    5    0    0 -0.12642445299E+03 -0.15501648642E+03  0.61853140209E+02  0.22400310628E+03  0.79613612490E+02 0.  0.
          5    1    3    3  501    0  0.53775162538E+02  0.64303547816E+02 -0.16917293430E+03  0.18886049366E+03  0.47000000000E+01 0. -1.
        -11    1    4    4    0    0  0.63054807752E+02  0.30859550448E+02 -0.27844810116E+02  0.75521878187E+02  0.00000000000E+00 0.  1.
         12    1    4    4    0    0 -0.14039491675E+02  0.46110131287E+02  0.26644200974E+01  0.48273705765E+02  0.00000000000E+00 0. -1.
         -5    1    5    5    0  502  0.23633974380E+02  0.13743256871E+02  0.24225860742E+02  0.36829664445E+02  0.47000000000E+01 0.  1.
         11    1    6    6    0    0 -0.31163179560E+02 -0.90309825466E+02  0.51099479754E+02  0.10834281318E+03  0.00000000000E+00 0. -1.
        -12    1    6    6    0    0 -0.95261273435E+02 -0.64706660956E+02  0.10753660455E+02  0.11566029311E+03  0.00000000000E+00 0.  1.
</event>
<event>
12    1  0.8633375E-002  0.2065922E+03  0.7818608E-02  0.1145413E+00
         21   -1    0    0  503  502  0.00000000000E+00  0.00000000000E+00  0.13134038720E+03  0.13134038720E+03  0.00000000000E+00 0.  1.
         21   -1    0    0  501  503 -0.00000000000E+00 -0.00000000000E+00 -0.50671734976E+03  0.50671734976E+03  0.00000000000E+00 0. -1.
          6    2    1    2  501    0 -0.11028089761E+02  0.10190478031E+03 -0.38474942874E+03  0.43670637965E+03  0.17937150301E+03 0.  0.
         24    2    3    3    0    0 -0.49586392449E+02  0.19109431926E+02 -0.11337771685E+03  0.15033859439E+03  0.83205802558E+02 0.  0.
         -6    2    1    2    0  502  0.11028089761E+02 -0.10190478031E+03  0.93724661823E+01  0.20135135731E+03  0.17305583769E+03 0.  0.
        -24    2    5    5    0    0  0.70767623658E+01  0.12964849816E+02 -0.55006797290E+01  0.85360213765E+02  0.83892435417E+02 0.  0.
          5    1    3    3  501    0  0.38558302689E+02  0.82795348380E+02 -0.27137171189E+03  0.28636778526E+03  0.47000000000E+01 0. -1.
        -13    1    4    4    0    0 -0.38945289076E+00  0.50045560898E+01  0.13029961763E+02  0.13963422172E+02  0.00000000000E+00 0.  1.
         14    1    4    4    0    0 -0.49196939559E+02  0.14104875836E+02 -0.12640767861E+03  0.13637517222E+03  0.00000000000E+00 0. -1.
         -5    1    5    5    0  502  0.39513273949E+01 -0.11486963012E+03  0.14873145911E+02  0.11599114355E+03  0.47000000000E+01 0.  1.
         13    1    6    6    0    0  0.41986148786E+02  0.66627950026E+00  0.13032036551E+02  0.43967199080E+02  0.00000000000E+00 0. -1.
        -14    1    6    6    0    0 -0.34909386420E+02  0.12298570316E+02 -0.18532716280E+02  0.41393014686E+02  0.00000000000E+00 0.  1.
</event>
<event>
12    1  0.8633375E-002  0.2237956E+03  0.7818608E-02  0.1131199E+00
         21   -1    0    0  503  502  0.00000000000E+00  0.00000000000E+00  0.15086564358E+03  0.15086564358E+03  0.00000000000E+00 0.  1.
         21   -1    0    0  501  503 -0.00000000000E+00 -0.00000000000E+00 -0.38601014473E+03  0.38601014473E+03  0.00000000000E+00 0.  1.
          6    2    1    2  501    0 -0.92278016135E+02  0.10777321549E+03 -0.16143571731E+02  0.22375299466E+03  0.17226284996E+03 0.  0.
         24    2    3    3    0    0 -0.62780926660E+01  0.61438290121E+02 -0.58796299960E+02  0.11705595923E+03  0.80193607985E+02 0.  0.
         -6    2    1    2    0  502  0.92278016135E+02 -0.10777321549E+03 -0.21900092943E+03  0.31312279364E+03  0.17307275514E+03 0.  0.
        -24    2    5    5    0    0  0.18138017834E+02 -0.52655985739E+02 -0.23577591705E+02  0.96912203504E+02  0.75726031404E+02 0.  0.
          5    1    3    3  501    0 -0.85999923469E+02  0.46334925365E+02  0.42652728229E+02  0.10669703543E+03  0.47000000000E+01 0. -1.
        -11    1    4    4    0    0 -0.64151058452E+00  0.23286591073E+02  0.19107209079E+02  0.30129093887E+02  0.00000000000E+00 0.  1.
         12    1    4    4    0    0 -0.56365820815E+01  0.38151699048E+02 -0.77903509039E+02  0.86926865343E+02  0.00000000000E+00 0. -1.
         -5    1    5    5    0  502  0.74139998300E+02 -0.55117229746E+02 -0.19542333772E+03  0.21621059014E+03  0.47000000000E+01 0.  1.
         13    1    6    6    0    0 -0.11839200560E+02  0.69039960610E+01  0.14643073070E+02  0.20056206532E+02  0.00000000000E+00 0. -1.
        -14    1    6    6    0    0  0.29977218394E+02 -0.59559981800E+02 -0.38220664775E+02  0.76855996972E+02  0.00000000000E+00 0.  1.
</event>
<event>
12    1  0.8633375E-002  0.3129485E+03  0.7818608E-02  0.1078986E+00
         21   -1    0    0  503  502  0.00000000000E+00  0.00000000000E+00  0.23168159504E+03  0.23168159504E+03  0.00000000000E+00 0.  1.
         21   -1    0    0  501  503 -0.00000000000E+00 -0.00000000000E+00 -0.92266982337E+03  0.92266982337E+03  0.00000000000E+00 0. -1.
          6    2    1    2  501    0  0.17076643381E+03 -0.19734197185E+03 -0.77047671558E+03  0.83146569612E+03  0.17203431580E+03 0.  0.
         24    2    3    3    0    0  0.12509768674E+03 -0.11839368570E+03 -0.31803757640E+03  0.36990125750E+03  0.77540597448E+02 0.  0.
         -6    2    1    2    0  502 -0.17076643381E+03  0.19734197185E+03  0.79488487244E+02  0.32288572229E+03  0.17271867671E+03 0.  0.
        -24    2    5    5    0    0 -0.19205941813E+03  0.13634187874E+03  0.62804923491E+02  0.25599152343E+03  0.78174635690E+02 0.  0.
          5    1    3    3  501    0  0.45668747066E+02 -0.78948286149E+02 -0.45243913918E+03  0.46156443863E+03  0.47000000000E+01 0. -1.
        -13    1    4    4    0    0  0.27235150589E+02 -0.71937772436E+02 -0.16871252499E+03  0.18542036732E+03  0.00000000000E+00 0.  1.
         14    1    4    4    0    0  0.97862536151E+02 -0.46455913268E+02 -0.14932505141E+03  0.18448089017E+03  0.00000000000E+00 0. -1.
         -5    1    5    5    0  502  0.21292984319E+02  0.61000093117E+02  0.16683563753E+02  0.66894198859E+02  0.47000000000E+01 0.  1.
         11    1    6    6    0    0 -0.10204121236E+03  0.41025356675E+02 -0.14462971313E+01  0.10998900257E+03  0.00000000000E+00 0. -1.
        -12    1    6    6    0    0 -0.90018205766E+02  0.95316522061E+02  0.64251220622E+02  0.14600252086E+03  0.00000000000E+00 0.  1.
</event>
<event>
12    1  0.8633375E-002  0.1802567E+03  0.7818608E-02  0.1168316E+00
         21   -1    0    0  503  502  0.00000000000E+00  0.00000000000E+00  0.47360656318E+03  0.47360656318E+03  0.00000000000E+00 0. -1.
         21   -1    0    0  501  503 -0.00000000000E+00 -0.00000000000E+00 -0.14441545965E+03  0.14441545965E+03  0.00000000000E+00 0. -1.
          6    2    1    2  501    0  0.46828138406E+02 -0.34283363150E+01 -0.61699639154E+02  0.18757105633E+03  0.17079645097E+03 0.  0.
         24    2    3    3    0    0 -0.38269548052E+02 -0.12895024478E+02 -0.26267521356E+02  0.94787655889E+02  0.81632573562E+02 0.  0.
         -6    2    1    2    0  502 -0.46828138406E+02  0.34283363150E+01  0.39089074268E+03  0.43045096650E+03  0.17403400187E+03 0.  0.
        -24    2    5    5    0    0  0.18333187233E+02  0.46617042079E+02  0.27576305565E+03  0.29121111234E+03  0.79053113294E+02 0.  0.
          5    1    3    3  501    0  0.85097686458E+02  0.94666881627E+01 -0.35432117798E+02  0.92783400438E+02  0.47000000000E+01 0. -1.
        -13    1    4    4    0    0  0.57283911076E+01  0.29361428946E+02 -0.60451550719E+01  0.30519696497E+02  0.00000000000E+00 0.  1.
         14    1    4    4    0    0 -0.43997939159E+02 -0.42256453424E+02 -0.20222366284E+02  0.64267959391E+02  0.00000000000E+00 0. -1.
         -5    1    5    5    0  502 -0.65161325639E+02 -0.43188705764E+02  0.11512768703E+03  0.13923985416E+03  0.47000000000E+01 0.  1.
         13    1    6    6    0    0 -0.20150465629E+02 -0.11218775305E+02  0.89218963927E+02  0.92151645176E+02  0.00000000000E+00 0. -1.
        -14    1    6    6    0    0  0.38483652862E+02  0.57835817385E+02  0.18654409173E+03  0.19905946717E+03  0.00000000000E+00 0.  1.
</event>
<event>
12    1  0.8633375E-002  0.2186190E+03  0.7818608E-02  0.1135221E+00
         21   -1    0    0  501  502  0.00000000000E+00  0.00000000000E+00  0.93871666486E+03  0.93871666486E+03  0.00000000000E+00 0.  1.
         21   -1    0    0  502  503 -0.00000000000E+00 -0.00000000000E+00 -0.50652533631E+02  0.50652533631E+02  0.00000000000E+00 0.  1.
         -6    2    1    2    0  503  0.13422894083E+03 -0.30132348384E+00  0.41900421471E+03  0.47186417335E+03  0.17051031287E+03 0.  0.
        -24    2    3    3    0    0  0.15060751824E+02  0.44655574947E+02  0.17567552763E+03  0.19717686031E+03  0.76130654897E+02 0.  0.
          6    2    1    2  501    0 -0.13422894083E+03  0.30132348384E+00  0.46905991652E+03  0.51750502514E+03  0.17255939965E+03 0.  0.
         24    2    5    5    0    0 -0.13252133167E+03 -0.53329882483E+02  0.32650329589E+03  0.36511177638E+03  0.79348770074E+02 0.  0.
          5    1    5    5  501    0 -0.17076091624E+01  0.53631205967E+02  0.14255662063E+03  0.15239324876E+03  0.47000000000E+01 0. -1.
        -11    1    6    6    0    0 -0.38118715423E+02  0.20749877904E+02  0.85028707644E+02  0.95464522322E+02  0.00000000000E+00 0.  1.
         12    1    6    6    0    0 -0.94402616246E+02 -0.74079760387E+02  0.24147458825E+03  0.26964725406E+03  0.00000000000E+00 0. -1.
         -5    1    3    3    0  503  0.11916818901E+03 -0.44956898431E+02  0.24332868708E+03  0.27468731304E+03  0.47000000000E+01 0.  1.
         11    1    4    4    0    0  0.21539808049E+02  0.40661822486E+02  0.18172142316E+03  0.18745672240E+03  0.00000000000E+00 0. -1.
        -12    1    4    4    0    0 -0.64790562254E+01  0.39937524611E+01 -0.60458955275E+01  0.97201379117E+01  0.00000000000E+00 0.  1.
</event>
<event>
12    1  0.8633375E-002  0.2464062E+03  0.7818608E-02  0.1115615E+00
         21   -1    0    0  503  502  0.00000000000E+00  0.00000000000E+00  0.18064574051E+03  0.18064574051E+03  0.00000000000E+00 0.  1.
         21   -1    0    0  501  503 -0.00000000000E+00 -0.00000000000E+00 -0.51197815384E+03  0.51197815384E+03  0.00000000000E+00 0.  1.
          6    2    1    2  501    0 -0.33069569046E+02  0.17307995420E+03 -0.36875049708E+03  0.44350077543E+03  0.17223745751E+03 0.  0.
         24    2    3    3    0    0 -0.67372758657E+02  0.17240219221E+03 -0.26421251652E+03  0.33337608448E+03  0.84081837097E+02 0.  0.
         -6    2    1    2    0  502  0.33069569046E+02 -0.17307995420E+03  0.37418083742E+02  0.24912311892E+03  0.17208122630E+03 0.  0.
        -24    2    5    5    0    0 -0.39392946604E+02 -0.12269023637E+03  0.66649184932E+02  0.15602914965E+03  0.57430682957E+02 0.  0.
          5    1    3    3  501    0  0.34303189612E+02  0.67776199808E+00 -0.10453798055E+03  0.11012469095E+03  0.47000000000E+01 0. -1.
        -13    1    4    4    0    0 -0.65129569605E+02  0.65778361361E+02 -0.15631471602E+03  0.18166712445E+03  0.00000000000E+00 0.  1.
         14    1    4    4    0    0 -0.22431890529E+01  0.10662383085E+03 -0.10789780050E+03  0.15170896003E+03  0.00000000000E+00 0. -1.
         -5    1    5    5    0  502  0.72462515650E+02 -0.50389717835E+02 -0.29231101191E+02  0.93093969271E+02  0.47000000000E+01 0.  1.
         13    1    6    6    0    0 -0.29436929103E+02 -0.12603664743E+03  0.55849962875E+02  0.14096449072E+03  0.00000000000E+00 0. -1.
        -14    1    6    6    0    0 -0.99560175007E+01  0.33464110644E+01  0.10799222057E+02  0.15064658925E+02  0.00000000000E+00 0.  1.
</event>
<event>
12    1  0.8633375E-002  0.1894381E+03  0.7818608E-02  0.1159192E+00
         21   -1    0    0  503  502  0.00000000000E+00  0.00000000000E+00  0.12082628754E+03  0.12082628754E+03  0.00000000000E+00 0.  1.
         21   -1    0    0  501  503 -0.00000000000E+00 -0.00000000000E+00 -0.30639824965E+03  0.30639824965E+03  0.00000000000E+00 0.  1.
          6    2    1    2  501    0  0.65885034747E+02  0.42278648404E+02 -0.13335309292E+03  0.23166748545E+03  0.17250638976E+03 0.  0.
         24    2    3    3    0    0  0.48841350466E+02  0.45644663983E+02 -0.16482756879E+03  0.19541076378E+03  0.80921729475E+02 0.  0.
         -6    2    1    2    0  502 -0.65885034747E+02 -0.42278648404E+02 -0.52218869191E+02  0.19555705173E+03  0.17142761816E+03 0.  0.
        -24    2    5    5    0    0 -0.95410922945E+02 -0.62037728038E+02 -0.68605411502E+02  0.15615136597E+03  0.82003796795E+02 0.  0.
          5    1    3    3  501    0  0.17043684281E+02 -0.33660155795E+01  0.31474475874E+02  0.36256721671E+02  0.47000000000E+01 0. -1.
        -13    1    4    4    0    0 -0.19257618263E+02  0.28552447177E+02 -0.61488464097E+02  0.70476445129E+02  0.00000000000E+00 0.  1.
         14    1    4    4    0    0  0.68098968730E+02  0.17092216806E+02 -0.10333910470E+03  0.12493431865E+03  0.00000000000E+00 0. -1.
         -5    1    5    5    0  502  0.29525888197E+02  0.19759079635E+02  0.16386542311E+02  0.39405685767E+02  0.47000000000E+01 0.  1.
         11    1    6    6    0    0 -0.11012891700E+02  0.19814666844E+02 -0.12349073200E+02  0.25814809986E+02  0.00000000000E+00 0. -1.
        -12    1    6    6    0    0 -0.84398031244E+02 -0.81852394882E+02 -0.56256338302E+02  0.13033655598E+03  0.00000000000E+00 0.  1.
</event>
<event>
12    1  0.8633375E-002  0.2700211E+03  0.7818608E-02  0.1101527E+00
         21   -1    0    0  503  502  0.00000000000E+00  0.00000000000E+00  0.26087579924E+03  0.26087579924E+03  0.00000000000E+00 0. -1.
         21   -1    0    0  501  503 -0.00000000000E+00 -0.00000000000E+00 -0.30898200206E+03  0.30898200206E+03  0.00000000000E+00 0. -1.
          6    2    1    2  501    0 -0.31163541172E+02  0.20565547452E+03 -0.11475971566E+03  0.29173179946E+03  0.16932899923E+03 0.  0.
         24    2    3    3    0    0 -0.48367544684E+02  0.21402409320E+03 -0.12959860755E+03  0.26706817791E+03  0.79899191011E+02 0.  0.
         -6    2    1    2    0  502  0.31163541172E+02 -0.20565547452E+03  0.66653512842E+02  0.27812600185E+03  0.17218025913E+03 0.  0.
        -24    2    5    5    0    0  0.13077261138E+02 -0.19708764056E+03  0.59040363058E+01  0.21399246769E+03  0.82117999028E+02 0.  0.
          5    1    3    3  501    0  0.17204003512E+02 -0.83686186875E+01  0.14838891883E+02  0.24663621549E+02  0.47000000000E+01 0. -1.
        -13    1    4    4    0    0 -0.21225474650E+02  0.11331607742E+03 -0.22289490887E+02  0.11742178495E+03  0.00000000000E+00 0.  1.
         14    1    4    4    0    0 -0.27142070034E+02  0.10070801578E+03 -0.10730911666E+03  0.14964639296E+03  0.00000000000E+00 0. -1.
         -5    1    5    5    0  502  0.18086280034E+02 -0.85678339579E+01  0.60749476536E+02  0.64133534158E+02  0.47000000000E+01 0.  1.
         11    1    6    6    0    0 -0.32477286636E+02 -0.73024181002E+02 -0.11297310557E+02  0.80715143462E+02  0.00000000000E+00 0. -1.
        -12    1    6    6    0    0  0.45554547774E+02 -0.12406345956E+03  0.17201346863E+02  0.13327732423E+03  0.00000000000E+00 0.  1.
</event>
<event>
12    1  0.8633375E-002  0.1994681E+03  0.7818608E-02  0.1150645E+00
         21   -1    0    0  501  502  0.00000000000E+00  0.00000000000E+00  0.49401538305E+03  0.49401538305E+03  0.00000000000E+00 0.  1.
         21   -1    0    0  502  503 -0.00000000000E+00 -0.00000000000E+00 -0.10588338827E+03  0.10588338827E+03  0.00000000000E+00 0.  1.
         -6    2    1    2    0  503  0.73745490446E+02 -0.59387701354E+02  0.44052412392E+02  0.20218244641E+03  0.17312374235E+03 0.  0.
        -24    2    3    3    0    0  0.43373426511E+02 -0.95405529584E+02 -0.10310713640E+02  0.13009093727E+03  0.76379787520E+02 0.  0.
          6    2    1    2  501    0 -0.73745490446E+02  0.59387701354E+02  0.34407958238E+03  0.39771632491E+03  0.17556258045E+03 0.  0.
         24    2    5    5    0    0  0.13308609524E+02 -0.10288745704E+02  0.13812266454E+03  0.16346525105E+03  0.85790678200E+02 0.  0.
          5    1    5    5  501    0 -0.87054099970E+02  0.69676447058E+02  0.20595691784E+03  0.23425107385E+03  0.47000000000E+01 0. -1.
        -13    1    6    6    0    0 -0.24383960810E+02 -0.11526142180E+02  0.82151024533E+01  0.28194279680E+02  0.00000000000E+00 0.  1.
         14    1    6    6    0    0  0.37692570334E+02  0.12373964753E+01  0.12990756209E+03  0.13527097137E+03  0.00000000000E+00 0. -1.
         -5    1    3    3    0  503  0.30372063935E+02  0.36017828231E+02  0.54363126033E+02  0.72091509141E+02  0.47000000000E+01 0.  1.
         11    1    4    4    0    0  0.49150740358E+02 -0.87445619490E+02 -0.32805268885E+02  0.10554012181E+03  0.00000000000E+00 0. -1.
        -12    1    4    4    0    0 -0.57773138468E+01 -0.79599100940E+01  0.22494555244E+02  0.24550815458E+02  0.00000000000E+00 0.  1.
</event>
<event>
12    1  0.8633375E-002  0.2312115E+03  0.7818608E-02  0.1126268E+00
         21   -1    0    0  503  502  0.00000000000E+00  0.00000000000E+00  0.12836456314E+04  0.12836456314E+04  0.00000000000E+00 0. -1.
         21   -1    0    0  501  503 -0.00000000000E+00 -0.00000000000E+00 -0.42780315753E+02  0.42780315753E+02  0.00000000000E+00 0.  1.
          6    2    1    2  501    0 -0.14635309683E+03  0.34844251047E+02  0.48773755168E+03  0.53860604487E+03  0.17197442098E+03 0.  0.
         24    2    3    3    0    0 -0.45415822478E+02 -0.25623588083E+02  0.31837778339E+03  0.33233070937E+03  0.79750374508E+02 0.  0.
         -6    2    1    2    0  502  0.14635309683E+03 -0.34844251047E+02  0.75312776402E+03  0.78781990233E+03  0.17557169132E+03 0.  0.
        -24    2    5    5    0    0  0.80305563623E+02 -0.59337572832E+02  0.26113656731E+03  0.29078909132E+03  0.79975357123E+02 0.  0.
          5    1    3    3  501    0 -0.10093727435E+03  0.60467839130E+02  0.16935976829E+03  0.20627533550E+03  0.47000000000E+01 0. -1.
        -13    1    4    4    0    0 -0.56820371109E+02 -0.45092752004E+02  0.23376250712E+03  0.24475869870E+03  0.00000000000E+00 0.  1.
         14    1    4    4    0    0  0.11404548631E+02  0.19469163920E+02  0.84615276269E+02  0.87572010662E+02  0.00000000000E+00 0. -1.
         -5    1    5    5    0  502  0.66047533205E+02  0.24493321786E+02  0.49199119671E+03  0.49703081101E+03  0.47000000000E+01 0.  1.
         13    1    6    6    0    0  0.48036371290E+01 -0.22977023230E+02  0.14879209685E+03  0.15063235579E+03  0.00000000000E+00 0. -1.
        -14    1    6    6    0    0  0.75501926494E+02 -0.36360549602E+02  0.11234447046E+03  0.14015673553E+03  0.00000000000E+00 0.  1.
</event>
<event>
12    1  0.8633375E-002  0.1995293E+03  0.7818608E-02  0.1150448E+00
         21   -1    0    0  501  502  0.00000000000E+00  0.00000000000E+00  0.28046453440E+03  0.28046453440E+03  0.00000000000E+00 0. -1.
         21   -1    0    0  502  503 -0.00000000000E+00 -0.00000000000E+00 -0.29603910190E+03  0.29603910190E+03  0.00000000000E+00 0.  1.
         -6    2    1    2    0  503  0.90047700108E+02 -0.42561135775E+02 -0.21643668503E+03  0.29338255566E+03  0.17119709918E+03 0.  0.
        -24    2    3    3    0    0  0.10648800552E+03 -0.51567004380E+02 -0.97232669900E+02  0.17262214603E+03  0.79657780184E+02 0.  0.
          6    2    1    2  501    0 -0.90047700108E+02  0.42561135775E+02  0.20086211753E+03  0.28312108064E+03  0.17289279184E+03 0.  0.
         24    2    5    5    0    0  0.40835182488E+01  0.60315968130E+02  0.11833887874E+03  0.15659797887E+03  0.82850139601E+02 0.  0.
          5    1    5    5  501    0 -0.94131218356E+02 -0.17754832355E+02  0.82523238792E+02  0.12652310177E+03  0.47000000000E+01 0. -1.
        -13    1    6    6    0    0 -0.99709783889E+01  0.64833837355E+02  0.12440344547E+03  0.14063806071E+03  0.00000000000E+00 0.  1.
         14    1    6    6    0    0  0.14054496638E+02 -0.45178692250E+01 -0.60645667274E+01  0.15959918160E+02  0.00000000000E+00 0. -1.
         -5    1    3    3    0  503 -0.16440305414E+02  0.90058686055E+01 -0.11920401513E+03  0.12076040963E+03  0.47000000000E+01 0.  1.
         11    1    4    4    0    0  0.81087977996E+02 -0.57943770047E+02 -0.35898986107E+02  0.10593147722E+03  0.00000000000E+00 0. -1.
        -12    1    4    4    0    0  0.25400027526E+02  0.63767656669E+01 -0.61333683794E+02  0.66690668811E+02  0.00000000000E+00 0.  1.
</event>
<event>
12    1  0.8633375E-002  0.2326836E+03  0.7818608E-02  0.1124865E+00
         21   -1    0    0  501  502  0.00000000000E+00  0.00000000000E+00  0.61310481899E+03  0.61310481899E+03  0.00000000000E+00 0. -1.
         21   -1    0    0  502  503 -0.00000000000E+00 -0.00000000000E+00 -0.89725410897E+02  0.89725410897E+02  0.00000000000E+00 0. -1.
         -6    2    1    2    0  503 -0.23964446522E+02  0.15393633291E+03  0.30945835568E+03  0.38717714335E+03  0.17283222254E+03 0.  0.
        -24    2    3    3    0    0 -0.69459320713E+02  0.15321863685E+03  0.26158756220E+03  0.32096535034E+03  0.79310500626E+02 0.  0.
          6    2    1    2  501    0  0.23964446522E+02 -0.15393633291E+03  0.21392105241E+03  0.31565308653E+03  0.17205802826E+03 0.  0.
         24    2    5    5    0    0 -0.50564632767E+02 -0.78904350403E+02  0.15133441599E+03  0.19267520593E+03  0.73749243520E+02 0.  0.
          5    1    5    5  501    0  0.74529079289E+02 -0.75031982505E+02  0.62586636426E+02  0.12297788060E+03  0.47000000000E+01 0. -1.
        -11    1    6    6    0    0 -0.13045426333E+02 -0.19671085131E+01  0.80486516844E+02  0.81560603589E+02  0.00000000000E+00 0.  1.
         12    1    6    6    0    0 -0.37519206434E+02 -0.76937241889E+02  0.70847899142E+02  0.11111460234E+03  0.00000000000E+00 0. -1.
         -5    1    3    3    0  503  0.45494874191E+02  0.71769605509E+00  0.47870793484E+02  0.66211793014E+02  0.47000000000E+01 0.  1.
         11    1    4    4    0    0 -0.16417466225E+02  0.25636067809E+02  0.11732203609E+03  0.12120726596E+03  0.00000000000E+00 0. -1.
        -12    1    4    4    0    0 -0.53041854488E+02  0.12758256904E+03  0.14426552611E+03  0.19975808438E+03  0.00000000000E+00 0.  1.
</event>
<event>
12    1  0.8633375E-002  0.2236008E+03  0.7818608E-02  0.1132770E+00
         21   -1    0    0  501  502  0.00000000000E+00  0.00000000000E+00  0.24404013205E+03  0.24404013205E+03  0.00000000000E+00 0. -1.
         21   -1    0    0  502  503 -0.00000000000E+00 -0.00000000000E+00 -0.19792029985E+03  0.19792029985E+03  0.00000000000E+00 0.  1.
         -6    2    1    2    0  503  0.57740694878E+02 -0.11695063609E+03  0.35363419361E+02  0.22637992837E+03  0.18162010190E+03 0.  0.
        -24    2    3    3    0    0  0.39527311868E+02 -0.61252622027E+02 -0.54113911842E+02  0.11931789546E+03  0.77421913141E+02 0.  0.
          6    2    1    2  501    0 -0.57740694878E+02  0.11695063609E+03  0.10756412835E+02  0.21558050354E+03  0.17131203683E+03 0.  0.
         24    2    5    5    0    0 -0.14337723616E+02  0.28854874579E+02 -0.50131719828E+02  0.99933904757E+02  0.80221081279E+02 0.  0.
          5    1    5    5  501    0 -0.43402971262E+02  0.88095761506E+02  0.60888132663E+02  0.11564659878E+03  0.47000000000E+01 0. -1.
        -13    1    6    6    0    0 -0.43251556905E+02  0.22217961704E+02 -0.50719392309E+02  0.70262306773E+02  0.00000000000E+00 0.  1.
         14    1    6    6    0    0  0.28913833289E+02  0.66369128753E+01  0.58767248044E+00  0.29671597984E+02  0.00000000000E+00 0. -1.
         -5    1    3    3    0  503  0.18213383010E+02 -0.55698014058E+02  0.89477331203E+02  0.10706203291E+03  0.47000000000E+01 0.  1.
         11    1    4    4    0    0 -0.16896800452E+02  0.48605262720E+01 -0.18103438697E+02  0.25236106550E+02  0.00000000000E+00 0. -1.
        -12    1    4    4    0    0  0.56424112320E+02 -0.66113148299E+02 -0.36010473145E+02  0.94081788914E+02  0.00000000000E+00 0.  1.
</event>
<event>
12    1  0.8633375E-002  0.1884958E+03  0.7818608E-02  0.1160010E+00
         21   -1    0    0  501  502  0.00000000000E+00  0.00000000000E+00  0.64054144344E+03  0.64054144344E+03  0.00000000000E+00 0. -1.
         21   -1    0    0  502  503 -0.00000000000E+00 -0.00000000000E+00 -0.12389134861E+03  0.12389134861E+03  0.00000000000E+00 0. -1.
         -6    2    1    2    0  503  0.73996547141E+02 -0.95426379971E+01 -0.26460443059E+02  0.18954173115E+03  0.17221893587E+03 0.  0.
        -24    2    3    3    0    0  0.84312096516E+02  0.41614906704E+02 -0.49027933178E+02  0.13249011812E+03  0.79432758286E+02 0.  0.
          6    2    1    2  501    0 -0.73996547141E+02  0.95426379971E+01  0.54311053789E+03  0.57489106090E+03  0.17310148646E+03 0.  0.
         24    2    5    5    0    0 -0.28788058801E+02  0.14356216553E+02  0.10524005779E+03  0.13464155744E+03  0.77575936630E+02 0.  0.
          5    1    5    5  501    0 -0.45208488339E+02 -0.48135785558E+01  0.43787048010E+03  0.44024950346E+03  0.47000000000E+01 0. -1.
        -11    1    6    6    0    0  0.12525434953E+02  0.35442960354E+02  0.47947268881E+02  0.60926435581E+02  0.00000000000E+00 0.  1.
         12    1    6    6    0    0 -0.41313493754E+02 -0.21086743801E+02  0.57292788905E+02  0.73715121860E+02  0.00000000000E+00 0. -1.
         -5    1    3    3    0  503 -0.10315549375E+02 -0.51157544701E+02  0.22567490120E+02  0.57051613028E+02  0.47000000000E+01 0.  1.
         11    1    4    4    0    0  0.33927850687E+02  0.59506978851E+02 -0.18636593023E+02  0.70989451215E+02  0.00000000000E+00 0. -1.
        -12    1    4    4    0    0  0.50384245828E+02 -0.17892072147E+02 -0.30391340155E+02  0.61500666906E+02  0.00000000000E+00 0.  1.
</event>
<event>
12    1  0.8633375E-002  0.1792424E+03  0.7818608E-02  0.1169941E+00
         21   -1    0    0  503  502  0.00000000000E+00  0.00000000000E+00  0.12957586169E+02  0.12957586169E+02  0.00000000000E+00 0. -1.
         21   -1    0    0  501  503 -0.00000000000E+00 -0.00000000000E+00 -0.25346811712E+04  0.25346811712E+04  0.00000000000E+00 0. -1.
          6    2    1    2  501    0 -0.39564305945E+02 -0.34077523056E+02 -0.15717839613E+04  0.15819711335E+04  0.17146788193E+03 0.  0.
         24    2    3    3    0    0 -0.33755924698E+02 -0.34926927570E+02 -0.43028604858E+03  0.44044845155E+03  0.80556825632E+02 0.  0.
         -6    2    1    2    0  502  0.39564305945E+02  0.34077523056E+02 -0.94993962377E+03  0.96566762385E+03  0.16553567306E+03 0.  0.
        -24    2    5    5    0    0  0.30196339780E+02  0.45438169379E+02 -0.29687744546E+03  0.31242255359E+03  0.80592730422E+02 0.  0.
          5    1    3    3  501    0 -0.58083812467E+01  0.84940451425E+00 -0.11414979127E+04  0.11415226820E+04  0.47000000000E+01 0. -1.
        -13    1    4    4    0    0 -0.16347099670E+02  0.25992852175E+02 -0.13869467263E+03  0.14205304730E+03  0.00000000000E+00 0.  1.
         14    1    4    4    0    0 -0.17408825029E+02 -0.60919779745E+02 -0.29159137595E+03  0.29839540426E+03  0.00000000000E+00 0. -1.
         -5    1    5    5    0  502  0.93679661652E+01 -0.11360646323E+02 -0.65306217831E+03  0.65324507026E+03  0.47000000000E+01 0.  1.
         11    1    6    6    0    0  0.48574928970E+02  0.57550084240E+02 -0.22888807386E+03  0.24095909669E+03  0.00000000000E+00 0. -1.
        -12    1    6    6    0    0 -0.18378589190E+02 -0.12111914861E+02 -0.67989371595E+02  0.71463456900E+02  0.00000000000E+00 0.  1.
</event>
<event>
12    1  0.8633375E-002  0.1831528E+03  0.7818608E-02  0.1164815E+00
         21   -1    0    0  503  502  0.00000000000E+00  0.00000000000E+00  0.39031757293E+03  0.39031757293E+03  0.00000000000E+00 0.  1.
         21   -1    0    0  501  503 -0.00000000000E+00 -0.00000000000E+00 -0.10921190041E+03  0.10921190041E+03  0.00000000000E+00 0.  1.
          6    2    1    2  501    0  0.56210456876E+02  0.29527402666E+02  0.25085557114E+02  0.18474186511E+03  0.17166475637E+03 0.  0.
         24    2    3    3    0    0  0.25082851351E+02 -0.42494067137E+02 -0.67343340084E+01  0.99944368630E+02  0.86652353647E+02 0.  0.
         -6    2    1    2    0  502 -0.56210456876E+02 -0.29527402666E+02  0.25602011541E+03  0.31478760823E+03  0.17179480736E+03 0.  0.
        -24    2    5    5    0    0 -0.40335906152E+02  0.35253946914E+02  0.72983687122E+02  0.11992086224E+03  0.78642027675E+02 0.  0.
          5    1    3    3  501    0  0.31127605525E+02  0.72021469803E+02  0.31819891122E+02  0.84797496480E+02  0.47000000000E+01 0. -1.
        -13    1    4    4    0    0  0.55690019619E+02 -0.15053656797E+02  0.27621120908E+01  0.57754827775E+02  0.00000000000E+00 0.  1.
         14    1    4    4    0    0 -0.30607168268E+02 -0.27440410340E+02 -0.94964460992E+01  0.42189540855E+02  0.00000000000E+00 0. -1.
         -5    1    5    5    0  502 -0.15874550724E+02 -0.64781349580E+02  0.18303642828E+03  0.19486674599E+03  0.47000000000E+01 0.  1.
         13    1    6    6    0    0  0.14101517709E+02 -0.53538963383E+01 -0.55698735222E+01  0.16079194593E+02  0.00000000000E+00 0. -1.
        -14    1    6    6    0    0 -0.54437423861E+02  0.40607843252E+02  0.78553560644E+02  0.10384166765E+03  0.00000000000E+00 0.  1.
</event>
<event>
12    1  0.8633375E-002  0.1879668E+03  0.7818608E-02  0.1160759E+00
         21   -1    0    0  501  502  0.00000000000E+00  0.00000000000E+00  0.18349683570E+03  0.18349683570E+03  0.00000000000E+00 0. -1.
         21   -1    0    0  502  503 -0.00000000000E+00 -0.00000000000E+00 -0.33558843744E+03  0.33558843744E+03  0.00000000000E+00 0. -1.
         -6    2    1    2    0  503 -0.69629495638E+02  0.26479513333E+02 -0.24644869418E+03  0.30876463831E+03  0.17043829298E+03 0.  0.
        -24    2    3    3    0    0  0.23340212864E+02 -0.10412036370E+02 -0.92998032206E+02  0.12553377628E+03  0.80354956003E+02 0.  0.
          6    2    1    2  501    0  0.69629495638E+02 -0.26479513333E+02  0.94357092442E+02  0.21032063483E+03  0.17257484536E+03 0.  0.
         24    2    5    5    0    0  0.29440830295E+02 -0.27601186604E+02 -0.17561858750E+02  0.91306649898E+02  0.79999359013E+02 0.  0.
          5    1    5    5  501    0  0.40188665343E+02  0.11216732709E+01  0.11191895119E+03  0.11901398493E+03  0.47000000000E+01 0. -1.
        -11    1    6    6    0    0 -0.11547507748E+02  0.50750177859E+00 -0.36372937913E+02  0.38165339062E+02  0.00000000000E+00 0.  1.
         12    1    6    6    0    0  0.40988338043E+02 -0.28108688383E+02  0.18811079163E+02  0.53141310837E+02  0.00000000000E+00 0. -1.
         -5    1    3    3    0  503 -0.92969708502E+02  0.36891549703E+02 -0.15345066198E+03  0.18323086203E+03  0.47000000000E+01 0.  1.
         11    1    4    4    0    0 -0.23583884665E+02  0.61645215168E+01 -0.62696615245E+02  0.67268614558E+02  0.00000000000E+00 0. -1.
        -12    1    4    4    0    0  0.46924097529E+02 -0.16576557887E+02 -0.30301416961E+02  0.58265161718E+02  0.00000000000E+00 0.  1.
</event>
<event>
12    1  0.8633375E-002  0.2719966E+03  0.7818608E-02  0.1100236E+00
         21   -1    0    0  503  502  0.00000000000E+00  0.00000000000E+00  0.99710820934E+02  0.99710820934E+02  0.00000000000E+00 0.  1.
         21   -1    0    0  501  503 -0.00000000000E+00 -0.00000000000E+00 -0.74716139700E+03  0.74716139700E+03  0.00000000000E+00 0.  1.
          6    2    1    2  501    0 -0.12349240797E+03  0.16959630762E+03 -0.36432848467E+03  0.45426520864E+03  0.17207077804E+03 0.  0.
         24    2    3    3    0    0 -0.14000886525E+03  0.15887123851E+03 -0.36981253341E+03  0.43328938306E+03  0.78331518748E+02 0.  0.
         -6    2    1    2    0  502  0.12349240797E+03 -0.16959630762E+03 -0.28312209139E+03  0.39260700929E+03  0.17311517185E+03 0.  0.
        -24    2    5    5    0    0  0.61144335910E+02 -0.28318363101E+02 -0.62958689641E+02  0.12364464544E+03  0.82362869315E+02 0.  0.
          5    1    3    3  501    0  0.16516457283E+02  0.10725069112E+02  0.54840487347E+01  0.20975825589E+02  0.47000000000E+01 0. -1.
        -13    1    4    4    0    0 -0.28595355500E+02  0.79474536134E+02 -0.18481413543E+03  0.20319980537E+03  0.00000000000E+00 0.  1.
         14    1    4    4    0    0 -0.11141350975E+03  0.79396702375E+02 -0.18499839798E+03  0.23008957768E+03  0.00000000000E+00 0. -1.
         -5    1    5    5    0  502  0.62348072057E+02 -0.14127794452E+03 -0.22016340175E+03  0.26896236385E+03  0.47000000000E+01 0.  1.
         13    1    6    6    0    0  0.74502092366E+01 -0.42341826188E+02 -0.48036821705E+01  0.43259810737E+02  0.00000000000E+00 0. -1.
        -14    1    6    6    0    0  0.53694126674E+02  0.14023463087E+02 -0.58155007471E+02  0.80384834702E+02  0.00000000000E+00 0.  1.
</event>
<event>
12    1  0.8633375E-002  0.1790939E+03  0.7818608E-02  0.1169255E+00
         21   -1    0    0  501  502  0.00000000000E+00  0.00000000000E+00  0.12941807385E+03  0.12941807385E+03  0.00000000000E+00 0.  1.
         21   -1    0    0  502  503 -0.00000000000E+00 -0.00000000000E+00 -0.25239039286E+03  0.25239039286E+03  0.00000000000E+00 0.  1.
         -6    2    1    2    0  503 -0.55054550953E+01  0.50562161466E+02 -0.28378480923E+02  0.18132832776E+03  0.17172006890E+03 0.  0.
        -24    2    3    3    0    0  0.45427041203E+02  0.63340488688E+01 -0.58639514471E+02  0.10724685049E+03  0.77198173785E+02 0.  0.
          6    2    1    2  501    0  0.55054550953E+01 -0.50562161466E+02 -0.94593838080E+02  0.20048013895E+03  0.16928511365E+03 0.  0.
         24    2    5    5    0    0  0.15516715289E+02 -0.20970187354E+02  0.16053525636E+02  0.85411292774E+02  0.79729894249E+02 0.  0.
          5    1    5    5  501    0 -0.10011260194E+02 -0.29591974112E+02 -0.11064736372E+03  0.11506884617E+03  0.47000000000E+01 0. -1.
        -11    1    6    6    0    0  0.97577203028E+01 -0.85071307572E+01 -0.32484482735E+02  0.34968929034E+02  0.00000000000E+00 0.  1.
         12    1    6    6    0    0  0.57589949862E+01 -0.12463056597E+02  0.48538008371E+02  0.50442363739E+02  0.00000000000E+00 0. -1.
         -5    1    3    3    0  503 -0.50932496299E+02  0.44228112597E+02  0.30261033548E+02  0.74081477270E+02  0.47000000000E+01 0.  1.
         13    1    4    4    0    0  0.52226842304E+02  0.32119038000E+02 -0.30503457534E+02  0.68481651416E+02  0.00000000000E+00 0. -1.
        -14    1    4    4    0    0 -0.67998011008E+01 -0.25784989131E+02 -0.28136056936E+02  0.38765199077E+02  0.00000000000E+00 0.  1.
</event>
<event>
12    1  0.8633375E-002  0.2032470E+03  0.7818608E-02  0.1147146E+00
         21   -1    0    0  501  502  0.00000000000E+00  0.00000000000E+00  0.10901247714E+03  0.10901247714E+03  0.00000000000E+00 0. -1.
         21   -1    0    0  502  503 -0.00000000000E+00 -0.00000000000E+00 -0.52152806412E+03  0.52152806412E+03  0.00000000000E+00 0. -1.
         -6    2    1    2    0  503 -0.67745209936E+02 -0.83890131964E+02 -0.41007640989E+02  0.20734262243E+03  0.17228571835E+03 0.  0.
        -24    2    3    3    0    0 -0.77703960432E+02 -0.24956470551E+02  0.26172744426E+02  0.11730014721E+03  0.80084836868E+02 0.  0.
          6    2    1    2  501    0  0.67745209936E+02  0.83890131964E+02 -0.37150794599E+03  0.42319791882E+03  0.17161397626E+03 0.  0.
         24    2    5    5    0    0  0.28919062225E+02  0.10650433091E+03 -0.34484068058E+03  0.37073741191E+03  0.79697233012E+02 0.  0.
          5    1    5    5  501    0  0.38826147711E+02 -0.22614198946E+02 -0.26667265418E+02  0.52460506907E+02  0.47000000000E+01 0. -1.
        -13    1    6    6    0    0 -0.22998422688E+02  0.56492835047E+02 -0.11981445128E+03  0.13444653433E+03  0.00000000000E+00 0.  1.
         14    1    6    6    0    0  0.51917484913E+02  0.50011495864E+02 -0.22502622930E+03  0.23629087759E+03  0.00000000000E+00 0. -1.
         -5    1    3    3    0  503  0.99587504958E+01 -0.58933661413E+02 -0.67180385415E+02  0.90042475219E+02  0.47000000000E+01 0.  1.
         11    1    4    4    0    0 -0.50802826426E+02 -0.47874030436E+02 -0.52607322593E+01  0.70003751807E+02  0.00000000000E+00 0. -1.
        -12    1    4    4    0    0 -0.26901134006E+02  0.22917559885E+02  0.31433476686E+02  0.47296395406E+02  0.00000000000E+00 0.  1.
</event>
<event>
12    1  0.8633375E-002  0.1956044E+03  0.7818608E-02  0.1153771E+00
         21   -1    0    0  501  502  0.00000000000E+00  0.00000000000E+00  0.13629349747E+03  0.13629349747E+03  0.00000000000E+00 0.  1.
         21   -1    0    0  502  503 -0.00000000000E+00 -0.00000000000E+00 -0.12039260430E+04  0.12039260430E+04  0.00000000000E+00 0. -1.
         -6    2    1    2    0  503  0.16936342716E+02 -0.88513643448E+02 -0.11207916597E+04  0.11375202755E+04  0.17221186932E+03 0.  0.
        -24    2    3    3    0    0  0.65749932828E+02 -0.51366945077E+02 -0.93000519124E+03  0.93706027868E+03  0.78807952775E+02 0.  0.
          6    2    1    2  501    0 -0.16936342716E+02  0.88513643448E+02  0.53159114224E+02  0.20269926492E+03  0.17360759140E+03 0.  0.
         24    2    5    5    0    0 -0.18231553049E+02  0.30490962583E+02 -0.36836107265E+02  0.95509997938E+02  0.80642250600E+02 0.  0.
          5    1    5    5  501    0  0.12952103330E+01  0.58022680865E+02  0.89995221489E+02  0.10718926698E+03  0.47000000000E+01 0. -1.
        -11    1    6    6    0    0 -0.46888032125E+02  0.12361841677E+02 -0.45747150120E+01  0.48705551055E+02  0.00000000000E+00 0.  1.
         12    1    6    6    0    0  0.28656479076E+02  0.18129120907E+02 -0.32261392252E+02  0.46804446882E+02  0.00000000000E+00 0. -1.
         -5    1    3    3    0  503 -0.48813590112E+02 -0.37146698370E+02 -0.19078646846E+03  0.20045999683E+03  0.47000000000E+01 0.  1.
         13    1    4    4    0    0  0.55445782310E+02 -0.50880599014E+02 -0.91861857240E+03  0.92169580215E+03  0.00000000000E+00 0. -1.
        -14    1    4    4    0    0  0.10304150518E+02 -0.48634606335E+00 -0.11386618838E+02  0.15364476527E+02  0.00000000000E+00 0.  1.
</event>
<event>
12    1  0.8633375E-002  0.2031753E+03  0.7818608E-02  0.1147266E+00
         21   -1    0    0  501  502  0.00000000000E+00  0.00000000000E+00  0.15567100336E+04  0.15567100336E+04  0.00000000000E+00 0.  1.
         21   -1    0    0  502  503 -0.00000000000E+00 -0.00000000000E+00 -0.53150944090E+02  0.53150944090E+02  0.00000000000E+00 0. -1.
         -6    2    1    2    0  503  0.98286539494E+02  0.39081903902E+02  0.18158073346E+03  0.27249174701E+03  0.17347204491E+03 0.  0.
        -24    2    3    3    0    0  0.79452588855E+02 -0.21917966167E+02  0.45533366706E+02  0.12213657468E+03  0.77787815722E+02 0.  0.
          6    2    1    2  501    0 -0.98286539494E+02 -0.39081903902E+02  0.13219783560E+04  0.13373692307E+04  0.17245882478E+03 0.  0.
         24    2    5    5    0    0 -0.35475632393E+02  0.40638292822E+02  0.64589399258E+03  0.65369337448E+03  0.85005804831E+02 0.  0.
          5    1    5    5  501    0 -0.62810907101E+02 -0.79720196724E+02  0.67608436345E+03  0.68367585618E+03  0.47000000000E+01 0. -1.
        -13    1    6    6    0    0 -0.56133897002E+02  0.15839419816E+02  0.53581352795E+03  0.53897869934E+03  0.00000000000E+00 0.  1.
         14    1    6    6    0    0  0.20658264609E+02  0.24798873007E+02  0.11008046463E+03  0.11471467514E+03  0.00000000000E+00 0. -1.
         -5    1    3    3    0  503  0.18833950639E+02  0.60999870069E+02  0.13604736675E+03  0.15035517233E+03  0.47000000000E+01 0.  1.
         13    1    4    4    0    0  0.38466545318E+02  0.14573610177E+02 -0.11779021223E+02  0.42787972180E+02  0.00000000000E+00 0. -1.
        -14    1    4    4    0    0  0.40986043537E+02 -0.36491576344E+02  0.57312387929E+02  0.79348602502E+02  0.00000000000E+00 0.  1.
</event>
<event>
12    1  0.8633375E-002  0.1811127E+03  0.7818608E-02  0.1168021E+00
         21   -1    0    0  503  502  0.00000000000E+00  0.00000000000E+00  0.75276188526E+02  0.75276188526E+02  0.00000000000E+00 0. -1.
         21   -1    0    0  501  503 -0.00000000000E+00 -0.00000000000E+00 -0.61069723699E+03  0.61069723699E+03  0.00000000000E+00 0. -1.
          6    2    1    2  501    0  0.41508661888E+02 -0.13260891504E+02 -0.46053495043E+03  0.49486790280E+03  0.17579243554E+03 0.  0.
         24    2    3    3    0    0  0.90817054639E+02 -0.11341641679E+02 -0.24054893486E+03  0.26936637695E+03  0.79486380693E+02 0.  0.
         -6    2    1    2    0  502 -0.41508661888E+02  0.13260891504E+02 -0.74886098034E+02  0.19110552272E+03  0.17033664574E+03 0.  0.
        -24    2    5    5    0    0  0.58886439364E+01  0.35231041056E+02  0.12776436695E+02  0.88948770298E+02  0.80453365508E+02 0.  0.
          5    1    3    3  501    0 -0.49308392751E+02 -0.19192498256E+01 -0.21998601557E+03  0.22550152585E+03  0.47000000000E+01 0. -1.
        -13    1    4    4    0    0  0.21659678031E+02 -0.29946504782E+02 -0.14686840726E+03  0.15144723125E+03  0.00000000000E+00 0.  1.
         14    1    4    4    0    0  0.69157376608E+02  0.18604863103E+02 -0.93680527603E+02  0.11791914570E+03  0.00000000000E+00 0. -1.
         -5    1    5    5    0  502 -0.47397305824E+02 -0.21970149552E+02 -0.87662534729E+02  0.10215675242E+03  0.47000000000E+01 0.  1.
         11    1    6    6    0    0  0.36972233041E+02 -0.14562245810E+00 -0.74174487489E+01  0.37709226562E+02  0.00000000000E+00 0. -1.
        -12    1    6    6    0    0 -0.31083589105E+02  0.35376663514E+02  0.20193885444E+02  0.51239543736E+02  0.00000000000E+00 0.  1.
</event>
<event>
12    1  0.8633375E-002  0.1757040E+03  0.7818608E-02  0.1172116E+00
         21   -1    0    0  503  502  0.00000000000E+00  0.00000000000E+00  0.10646888914E+04  0.10646888914E+04  0.00000000000E+00 0.  1.
         21   -1    0    0  501  503 -0.00000000000E+00 -0.00000000000E+00 -0.30224699008E+02  0.30224699008E+02  0.00000000000E+00 0.  1.
          6    2    1    2  501    0  0.12606170635E+02  0.32469260848E+02  0.40473691617E+03  0.44122993030E+03  0.17221704807E+03 0.  0.
         24    2    3    3    0    0  0.35739647568E+02  0.59217146068E+01  0.39546359433E+03  0.40451461382E+03  0.76994994922E+02 0.  0.
         -6    2    1    2    0  502 -0.12606170635E+02 -0.32469260848E+02  0.62972727622E+03  0.65368366010E+03  0.17185085578E+03 0.  0.
        -24    2    5    5    0    0  0.25624874395E+02  0.27334591583E+02  0.48098160394E+03  0.48880346544E+03  0.78623853972E+02 0.  0.
          5    1    3    3  501    0 -0.23133476933E+02  0.26547546241E+02  0.92733218420E+01  0.36715316483E+02  0.47000000000E+01 0. -1.
        -11    1    4    4    0    0  0.76364882958E+01  0.40103060101E+02  0.19382642390E+03  0.19807890848E+03  0.00000000000E+00 0.  1.
         12    1    4    4    0    0  0.28103159272E+02 -0.34181345494E+02  0.20163717042E+03  0.20643570533E+03  0.00000000000E+00 0. -1.
         -5    1    5    5    0  502 -0.38231045030E+02 -0.59803852431E+02  0.14874567228E+03  0.16488019466E+03  0.47000000000E+01 0.  1.
         13    1    6    6    0    0  0.17859532964E+02  0.53826141461E+02  0.26059159975E+03  0.26669120398E+03  0.00000000000E+00 0. -1.
        -14    1    6    6    0    0  0.77653414310E+01 -0.26491549878E+02  0.22039000419E+03  0.22211226146E+03  0.00000000000E+00 0.  1.
</event>
<event>
12    1  0.8633375E-002  0.1789235E+03  0.7818608E-02  0.1168893E+00
         21   -1    0    0  501  502  0.00000000000E+00  0.00000000000E+00  0.59968177185E+02  0.59968177185E+02  0.00000000000E+00 0.  1.
         21   -1    0    0  502  503 -0.00000000000E+00 -0.00000000000E+00 -0.79503548094E+03  0.79503548094E+03  0.00000000000E+00 0.  1.
         -6    2    1    2    0  503 -0.20420335014E+02 -0.43502501238E+02 -0.61294176735E+03  0.63852268568E+03  0.17234892593E+03 0.  0.
        -24    2    3    3    0    0  0.39478231220E+02  0.17395902690E+02 -0.36847366278E+03  0.37951844249E+03  0.80001624091E+02 0.  0.
          6    2    1    2  501    0  0.20420335014E+02  0.43502501238E+02 -0.12212553641E+03  0.21648097245E+03  0.17216244391E+03 0.  0.
         24    2    5    5    0    0  0.82924449727E+01 -0.24294626132E+02 -0.12151135665E+03  0.14744472535E+03  0.79472911958E+02 0.  0.
          5    1    5    5  501    0  0.12127890041E+02  0.67797127370E+02 -0.61417975253E+00  0.69036247097E+02  0.47000000000E+01 0. -1.
        -13    1    6    6    0    0 -0.79810884231E+01  0.71432812041E+01  0.78805603200E+01  0.13297649030E+02  0.00000000000E+00 0.  1.
         14    1    6    6    0    0  0.16273533396E+02 -0.31437907336E+02 -0.12939191697E+03  0.13414707632E+03  0.00000000000E+00 0. -1.
         -5    1    3    3    0  503 -0.59898566233E+02 -0.60898403928E+02 -0.24446810457E+03  0.25900424319E+03  0.47000000000E+01 0.  1.
         13    1    4    4    0    0  0.37543944456E+02 -0.26002590977E+02 -0.22603791213E+03  0.23060533433E+03  0.00000000000E+00 0. -1.
        -14    1    4    4    0    0  0.19342867636E+01  0.43398493667E+02 -0.14243575065E+03  0.14891310816E+03  0.00000000000E+00 0.  1.
</event>
<event>
12    1  0.8633375E-002  0.1890391E+03  0.7818608E-02  0.1159659E+00
         21   -1    0    0  503  502  0.00000000000E+00  0.00000000000E+00  0.10734075541E+03  0.10734075541E+03  0.00000000000E+00 0.  1.
         21   -1    0    0  501  503 -0.00000000000E+00 -0.00000000000E+00 -0.73860346964E+03  0.73860346964E+03  0.00000000000E+00 0.  1.
          6    2    1    2  501    0 -0.47502241370E+02  0.62289728749E+02 -0.63062015877E+03  0.65834456842E+03  0.17204450842E+03 0.  0.
         24    2    3    3    0    0  0.13545865290E+02  0.22269869425E+01 -0.46146136739E+03  0.46868384244E+03  0.80805325485E+02 0.  0.
         -6    2    1    2    0  502  0.47502241370E+02 -0.62289728749E+02 -0.64255545596E+00  0.18759965663E+03  0.17046039144E+03 0.  0.
        -24    2    5    5    0    0  0.63526074568E+02 -0.64193427479E+02 -0.50779242111E+02  0.13472088350E+03  0.86109388225E+02 0.  0.
          5    1    3    3  501    0 -0.61048106660E+02  0.60062741806E+02 -0.16915879137E+03  0.18966072598E+03  0.47000000000E+01 0. -1.
        -11    1    4    4    0    0  0.14604477536E+02 -0.38375368098E+02 -0.25155379706E+03  0.25488286026E+03  0.00000000000E+00 0.  1.
         12    1    4    4    0    0 -0.10586122466E+01  0.40602355040E+02 -0.20990757034E+03  0.21380098218E+03  0.00000000000E+00 0. -1.
         -5    1    5    5    0  502 -0.16023833198E+02  0.19036987300E+01  0.50136686655E+02  0.52878773132E+02  0.47000000000E+01 0.  1.
         13    1    6    6    0    0  0.13292475304E+02  0.20038128461E+01  0.20986018377E+02  0.24922241732E+02  0.00000000000E+00 0. -1.
        -14    1    6    6    0    0  0.50233599263E+02 -0.66197240325E+02 -0.71765260488E+02  0.10979864177E+03  0.00000000000E+00 0.  1.
</event>
<event>
12    1  0.8633375E-002  0.1859664E+03  0.7818608E-02  0.1162851E+00
         21   -1    0    0  501  502  0.00000000000E+00  0.00000000000E+00  0.15030118678E+03  0.15030118678E+03  0.00000000000E+00 0.  1.
         21   -1    0    0  502  503 -0.00000000000E+00 -0.00000000000E+00 -0.23440471289E+03  0.23440471289E+03  0.00000000000E+00 0.  1.
         -6    2    1    2    0  503  0.55451084239E+02  0.12172675032E+02 -0.77256504818E+02  0.19861350561E+03  0.17394183025E+03 0.  0.
        -24    2    3    3    0    0  0.70851526257E+02 -0.50175725356E+02 -0.50326962334E+02  0.12881531864E+03  0.80765345237E+02 0.  0.
          6    2    1    2  501    0 -0.55451084239E+02 -0.12172675032E+02 -0.68470212857E+01  0.18609239407E+03  0.17708896258E+03 0.  0.
         24    2    5    5    0    0 -0.22917211859E+02 -0.11354310274E+02  0.66537858774E+02  0.10567751239E+03  0.78014940970E+02 0.  0.
          5    1    5    5  501    0 -0.32533872380E+02 -0.81836475789E+00 -0.73384880059E+02  0.80414881672E+02  0.47000000000E+01 0. -1.
        -11    1    6    6    0    0  0.27662149365E+02  0.98446553851E-01  0.36325366871E+02  0.45658914546E+02  0.00000000000E+00 0.  1.
         12    1    6    6    0    0 -0.50579361224E+02 -0.11452756828E+02  0.30212491903E+02  0.60018597849E+02  0.00000000000E+00 0. -1.
         -5    1    3    3    0  503 -0.15400442018E+02  0.62348400387E+02 -0.26929542485E+02  0.69798186965E+02  0.47000000000E+01 0.  1.
         11    1    4    4    0    0  0.24877767212E+02 -0.30407467889E+02 -0.65624360543E+02  0.76485777120E+02  0.00000000000E+00 0. -1.
        -12    1    4    4    0    0  0.45973759045E+02 -0.19768257466E+02  0.15297398210E+02  0.52329541523E+02  0.00000000000E+00 0.  1.
</event>
<event>
12    1  0.8633375E-002  0.2583270E+03  0.7818608E-02  0.1108694E+00
         21   -1    0    0  501  502  0.00000000000E+00  0.00000000000E+00  0.16996694497E+03  0.16996694497E+03  0.00000000000E+00 0. -1.
         21   -1    0    0  502  503 -0.00000000000E+00 -0.00000000000E+00 -0.42781679351E+03  0.42781679351E+03  0.00000000000E+00 0. -1.
         -6    2    1    2    0  503 -0.17935402974E+03 -0.56228512863E+02 -0.22015390900E+03  0.33672085801E+03  0.17199906665E+03 0.  0.
        -24    2    3    3    0    0 -0.17534176422E+03 -0.18406107445E+02 -0.22642615088E+03  0.29788706288E+03  0.79902323832E+02 0.  0.
          6    2    1    2  501    0  0.17935402974E+03  0.56228512863E+02 -0.37695939541E+02  0.26106288047E+03  0.17720984752E+03 0.  0.
         24    2    5    5    0    0  0.42986973311E+02 -0.22231592584E+02 -0.39253014800E+02  0.10365742723E+03  0.82836824332E+02 0.  0.
          5    1    5    5  501    0  0.13636705643E+03  0.78460105448E+02  0.15570752583E+01  0.15740545324E+03  0.47000000000E+01 0. -1.
        -13    1    6    6    0    0  0.35980377099E+02 -0.27425746010E+02  0.15797754253E+02  0.47920017945E+02  0.00000000000E+00 0.  1.
         14    1    6    6    0    0  0.70065962117E+01  0.51941534259E+01 -0.55050769053E+02  0.55737409283E+02  0.00000000000E+00 0. -1.
         -5    1    3    3    0  503 -0.40122655187E+01 -0.37822405418E+02  0.62722418813E+01  0.38833795133E+02  0.47000000000E+01 0.  1.
         11    1    4    4    0    0 -0.10464959452E+03  0.23537887681E+02 -0.15781042328E+03  0.19081325815E+03  0.00000000000E+00 0. -1.
        -12    1    4    4    0    0 -0.70692169701E+02 -0.41943995126E+02 -0.68615727600E+02  0.10707380472E+03  0.00000000000E+00 0.  1.
</event>
<event>
12    1  0.8633375E-002  0.1864304E+03  0.7818608E-02  0.1161850E+00
         21   -1    0    0  501  502  0.00000000000E+00  0.00000000000E+00  0.36086769750E+03  0.36086769750E+03  0.00000000000E+00 0. -1.
         21   -1    0    0  502  503 -0.00000000000E+00 -0.00000000000E+00 -0.12721489093E+03  0.12721489093E+03  0.00000000000E+00 0.  1.
         -6    2    1    2    0  503 -0.30166350496E+02  0.65446690403E+02 -0.38777548687E+01  0.18647070320E+03  0.17193896645E+03 0.  0.
        -24    2    3    3    0    0 -0.44267234688E+02 -0.22161146910E+02  0.14435989057E+02  0.95743357213E+02  0.80670243405E+02 0.  0.
          6    2    1    2  501    0  0.30166350496E+02 -0.65446690403E+02  0.23753056144E+03  0.30161188523E+03  0.17133500434E+03 0.  0.
         24    2    5    5    0    0  0.76728862296E+02 -0.35351424909E+02  0.10331914877E+03  0.15632394423E+03  0.81395868971E+02 0.  0.
          5    1    5    5  501    0 -0.46562511800E+02 -0.30095265494E+02  0.13421141267E+03  0.14528794100E+03  0.47000000000E+01 0. -1.
        -11    1    6    6    0    0  0.68858073350E+02 -0.51223634224E+02  0.10805073452E+03  0.13798643483E+03  0.00000000000E+00 0.  1.
         12    1    6    6    0    0  0.78707889457E+01  0.15872209315E+02 -0.47315857497E+01  0.18337509396E+02  0.00000000000E+00 0. -1.
         -5    1    3    3    0  503  0.14100884192E+02  0.87607837313E+02 -0.18313743926E+02  0.90727345989E+02  0.47000000000E+01 0.  1.
         13    1    4    4    0    0 -0.32580275318E+02  0.22082094726E+02  0.27665072815E+02  0.48108725831E+02  0.00000000000E+00 0. -1.
        -14    1    4    4    0    0 -0.11686959370E+02 -0.44243241636E+02 -0.13229083758E+02  0.47634631381E+02  0.00000000000E+00 0.  1.
</event>
<event>
12    1  0.8633375E-002  0.1938787E+03  0.7818608E-02  0.1155133E+00
         21   -1    0    0  503  502  0.00000000000E+00  0.00000000000E+00  0.45712406244E+02  0.45712406244E+02  0.00000000000E+00 0. -1.
         21   -1    0    0  501  503 -0.00000000000E+00 -0.00000000000E+00 -0.95651908520E+03  0.95651908520E+03  0.00000000000E+00 0.  1.
          6    2    1    2  501    0  0.21926181873E+02  0.87912724051E+02 -0.64536678107E+03  0.67385994446E+03  0.17140460360E+03 0.  0.
         24    2    3    3    0    0  0.26784550796E+02  0.15989082068E+02 -0.16189027721E+03  0.18501617206E+03  0.83961057422E+02 0.  0.
         -6    2    1    2    0  502 -0.21926181873E+02 -0.87912724051E+02 -0.26543989789E+03  0.32837154698E+03  0.17076337130E+03 0.  0.
        -24    2    5    5    0    0 -0.13061036559E+01 -0.12609278805E+03 -0.20136087432E+03  0.25084015867E+03  0.80457979022E+02 0.  0.
          5    1    3    3  501    0 -0.48583689231E+01  0.71923641983E+02 -0.48347650386E+03  0.48884377240E+03  0.47000000000E+01 0. -1.
        -11    1    4    4    0    0 -0.94376879785E+01  0.43220759379E+02 -0.81519027862E+02  0.92749425331E+02  0.00000000000E+00 0.  1.
         12    1    4    4    0    0  0.36222238774E+02 -0.27231677311E+02 -0.80371249344E+02  0.92266746730E+02  0.00000000000E+00 0. -1.
         -5    1    5    5    0  502 -0.20620078217E+02  0.38180064002E+02 -0.64079023568E+02  0.77531388317E+02  0.47000000000E+01 0.  1.
         11    1    6    6    0    0 -0.36847341069E+02 -0.42981631238E+02 -0.55760670778E+02  0.79463196345E+02  0.00000000000E+00 0. -1.
        -12    1    6    6    0    0  0.35541237413E+02 -0.83111156815E+02 -0.14560020354E+03  0.17137696232E+03  0.00000000000E+00 0.  1.
</event>
<event>
12    1  0.8633375E-002  0.2142118E+03  0.7818608E-02  0.1138446E+00
         21   -1    0    0  501  502  0.00000000000E+00  0.00000000000E+00  0.49699163058E+03  0.49699163058E+03  0.00000000000E+00 0. -1.
         21   -1    0    0  502  503 -0.00000000000E+00 -0.00000000000E+00 -0.20000135888E+03  0.20000135888E+03  0.00000000000E+00 0. -1.
         -6    2    1    2    0  503 -0.49426927588E+02  0.11689501450E+03 -0.10751999819E+03  0.23968154401E+03  0.17256658699E+03 0.  0.
        -24    2    3    3    0    0 -0.87909174880E+02  0.11765503777E+03 -0.58539651551E+02  0.17721054795E+03  0.80037219846E+02 0.  0.
          6    2    1    2  501    0  0.49426927588E+02 -0.11689501450E+03  0.40451026989E+03  0.45731144545E+03  0.17145767440E+03 0.  0.
         24    2    5    5    0    0  0.68992194295E+02 -0.14423865196E+03  0.32948115107E+03  0.37495895404E+03  0.80446732137E+02 0.  0.
          5    1    5    5  501    0 -0.19565266707E+02  0.27343637464E+02  0.75029118815E+02  0.82352491409E+02  0.47000000000E+01 0. -1.
        -11    1    6    6    0    0  0.44198018164E+02 -0.17300294455E+02  0.64324033571E+02  0.79939641560E+02  0.00000000000E+00 0.  1.
         12    1    6    6    0    0  0.24794176132E+02 -0.12693835751E+03  0.26515711750E+03  0.29501931248E+03  0.00000000000E+00 0. -1.
         -5    1    3    3    0  503  0.38482247293E+02 -0.76002327314E+00 -0.48980346637E+02  0.62470996060E+02  0.47000000000E+01 0.  1.
         11    1    4    4    0    0 -0.52990219995E+02  0.60204293163E+02 -0.72991069333E+02  0.10844453206E+03  0.00000000000E+00 0. -1.
        -12    1    4    4    0    0 -0.34918954886E+02  0.57450744609E+02  0.14451417783E+02  0.68766015897E+02  0.00000000000E+00 0.  1.
</event>
<event>
12    1  0.8633375E-002  0.1853025E+03  0.7818608E-02  0.1162986E+00
         21   -1    0    0  501  502  0.00000000000E+00  0.00000000000E+00  0.13807008337E+03  0.13807008337E+03  0.00000000000E+00 0. -1.
         21   -1    0    0  502  503 -0.00000000000E+00 -0.00000000000E+00 -0.33525756206E+03  0.33525756206E+03  0.00000000000E+00 0. -1.
         -6    2    1    2    0  503  0.66238564617E+02 -0.13486711057E+02 -0.21953449435E+03  0.28668248122E+03  0.17152845831E+03 0.  0.
        -24    2    3    3    0    0  0.60969379750E+02  0.41747446919E+02 -0.20137089481E+03  0.22811130345E+03  0.77617104403E+02 0.  0.
          6    2    1    2  501    0 -0.66238564617E+02  0.13486711057E+02  0.22347015659E+02  0.18664516421E+03  0.17253286469E+03 0.  0.
         24    2    5    5    0    0 -0.32120101337E+02  0.67435775200E+02  0.45417018007E+02  0.11860924674E+03  0.80163353227E+02 0.  0.
          5    1    5    5  501    0 -0.34118463280E+02 -0.53949064143E+02 -0.23070002348E+02  0.68035917476E+02  0.47000000000E+01 0. -1.
        -13    1    6    6    0    0  0.18922845667E+02  0.39328089977E+02  0.41472174651E+02  0.60205597910E+02  0.00000000000E+00 0.  1.
         14    1    6    6    0    0 -0.51042947004E+02  0.28107685222E+02  0.39448433562E+01  0.58403648829E+02  0.00000000000E+00 0. -1.
         -5    1    3    3    0  503  0.52691848671E+01 -0.55234157976E+02 -0.18163599543E+02  0.58571177766E+02  0.47000000000E+01 0.  1.
         13    1    4    4    0    0  0.24209358201E+01  0.13170282107E+02  0.29009028813E+01  0.13701550954E+02  0.00000000000E+00 0. -1.
        -14    1    4    4    0    0  0.58548443930E+02  0.28577164812E+02 -0.20427179769E+03  0.21440975250E+03  0.00000000000E+00 0.  1.
</event>
<event>
12    1  0.8633375E-002  0.2463312E+03  0.7818608E-02  0.1116195E+00
         21   -1    0    0  501  502  0.00000000000E+00  0.00000000000E+00  0.56242802310E+03  0.56242802310E+03  0.00000000000E+00 0.  1.
         21   -1    0    0  502  503 -0.00000000000E+00 -0.00000000000E+00 -0.11148167615E+03  0.11148167615E+03  0.00000000000E+00 0. -1.
         -6    2    1    2    0  503  0.10976991757E+03  0.13231442279E+03  0.15210671202E+03  0.28663179776E+03  0.17165312221E+03 0.  0.
        -24    2    3    3    0    0  0.61460899011E+02  0.69816406956E+02  0.84562744578E+01  0.12262782992E+03  0.79462590601E+02 0.  0.
          6    2    1    2  501    0 -0.10976991757E+03 -0.13231442279E+03  0.29883963494E+03  0.38727790149E+03  0.17641571442E+03 0.  0.
         24    2    5    5    0    0 -0.10954911581E+03 -0.13885552826E+03  0.16862564611E+03  0.25681485040E+03  0.78977163509E+02 0.  0.
          5    1    5    5  501    0 -0.22080175336E+00  0.65411054710E+01  0.13021398883E+03  0.13046305109E+03  0.47000000000E+01 0. -1.
        -13    1    6    6    0    0 -0.81879272891E+02 -0.52961213610E+02  0.11892351799E+03  0.15379177029E+03  0.00000000000E+00 0.  1.
         14    1    6    6    0    0 -0.27669842923E+02 -0.85894314648E+02  0.49702128113E+02  0.10302308011E+03  0.00000000000E+00 0. -1.
         -5    1    3    3    0  503  0.48309018557E+02  0.62498015830E+02  0.14365043756E+03  0.16400396784E+03  0.47000000000E+01 0.  1.
         11    1    4    4    0    0 -0.99355607862E+01  0.23772291477E+02 -0.20444129600E+02  0.32890722785E+02  0.00000000000E+00 0. -1.
        -12    1    4    4    0    0  0.71396459797E+02  0.46044115480E+02  0.28900404058E+02  0.89737107133E+02  0.00000000000E+00 0.  1.
</event>
<event>
12    1  0.8633375E-002  0.2565697E+03  0.7818608E-02  0.1109322E+00
         21   -1    0    0  503  502  0.00000000000E+00  0.00000000000E+00  0.58509493261E+03  0.58509493261E+03  0.00000000000E+00 0. -1.
         21   -1    0    0  501  503 -0.00000000000E+00 -0.00000000000E+00 -0.14417536492E+03  0.14417536492E+03  0.00000000000E+00 0.  1.
          6    2    1    2  501    0  0.12448986466E+02 -0.18829735488E+03  0.48579561880E+02  0.26048602908E+03  0.17286447408E+03 0.  0.
         24    2    3    3    0    0  0.63922053834E+02 -0.92031595602E+02 -0.77974193663E+01  0.13753470909E+03  0.79367202931E+02 0.  0.
         -6    2    1    2    0  502 -0.12448986466E+02  0.18829735488E+03  0.39234000582E+03  0.46878426845E+03  0.17383077708E+03 0.  0.
        -24    2    5    5    0    0 -0.34411552213E+02  0.16774411220E+03  0.39514056921E+03  0.43821102468E+03  0.81059179696E+02 0.  0.
          5    1    3    3  501    0 -0.51473067368E+02 -0.96265759275E+02  0.56376981246E+02  0.12295131999E+03  0.47000000000E+01 0. -1.
        -11    1    4    4    0    0  0.47091268376E+01 -0.45624296871E+02 -0.34831385279E+02  0.57593209157E+02  0.00000000000E+00 0.  1.
         12    1    4    4    0    0  0.59212926996E+02 -0.46407298731E+02  0.27033965913E+02  0.79941499936E+02  0.00000000000E+00 0. -1.
         -5    1    5    5    0  502  0.21962565748E+02  0.20553242682E+02 -0.28005633937E+01  0.30573243764E+02  0.47000000000E+01 0.  1.
         13    1    6    6    0    0  0.24906129984E+02  0.61264105890E+02  0.11415860115E+03  0.13193101302E+03  0.00000000000E+00 0. -1.
        -14    1    6    6    0    0 -0.59317682197E+02  0.10648000631E+03  0.28098196807E+03  0.30628001166E+03  0.00000000000E+00 0.  1.
</event>
<event>
12    1  0.8633375E-002  0.2245185E+03  0.7818608E-02  0.1133706E+00
         21   -1    0    0  503  502  0.00000000000E+00  0.00000000000E+00  0.12921254580E+03  0.12921254580E+03  0.00000000000E+00 0.  1.
         21   -1    0    0  501  503 -0.00000000000E+00 -0.00000000000E+00 -0.60597897715E+03  0.60597897715E+03  0.00000000000E+00 0.  1.
          6    2    1    2  501    0  0.73860220309E+02 -0.88139163001E+02 -0.47712856253E+03  0.52731416886E+03  0.19283340815E+03 0.  0.
         24    2    3    3    0    0  0.19262909152E+02 -0.12531849049E+03 -0.39105179780E+03  0.41871182909E+03  0.79512914190E+02 0.  0.
         -6    2    1    2    0  502 -0.73860220309E+02  0.88139163001E+02  0.36213117575E+00  0.20787735410E+03  0.17317337847E+03 0.  0.
        -24    2    5    5    0    0 -0.31657179708E+02 -0.21481221987E+02 -0.11866963475E+02  0.89685280777E+02  0.80243409952E+02 0.  0.
          5    1    3    3  501    0  0.54597311157E+02  0.37179327493E+02 -0.86076764725E+02  0.10860233977E+03  0.47000000000E+01 0. -1.
        -11    1    4    4    0    0  0.15171779631E+02 -0.30157019906E+01 -0.12396146945E+03  0.12492286926E+03  0.00000000000E+00 0.  1.
         12    1    4    4    0    0  0.40911295211E+01 -0.12230278850E+03 -0.26709032835E+03  0.29378895982E+03  0.00000000000E+00 0. -1.
         -5    1    5    5    0  502 -0.42203040601E+02  0.10962038499E+03  0.12229094651E+02  0.11819207333E+03  0.47000000000E+01 0.  1.
         13    1    6    6    0    0  0.25012166388E+02  0.53497721213E+01 -0.82714237195E+01  0.26882056832E+02  0.00000000000E+00 0. -1.
        -14    1    6    6    0    0 -0.56669346095E+02 -0.26830994109E+02 -0.35955397553E+01  0.62803223945E+02  0.00000000000E+00 0.  1.
</event>
<event>
12    1  0.8633375E-002  0.2850120E+03  0.7818608E-02  0.1094003E+00
         21   -1    0    0  501  502  0.00000000000E+00  0.00000000000E+00  0.24745117886E+03  0.24745117886E+03  0.00000000000E+00 0. -1.
         21   -1    0    0  502  503 -0.00000000000E+00 -0.00000000000E+00 -0.21279798292E+04  0.21279798292E+04  0.00000000000E+00 0.  1.
         -6    2    1    2    0  503  0.11510953218E+03  0.18502473351E+03 -0.20332390525E+04  0.20520854901E+04  0.17178317054E+03 0.  0.
        -24    2    3    3    0    0  0.14379978963E+02  0.14704793536E+03 -0.11061415232E+04  0.11187470740E+04  0.78842039630E+02 0.  0.
          6    2    1    2  501    0 -0.11510953218E+03 -0.18502473351E+03  0.15271040208E+03  0.32334551803E+03  0.18370492840E+03 0.  0.
         24    2    5    5    0    0 -0.31803252494E+01 -0.16517327986E+02  0.25471172711E+02  0.84316639919E+02  0.78597573343E+02 0.  0.
          5    1    5    5  501    0 -0.11192920693E+03 -0.16850740552E+03  0.12723922937E+03  0.23902887811E+03  0.47000000000E+01 0. -1.
        -13    1    6    6    0    0 -0.31868751682E+02  0.17067421832E+02  0.98951679220E+01  0.37481042808E+02  0.00000000000E+00 0.  1.
         14    1    6    6    0    0  0.28688426433E+02 -0.33584749818E+02  0.15576004789E+02  0.46835597111E+02  0.00000000000E+00 0. -1.
         -5    1    3    3    0  503  0.10072955321E+03  0.37976798145E+02 -0.92709752931E+03  0.93333841608E+03  0.47000000000E+01 0.  1.
         11    1    4    4    0    0 -0.14919884171E+02  0.37335985972E+02 -0.13141566390E+03  0.13742872884E+03  0.00000000000E+00 0. -1.
        -12    1    4    4    0    0  0.29299863133E+02  0.10971194939E+03 -0.97472585926E+03  0.98131834515E+03  0.00000000000E+00 0.  1.
</event>
<event>
12    1  0.8633375E-002  0.2100439E+03  0.7818608E-02  0.1142399E+00
         21   -1    0    0  501  502  0.00000000000E+00  0.00000000000E+00  0.13164007856E+03  0.13164007856E+03  0.00000000000E+00 0. -1.
         21   -1    0    0  502  503 -0.00000000000E+00 -0.00000000000E+00 -0.51722574468E+03  0.51722574468E+03  0.00000000000E+00 0. -1.
         -6    2    1    2    0  503  0.95568612005E+02 -0.71273833489E+02  0.45750082003E+01  0.20575884946E+03  0.16763786712E+03 0.  0.
        -24    2    3    3    0    0  0.33319929476E+02 -0.10248298222E+03 -0.72868390396E+01  0.13496546799E+03  0.80929600153E+02 0.  0.
          6    2    1    2  501    0 -0.95568612005E+02  0.71273833489E+02 -0.39016067432E+03  0.44310697377E+03  0.17293096738E+03 0.  0.
         24    2    5    5    0    0 -0.11733133517E+03  0.98686242118E+02 -0.34726200988E+03  0.38754222166E+03  0.78054170086E+02 0.  0.
          5    1    5    5  501    0  0.21762723167E+02 -0.27412408629E+02 -0.42898664434E+02  0.55564752107E+02  0.47000000000E+01 0. -1.
        -13    1    6    6    0    0 -0.51798456418E+01 -0.80813743015E+01 -0.64030956686E+02  0.64746450293E+02  0.00000000000E+00 0.  1.
         14    1    6    6    0    0 -0.11215148953E+03  0.10676761642E+03 -0.28323105320E+03  0.32279577137E+03  0.00000000000E+00 0. -1.
         -5    1    3    3    0  503  0.62248682529E+02  0.31209148729E+02  0.11861847240E+02  0.70793381477E+02  0.47000000000E+01 0.  1.
         13    1    4    4    0    0  0.29548497922E+02 -0.92199688883E+02 -0.36729319350E+02  0.10355162606E+03  0.00000000000E+00 0. -1.
        -14    1    4    4    0    0  0.37714315538E+01 -0.10283293336E+02  0.29442480311E+02  0.31413841927E+02  0.00000000000E+00 0.  1.
</event>
<event>
12    1  0.8633375E-002  0.2489484E+03  0.7818608E-02  0.1114249E+00
         21   -1    0    0  503  502  0.00000000000E+00  0.00000000000E+00  0.75420216234E+03  0.75420216234E+03  0.00000000000E+00 0.  1.
         21   -1    0    0  501  503 -0.00000000000E+00 -0.00000000000E+00 -0.26893146286E+03  0.26893146286E+03  0.00000000000E+00 0. -1.
          6    2    1    2  501    0 -0.13340045469E+03  0.11811377993E+03 -0.18406612528E+03  0.30960560640E+03  0.17386416167E+03 0.  0.
         24    2    3    3    0    0 -0.14251424449E+03  0.69315627943E+02 -0.18828402055E+03  0.25956360961E+03  0.82507144411E+02 0.  0.
         -6    2    1    2    0  502  0.13340045469E+03 -0.11811377993E+03  0.66933682476E+03  0.71352801881E+03  0.17135898668E+03 0.  0.
        -24    2    5    5    0    0  0.13144010385E+03 -0.11310391884E+03  0.67728790661E+03  0.70283917481E+03  0.72076347343E+02 0.  0.
          5    1    3    3  501    0  0.91137897977E+01  0.48798151991E+02  0.42178952686E+01  0.50041996790E+02  0.47000000000E+01 0. -1.
        -13    1    4    4    0    0 -0.74426728447E+02  0.61661032194E+02 -0.58972947444E+02  0.11322203553E+03  0.00000000000E+00 0.  1.
         14    1    4    4    0    0 -0.68087516042E+02  0.76545957489E+01 -0.12931107310E+03  0.14634157408E+03  0.00000000000E+00 0. -1.
         -5    1    5    5    0  502  0.19603508376E+01 -0.50098610925E+01 -0.79510818446E+01  0.10688844001E+02  0.47000000000E+01 0.  1.
         11    1    6    6    0    0  0.14888691417E+02 -0.21156350161E+02  0.34448937438E+02  0.43081243886E+02  0.00000000000E+00 0. -1.
        -12    1    6    6    0    0  0.11655141244E+03 -0.91947568681E+02  0.64283896917E+03  0.65975793092E+03  0.00000000000E+00 0.  1.
</event>
<event>
12    1  0.8633375E-002  0.2228383E+03  0.7818608E-02  0.1132343E+00
         21   -1    0    0  501  502  0.00000000000E+00  0.00000000000E+00  0.46581806185E+03  0.46581806185E+03  0.00000000000E+00 0.  1.
         21   -1    0    0  502  503 -0.00000000000E+00 -0.00000000000E+00 -0.10517569509E+03  0.10517569509E+03  0.00000000000E+00 0.  1.
         -6    2    1    2    0  503  0.47217724884E+02 -0.12794530384E+03  0.18512062467E+03  0.28970076712E+03  0.17623102585E+03 0.  0.
        -24    2    3    3    0    0 -0.51182782786E+00 -0.26573519581E+02  0.13155386302E+02  0.84399812290E+02  0.79018037278E+02 0.  0.
          6    2    1    2  501    0 -0.47217724884E+02  0.12794530384E+03  0.17552174209E+03  0.28129298982E+03  0.17239010951E+03 0.  0.
         24    2    5    5    0    0 -0.23465231720E+02  0.11355782056E+03  0.19943132875E+03  0.24434790976E+03  0.80542227483E+02 0.  0.
          5    1    5    5  501    0 -0.23752493164E+02  0.14387483281E+02 -0.23909586658E+02  0.36945080062E+02  0.47000000000E+01 0. -1.
        -13    1    6    6    0    0 -0.35918777602E+02  0.90760430697E+02  0.93100943040E+02  0.13489032567E+03  0.00000000000E+00 0.  1.
         14    1    6    6    0    0  0.12453545882E+02  0.22797389860E+02  0.10633038571E+03  0.10945758409E+03  0.00000000000E+00 0. -1.
         -5    1    3    3    0  503  0.47729552712E+02 -0.10137178426E+03  0.17196523837E+03  0.20530095483E+03  0.47000000000E+01 0.  1.
         11    1    4    4    0    0 -0.26235612506E+02  0.17883487592E+02  0.18331361831E+01  0.31803881528E+02  0.00000000000E+00 0. -1.
        -12    1    4    4    0    0  0.25723784678E+02 -0.44457007174E+02  0.11322250118E+02  0.52595930762E+02  0.00000000000E+00 0.  1.
</event>
<event>
12    1  0.8633375E-002  0.2707082E+03  0.7818608E-02  0.1100931E+00
         21   -1    0    0  503  502  0.00000000000E+00  0.00000000000E+00  0.43091128917E+03  0.43091128917E+03  0.00000000000E+00 0.  1.
         21   -1    0    0  501  503 -0.00000000000E+00 -0.00000000000E+00 -0.23116157327E+03  0.23116157327E+03  0.00000000000E+00 0. -1.
          6    2    1    2  501    0 -0.16573198847E+03  0.12640805649E+03 -0.70711127993E+02  0.27940852732E+03  0.17211325564E+03 0.  0.
         24    2    3    3    0    0 -0.60635367331E+02  0.37591907155E+01 -0.62252627277E+02  0.11760098644E+03  0.79144318322E+02 0.  0.
         -6    2    1    2    0  502  0.16573198847E+03 -0.12640805649E+03  0.27046084389E+03  0.38266433513E+03  0.17273342627E+03 0.  0.
        -24    2    5    5    0    0  0.67460194341E+02 -0.28279132591E+02  0.44488115671E+02  0.11738637689E+03  0.80310534072E+02 0.  0.
          5    1    3    3  501    0 -0.10509662114E+03  0.12264886577E+03 -0.84585007155E+01  0.16180754088E+03  0.47000000000E+01 0. -1.
        -11    1    4    4    0    0  0.40663115177E+01 -0.10700846346E+02 -0.48576738493E+02  0.49907339385E+02  0.00000000000E+00 0.  1.
         12    1    4    4    0    0 -0.64701678848E+02  0.14460037062E+02 -0.13675888784E+02  0.67693647055E+02  0.00000000000E+00 0. -1.
         -5    1    5    5    0  502  0.98271794134E+02 -0.98128923895E+02  0.22597272822E+03  0.26527795824E+03  0.47000000000E+01 0.  1.
         11    1    6    6    0    0  0.53440373114E+02 -0.53600592443E+02  0.17225544174E+02  0.77624843709E+02  0.00000000000E+00 0. -1.
        -12    1    6    6    0    0  0.14019821227E+02  0.25321459852E+02  0.27262571498E+02  0.39761533181E+02  0.00000000000E+00 0.  1.
</event>
<event>
12    1  0.8633375E-002  0.2658043E+03  0.7818608E-02  0.1104478E+00
         21   -1    0    0  501  502  0.00000000000E+00  0.00000000000E+00  0.68858322882E+03  0.68858322882E+03  0.00000000000E+00 0.  1.
         21   -1    0    0  502  503 -0.00000000000E+00 -0.00000000000E+00 -0.11982370985E+03  0.11982370985E+03  0.00000000000E+00 0. -1.
         -6    2    1    2    0  503 -0.18130096130E+03 -0.91684315967E+02  0.12483284201E+03  0.29365825854E+03  0.17139393806E+03 0.  0.
        -24    2    3    3    0    0 -0.14229453896E+03 -0.15073059486E+02  0.32274777201E+02  0.16724674418E+03  0.80342263194E+02 0.  0.
          6    2    1    2  501    0  0.18130096130E+03  0.91684315967E+02  0.44392667696E+03  0.51474868013E+03  0.16315408917E+03 0.  0.
         24    2    5    5    0    0  0.20264593433E+03  0.72852163455E+02  0.41594957146E+03  0.47456079298E+03  0.76296053725E+02 0.  0.
          5    1    5    5  501    0 -0.21344973021E+02  0.18832152512E+02  0.27977105497E+02  0.40187887149E+02  0.47000000000E+01 0. -1.
        -13    1    6    6    0    0  0.13198051402E+03  0.14938296882E+02  0.20009979935E+03  0.24017064453E+03  0.00000000000E+00 0.  1.
         14    1    6    6    0    0  0.70665420309E+02  0.57913866574E+02  0.21584977211E+03  0.23439014845E+03  0.00000000000E+00 0. -1.
         -5    1    3    3    0  503 -0.39006422349E+02 -0.76611256481E+02  0.92558064808E+02  0.12641151437E+03  0.47000000000E+01 0.  1.
         13    1    4    4    0    0 -0.83633567293E+02  0.73463212591E+01  0.55107015337E+02  0.10042571958E+03  0.00000000000E+00 0. -1.
        -14    1    4    4    0    0 -0.58660971662E+02 -0.22419380745E+02 -0.22832238136E+02  0.66821024593E+02  0.00000000000E+00 0.  1.
</event>
<event>
12    1  0.8633375E-002  0.1884709E+03  0.7818608E-02  0.1160506E+00
         21   -1    0    0  501  502  0.00000000000E+00  0.00000000000E+00  0.45164056375E+03  0.45164056375E+03  0.00000000000E+00 0.  1.
         21   -1    0    0  502  503 -0.00000000000E+00 -0.00000000000E+00 -0.19769321291E+03  0.19769321291E+03  0.00000000000E+00 0.  1.
         -6    2    1    2    0  503 -0.55577511077E+02 -0.30382615698E+02 -0.12660157095E+03  0.22467064407E+03  0.17446196567E+03 0.  0.
        -24    2    3    3    0    0  0.24941507796E+02  0.44678385475E+00 -0.64075871660E+02  0.11806240167E+03  0.95972573851E+02 0.  0.
          6    2    1    2  501    0  0.55577511077E+02  0.30382615698E+02  0.38054892179E+03  0.42466313259E+03  0.17750867932E+03 0.  0.
         24    2    5    5    0    0  0.25276329607E+02 -0.32870163133E+02  0.96694115595E+02  0.13223413843E+03  0.80104774593E+02 0.  0.
          5    1    5    5  501    0  0.30301181470E+02  0.63252778831E+02  0.28385480619E+03  0.29242899416E+03  0.47000000000E+01 0. -1.
        -13    1    6    6    0    0  0.38229856184E+02  0.29868707152E+00  0.87455417346E+02  0.95446640281E+02  0.00000000000E+00 0.  1.
         14    1    6    6    0    0 -0.12953526576E+02 -0.33168850204E+02  0.92386982492E+01  0.36787498148E+02  0.00000000000E+00 0. -1.
         -5    1    3    3    0  503 -0.80519018874E+02 -0.30829399553E+02 -0.62525699288E+02  0.10660824240E+03  0.47000000000E+01 0.  1.
         11    1    4    4    0    0  0.49447693367E+02  0.14786317116E+02 -0.41832210831E+01  0.51780390997E+02  0.00000000000E+00 0. -1.
        -12    1    4    4    0    0 -0.24506185571E+02 -0.14339533262E+02 -0.59892650577E+02  0.66282010670E+02  0.00000000000E+00 0.  1.
</event>
<event>
12    1  0.8633375E-002  0.2171643E+03  0.7818608E-02  0.1136191E+00
         21   -1    0    0  503  502  0.00000000000E+00  0.00000000000E+00  0.55542109204E+03  0.55542109204E+03  0.00000000000E+00 0.  1.
         21   -1    0    0  501  503 -0.00000000000E+00 -0.00000000000E+00 -0.96557852217E+02  0.96557852217E+02  0.00000000000E+00 0.  1.
          6    2    1    2  501    0 -0.81171429507E+02 -0.10588694263E+03  0.11488849836E+03  0.24568210180E+03  0.17134608984E+03 0.  0.
         24    2    3    3    0    0 -0.71700716601E+02 -0.16314227322E+02  0.11124511624E+03  0.15541400133E+03  0.79817849808E+02 0.  0.
         -6    2    1    2    0  502  0.81171429507E+02  0.10588694263E+03  0.34397474146E+03  0.40629684245E+03  0.17016949149E+03 0.  0.
        -24    2    5    5    0    0  0.41391370368E+02  0.15774687287E+02  0.67424729883E+02  0.11269052343E+03  0.78682739978E+02 0.  0.
          5    1    3    3  501    0 -0.94707129057E+01 -0.89572715306E+02  0.36433821231E+01  0.90268100476E+02  0.47000000000E+01 0. -1.
        -11    1    4    4    0    0 -0.46491620690E+02 -0.22419415184E+02  0.12211198070E+02  0.53039742928E+02  0.00000000000E+00 0.  1.
         12    1    4    4    0    0 -0.25209095912E+02  0.61051878618E+01  0.99033918167E+02  0.10237425840E+03  0.00000000000E+00 0. -1.
         -5    1    5    5    0  502  0.39780059139E+02  0.90112255341E+02  0.27655001158E+03  0.29360631902E+03  0.47000000000E+01 0.  1.
         11    1    6    6    0    0  0.18613969517E+02 -0.31985600073E+02  0.32835005196E+02  0.49474195692E+02  0.00000000000E+00 0. -1.
        -12    1    6    6    0    0  0.22777400851E+02  0.47760287360E+02  0.34589724688E+02  0.63216327734E+02  0.00000000000E+00 0.  1.
</event>
<event>
12    1  0.8633375E-002  0.2678299E+03  0.7818608E-02  0.1102774E+00
         21   -1    0    0  503  502  0.00000000000E+00  0.00000000000E+00  0.90469263924E+03  0.90469263924E+03  0.00000000000E+00 0.  1.
         21   -1    0    0  501  503 -0.00000000000E+00 -0.00000000000E+00 -0.18438006933E+03  0.18438006933E+03  0.00000000000E+00 0. -1.
          6    2    1    2  501    0  0.12598382623E+03 -0.16123235665E+03 -0.51437092789E+02  0.27272448306E+03  0.17281513777E+03 0.  0.
         24    2    3    3    0    0  0.86288277625E+02 -0.11089466718E+03 -0.10152371735E+03  0.19123595920E+03  0.80751673938E+02 0.  0.
         -6    2    1    2    0  502 -0.12598382623E+03  0.16123235665E+03  0.77174966271E+03  0.81634822551E+03  0.17017369393E+03 0.  0.
        -24    2    5    5    0    0 -0.12893761232E+03  0.13983238105E+03  0.46093475331E+03  0.50474803021E+03  0.78305328895E+02 0.  0.
          5    1    3    3  501    0  0.39695548602E+02 -0.50337689476E+02  0.50086624560E+02  0.81488523857E+02  0.47000000000E+01 0. -1.
        -11    1    4    4    0    0  0.34451034112E+02 -0.23019918705E+02  0.72930117587E+01  0.42071111575E+02  0.00000000000E+00 0.  1.
         12    1    4    4    0    0  0.51837243513E+02 -0.87874748473E+02 -0.10881672911E+03  0.14916484763E+03  0.00000000000E+00 0. -1.
         -5    1    5    5    0  502  0.29537860924E+01  0.21399975605E+02  0.31081490940E+03  0.31160019530E+03  0.47000000000E+01 0.  1.
         11    1    6    6    0    0 -0.40690345487E+01  0.40691212712E+01  0.92885557625E+02  0.93063642769E+02  0.00000000000E+00 0. -1.
        -12    1    6    6    0    0 -0.12486857777E+03  0.13576325978E+03  0.36804919569E+03  0.41168438744E+03  0.00000000000E+00 0.  1.
</event>
<event>
12    1  0.8633375E-002  0.1997714E+03  0.7818608E-02  0.1149959E+00
         21   -1    0    0  503  502  0.00000000000E+00  0.00000000000E+00  0.47757245501E+03  0.47757245501E+03  0.00000000000E+00 0. -1.
         21   -1    0    0  501  503 -0.00000000000E+00 -0.00000000000E+00 -0.83523598956E+02  0.83523598956E+02  0.00000000000E+00 0.  1.
          6    2    1    2  501    0 -0.62258403024E+02 -0.81496068776E+02  0.20036669182E+03  0.28294065074E+03  0.17143769328E+03 0.  0.
         24    2    3    3    0    0 -0.65608235922E+02 -0.14950218971E+02  0.43826355054E+02  0.11274506166E+03  0.79137537638E+02 0.  0.
         -6    2    1    2    0  502  0.62258403024E+02  0.81496068776E+02  0.19368216423E+03  0.27815540322E+03  0.17128902367E+03 0.  0.
        -24    2    5    5    0    0  0.82736159475E+02  0.29574845930E+02  0.18731919427E+03  0.22178405165E+03  0.79873283582E+02 0.  0.
          5    1    3    3  501    0  0.33498328976E+01 -0.66545849805E+02  0.15654033677E+03  0.17019558908E+03  0.47000000000E+01 0. -1.
        -13    1    4    4    0    0 -0.35516776958E+02 -0.45098977822E+02  0.98194930670E+01  0.58239004886E+02  0.00000000000E+00 0.  1.
         14    1    4    4    0    0 -0.30091458964E+02  0.30148758851E+02  0.34006861987E+02  0.54506056774E+02  0.00000000000E+00 0. -1.
         -5    1    5    5    0  502 -0.20477756451E+02  0.51921222846E+02  0.63629699599E+01  0.56371351570E+02  0.47000000000E+01 0.  1.
         13    1    6    6    0    0  0.67473852610E+02  0.10958347623E+02  0.56260363001E+02  0.88532675401E+02  0.00000000000E+00 0. -1.
        -14    1    6    6    0    0  0.15262306864E+02  0.18616498307E+02  0.13105883126E+03  0.13325137625E+03  0.00000000000E+00 0.  1.
</event>
<event>
12    1  0.8633375E-002  0.1884752E+03  0.7818608E-02  0.1160907E+00
         21   -1    0    0  501  502  0.00000000000E+00  0.00000000000E+00  0.50512591828E+02  0.50512591828E+02  0.00000000000E+00 0. -1.
         21   -1    0    0  502  503 -0.00000000000E+00 -0.00000000000E+00 -0.71533625307E+03  0.71533625307E+03  0.00000000000E+00 0. -1.
         -6    2    1    2    0  503  0.63015291990E+02  0.11138419104E+02 -0.40578118429E+03  0.44549603682E+03  0.17237563023E+03 0.  0.
        -24    2    3    3    0    0  0.27073991118E+02  0.50116809271E+02 -0.36832328344E+03  0.38040935351E+03  0.76187528827E+02 0.  0.
          6    2    1    2  501    0 -0.63015291990E+02 -0.11138419104E+02 -0.25904247695E+03  0.32035280808E+03  0.17727922995E+03 0.  0.
         24    2    5    5    0    0 -0.28396051677E+02 -0.37720326000E+02 -0.54396332139E+02  0.11105105423E+03  0.84523469830E+02 0.  0.
          5    1    5    5  501    0 -0.34619240313E+02  0.26581906896E+02 -0.20464614482E+03  0.20930175384E+03  0.47000000000E+01 0. -1.
        -13    1    6    6    0    0 -0.56990377652E+01  0.14823309592E+02  0.14483853225E+02  0.21493988531E+02  0.00000000000E+00 0.  1.
         14    1    6    6    0    0 -0.22697013911E+02 -0.52543635592E+02 -0.68880185364E+02  0.89557065704E+02  0.00000000000E+00 0. -1.
         -5    1    3    3    0  503  0.35941300872E+02 -0.38978390167E+02 -0.37457900850E+02  0.65086683311E+02  0.47000000000E+01 0.  1.
         11    1    4    4    0    0 -0.99291724611E+01  0.34348722461E+01 -0.39903413699E+01  0.11238756041E+02  0.00000000000E+00 0. -1.
        -12    1    4    4    0    0  0.37003163579E+02  0.46681937025E+02 -0.36433294207E+03  0.36917059747E+03  0.00000000000E+00 0.  1.
</event>
<event>
12    1  0.8633375E-002  0.1967993E+03  0.7818608E-02  0.1152517E+00
         21   -1    0    0  501  502  0.00000000000E+00  0.00000000000E+00  0.57891951942E+03  0.57891951942E+03  0.00000000000E+00 0.  1.
         21   -1    0    0  502  503 -0.00000000000E+00 -0.00000000000E+00 -0.12193111562E+03  0.12193111562E+03  0.00000000000E+00 0.  1.
         -6    2    1    2    0  503  0.77746204565E+02  0.43947902176E+02 -0.70169482969E+01  0.19692437331E+03  0.17536841452E+03 0.  0.
        -24    2    3    3    0    0 -0.44953338177E+01 -0.87038607409E+01  0.43963892796E+02  0.86665519096E+02  0.74041360822E+02 0.  0.
          6    2    1    2  501    0 -0.77746204565E+02 -0.43947902176E+02  0.46400535210E+03  0.50392626173E+03  0.17511373462E+03 0.  0.
         24    2    5    5    0    0  0.17758052346E+01 -0.59056981250E+02  0.35200346982E+03  0.36565643151E+03  0.79418528215E+02 0.  0.
          5    1    5    5  501    0 -0.79522009800E+02  0.15109079074E+02  0.11200188228E+03  0.13826983022E+03  0.47000000000E+01 0. -1.
        -11    1    6    6    0    0 -0.12151416522E+02 -0.71966369048E+02  0.20856683745E+03  0.22096818975E+03  0.00000000000E+00 0.  1.
         12    1    6    6    0    0  0.13927221757E+02  0.12909387798E+02  0.14343663237E+03  0.14468824176E+03  0.00000000000E+00 0. -1.
         -5    1    3    3    0  503  0.82241538383E+02  0.52651762917E+02 -0.50980841093E+02  0.11025885421E+03  0.47000000000E+01 0.  1.
         13    1    4    4    0    0  0.15723628724E+02  0.18254996973E+02  0.47015366456E+02  0.52829178469E+02  0.00000000000E+00 0. -1.
        -14    1    4    4    0    0 -0.20218962542E+02 -0.26958857714E+02 -0.30514736596E+01  0.33836340627E+02  0.00000000000E+00 0.  1.
</event>
<event>
12    1  0.8633375E-002  0.1999730E+03  0.7818608E-02  0.1151617E+00
         21   -1    0    0  503  502  0.00000000000E+00  0.00000000000E+00  0.10858069854E+03  0.10858069854E+03  0.00000000000E+00 0.  1.
         21   -1    0    0  501  503 -0.00000000000E+00 -0.00000000000E+00 -0.50124749817E+03  0.50124749817E+03  0.00000000000E+00 0.  1.
          6    2    1    2  501    0 -0.16660600928E+02  0.96929708841E+02 -0.35929733064E+03  0.40709010868E+03  0.16417929437E+03 0.  0.
         24    2    3    3    0    0 -0.55517892929E+02  0.30819271545E+02 -0.27052050828E+03  0.28968528233E+03  0.81878895111E+02 0.  0.
         -6    2    1    2    0  502  0.16660600928E+02 -0.96929708841E+02 -0.33369468991E+02  0.20273808803E+03  0.17411567075E+03 0.  0.
        -24    2    5    5    0    0 -0.30798451736E+02 -0.11217269224E+03 -0.48857466774E+02  0.15032932638E+03  0.81734917858E+02 0.  0.
          5    1    3    3  501    0  0.38857292001E+02  0.66110437297E+02 -0.88776822355E+02  0.11740482634E+03  0.47000000000E+01 0. -1.
        -11    1    4    4    0    0 -0.52383660032E+02  0.53825527512E+02 -0.23908201194E+03  0.25060216217E+03  0.00000000000E+00 0.  1.
         12    1    4    4    0    0 -0.31342328967E+01 -0.23006255967E+02 -0.31438496345E+02  0.39083120166E+02  0.00000000000E+00 0. -1.
         -5    1    5    5    0  502  0.47459052663E+02  0.15242983397E+02  0.15487997783E+02  0.52408761652E+02  0.47000000000E+01 0.  1.
         11    1    6    6    0    0 -0.54001382329E+02 -0.43736734955E+02 -0.29689187279E+02  0.75567844479E+02  0.00000000000E+00 0. -1.
        -12    1    6    6    0    0  0.23202930593E+02 -0.68435957283E+02 -0.19168279496E+02  0.74761481902E+02  0.00000000000E+00 0.  1.
</event>
<event>
12    1  0.8633375E-002  0.2091731E+03  0.7818608E-02  0.1142360E+00
         21   -1    0    0  503  502  0.00000000000E+00  0.00000000000E+00  0.16012815098E+04  0.16012815098E+04  0.00000000000E+00 0.  1.
         21   -1    0    0  501  503 -0.00000000000E+00 -0.00000000000E+00 -0.27955950898E+02  0.27955950898E+02  0.00000000000E+00 0. -1.
          6    2    1    2  501    0  0.11062755835E+03  0.39650477582E+02  0.65448884502E+03  0.68689236824E+03  0.17220586592E+03 0.  0.
         24    2    3    3    0    0  0.11756398725E+03  0.65552148481E+02  0.63368421434E+03  0.65262965879E+03  0.79065876073E+02 0.  0.
         -6    2    1    2    0  502 -0.11062755835E+03 -0.39650477582E+02  0.91883671393E+03  0.94234509250E+03  0.17303973376E+03 0.  0.
        -24    2    5    5    0    0 -0.57674486488E+02 -0.73927032911E+02  0.77906672651E+03  0.78892850458E+03  0.81680281634E+02 0.  0.
          5    1    3    3  501    0 -0.69364289077E+01 -0.25901670899E+02  0.20804630683E+02  0.34262709455E+02  0.47000000000E+01 0. -1.
        -13    1    4    4    0    0  0.39085723507E+02  0.22328533160E+02  0.80444875257E+02  0.92182618374E+02  0.00000000000E+00 0.  1.
         14    1    4    4    0    0  0.78478263746E+02  0.43223615321E+02  0.55323933908E+03  0.56044704041E+03  0.00000000000E+00 0. -1.
         -5    1    5    5    0  502 -0.52953071858E+02  0.34276555329E+02  0.13976998742E+03  0.15341658791E+03  0.47000000000E+01 0.  1.
         13    1    6    6    0    0 -0.35517150531E+02  0.77169707229E+00  0.11649996875E+03  0.12179616668E+03  0.00000000000E+00 0. -1.
        -14    1    6    6    0    0 -0.22157335956E+02 -0.74698729984E+02  0.66256675776E+03  0.66713233791E+03  0.00000000000E+00 0.  1.
</event>
<event>
12    1  0.8633375E-002  0.1961171E+03  0.7818608E-02  0.1153452E+00
         21   -1    0    0  503  502  0.00000000000E+00  0.00000000000E+00  0.35105719538E+03  0.35105719538E+03  0.00000000000E+00 0. -1.
         21   -1    0    0  501  503 -0.00000000000E+00 -0.00000000000E+00 -0.11092651066E+03  0.11092651066E+03  0.00000000000E+00 0. -1.
          6    2    1    2  501    0  0.10226157958E+02 -0.89613495123E+02  0.85695828177E+02  0.21235992569E+03  0.17209825756E+03 0.  0.
         24    2    3    3    0    0  0.15150505360E+02 -0.61196185094E+02  0.12574999769E+03  0.16277949405E+03  0.81912092399E+02 0.  0.
         -6    2    1    2    0  502 -0.10226157958E+02  0.89613495123E+02  0.15443485654E+03  0.24962378036E+03  0.17414578373E+03 0.  0.
        -24    2    5    5    0    0  0.52177105943E+02  0.73279155195E+02  0.13779269313E+03  0.18284032725E+03  0.79696135529E+02 0.  0.
          5    1    3    3  501    0 -0.49243474024E+01 -0.28417310029E+02 -0.40054169510E+02  0.49580431641E+02  0.47000000000E+01 0. -1.
        -13    1    4    4    0    0  0.48991601969E+02 -0.35027201423E+02  0.66763185204E+02  0.89913318266E+02  0.00000000000E+00 0.  1.
         14    1    4    4    0    0 -0.33841096609E+02 -0.26168983671E+02  0.58986812483E+02  0.72866175781E+02  0.00000000000E+00 0. -1.
         -5    1    5    5    0  502 -0.62403263900E+02  0.16334339927E+02  0.16642163412E+02  0.66783453110E+02  0.47000000000E+01 0.  1.
         13    1    6    6    0    0  0.52328412020E+02  0.49161664858E+02  0.40149134320E+02  0.82262293809E+02  0.00000000000E+00 0. -1.
        -14    1    6    6    0    0 -0.15130607722E+00  0.24117490338E+02  0.97643558811E+02  0.10057803344E+03  0.00000000000E+00 0.  1.
</event>
<event>
12    1  0.8633375E-002  0.1761926E+03  0.7818608E-02  0.1171625E+00
         21   -1    0    0  501  502  0.00000000000E+00  0.00000000000E+00  0.93569041898E+02  0.93569041898E+02  0.00000000000E+00 0.  1.
         21   -1    0    0  502  503 -0.00000000000E+00 -0.00000000000E+00 -0.64675673335E+03  0.64675673335E+03  0.00000000000E+00 0.  1.
         -6    2    1    2    0  503 -0.62831520586E+01 -0.30015023407E+02 -0.53531881378E+03  0.56356902806E+03  0.17350342178E+03 0.  0.
        -24    2    3    3    0    0 -0.15783570982E+02 -0.33111651463E+01 -0.52767401254E+03  0.53383879106E+03  0.79271094399E+02 0.  0.
          6    2    1    2  501    0  0.62831520586E+01  0.30015023407E+02 -0.17868877667E+02  0.17675674719E+03  0.17315678230E+03 0.  0.
         24    2    5    5    0    0  0.67699615487E+02  0.30755720477E+02 -0.33937323048E+02  0.11309501968E+03  0.78163861862E+02 0.  0.
          5    1    5    5  501    0 -0.61416463428E+02 -0.74069706929E+00  0.16068445381E+02  0.63661727507E+02  0.47000000000E+01 0. -1.
        -11    1    6    6    0    0  0.32842519648E+02  0.36154720346E+02  0.16492389916E+02  0.51553795450E+02  0.00000000000E+00 0.  1.
         12    1    6    6    0    0  0.34857095839E+02 -0.53989998692E+01 -0.50429712964E+02  0.61541224229E+02  0.00000000000E+00 0. -1.
         -5    1    3    3    0  503  0.95004189236E+01 -0.26703858261E+02 -0.76448012409E+01  0.29730236995E+02  0.47000000000E+01 0.  1.
         13    1    4    4    0    0 -0.23305623894E+02 -0.36874126390E+02 -0.22275781279E+03  0.22698875845E+03  0.00000000000E+00 0. -1.
        -14    1    4    4    0    0  0.75220529121E+01  0.33562961244E+02 -0.30491619975E+03  0.30685003262E+03  0.00000000000E+00 0.  1.
</event>
<event>
12    1  0.8633375E-002  0.1787249E+03  0.7818608E-02  0.1169914E+00
         21   -1    0    0  503  502  0.00000000000E+00  0.00000000000E+00  0.12413206843E+04  0.12413206843E+04  0.00000000000E+00 0. -1.
         21   -1    0    0  501  503 -0.00000000000E+00 -0.00000000000E+00 -0.48437804464E+02  0.48437804464E+02  0.00000000000E+00 0.  1.
          6    2    1    2  501    0 -0.22859612244E+02  0.26035612650E+02  0.15314519430E+03  0.23536363330E+03  0.17533446422E+03 0.  0.
         24    2    3    3    0    0 -0.19750568427E+02  0.73576495964E+02  0.15920905763E+03  0.18710741942E+03  0.62113417717E+02 0.  0.
         -6    2    1    2    0  502  0.22859612244E+02 -0.26035612650E+02  0.10397376856E+04  0.10543948555E+04  0.17173712910E+03 0.  0.
        -24    2    5    5    0    0  0.37879672188E+02 -0.68262930455E+02  0.91216038339E+03  0.91909220733E+03  0.81235603734E+02 0.  0.
          5    1    3    3  501    0 -0.31090438170E+01 -0.47540883314E+02 -0.60638633216E+01  0.48256213881E+02  0.47000000000E+01 0. -1.
        -13    1    4    4    0    0 -0.59957769619E+01 -0.10278308374E+02  0.10683908955E+02  0.15991837761E+02  0.00000000000E+00 0.  1.
         14    1    4    4    0    0 -0.13754791465E+02  0.83854804339E+02  0.14852514867E+03  0.17111558166E+03  0.00000000000E+00 0. -1.
         -5    1    5    5    0  502 -0.15020059943E+02  0.42227317805E+02  0.12757730218E+03  0.13530264817E+03  0.47000000000E+01 0.  1.
         11    1    6    6    0    0 -0.45706151205E+01  0.16589030842E+02  0.17707872388E+03  0.17791279021E+03  0.00000000000E+00 0. -1.
        -12    1    6    6    0    0  0.42450287308E+02 -0.84851961297E+02  0.73508165951E+03  0.74117941713E+03  0.00000000000E+00 0.  1.
</event>
<event>
12    1  0.8633375E-002  0.1798452E+03  0.7818608E-02  0.1168250E+00
         21   -1    0    0  503  502  0.00000000000E+00  0.00000000000E+00  0.55982332906E+02  0.55982332906E+02  0.00000000000E+00 0. -1.
         21   -1    0    0  501  503 -0.00000000000E+00 -0.00000000000E+00 -0.65580232449E+03  0.65580232449E+03  0.00000000000E+00 0. -1.
          6    2    1    2  501    0 -0.36940544176E+00  0.50938745774E+02 -0.17498854805E+03  0.25092886020E+03  0.17248016887E+03 0.  0.
         24    2    3    3    0    0 -0.69005651744E+01 -0.21263328144E+02 -0.36301878767E+02  0.94366164258E+02  0.84186695096E+02 0.  0.
         -6    2    1    2    0  502  0.36940544176E+00 -0.50938745774E+02 -0.42483144354E+03  0.46085579719E+03  0.17120577709E+03 0.  0.
        -24    2    5    5    0    0  0.23288723346E+02 -0.97023203437E+02 -0.30045893940E+03  0.32617215990E+03  0.78465514614E+02 0.  0.
          5    1    3    3  501    0  0.65311597326E+01  0.72202073918E+02 -0.13868666928E+03  0.15656269594E+03  0.47000000000E+01 0. -1.
        -13    1    4    4    0    0  0.18146422101E+01 -0.11258168676E+02 -0.63281240243E+02  0.64300502759E+02  0.00000000000E+00 0.  1.
         14    1    4    4    0    0 -0.87152073845E+01 -0.10005159468E+02  0.26979361476E+02  0.30065661499E+02  0.00000000000E+00 0. -1.
         -5    1    5    5    0  502 -0.22919317904E+02  0.46084457663E+02 -0.12437250413E+03  0.13468363730E+03  0.47000000000E+01 0.  1.
         11    1    6    6    0    0  0.29375413507E+02 -0.21876177203E+02 -0.18278035632E+03  0.18641389622E+03  0.00000000000E+00 0. -1.
        -12    1    6    6    0    0 -0.60866901610E+01 -0.75147026234E+02 -0.11767858308E+03  0.13975826367E+03  0.00000000000E+00 0.  1.
</event>
<event>
12    1  0.8633375E-002  0.3370750E+03  0.7818608E-02  0.1068227E+00
         21   -1    0    0  503  502  0.00000000000E+00  0.00000000000E+00  0.16609787530E+03  0.16609787530E+03  0.00000000000E+00 0. -1.
         21   -1    0    0  501  503 -0.00000000000E+00 -0.00000000000E+00 -0.19770979272E+04  0.19770979272E+04  0.00000000000E+00 0.  1.
          6    2    1    2  501    0  0.23154477213E+03 -0.17329817446E+03 -0.38532561175E+02  0.33927026631E+03  0.17313092318E+03 0.  0.
         24    2    3    3    0    0  0.44315783661E+02 -0.29708426054E+02  0.13734779179E+02  0.97554162510E+02  0.80508951079E+02 0.  0.
         -6    2    1    2    0  502 -0.23154477213E+03  0.17329817446E+03 -0.17724674907E+04  0.18039255362E+04  0.16988553702E+03 0.  0.
        -24    2    5    5    0    0 -0.14036593587E+03  0.68299399442E+02 -0.66276083874E+03  0.68552969107E+03  0.79571502765E+02 0.  0.
          5    1    3    3  501    0  0.18722898847E+03 -0.14358974840E+03 -0.52267340354E+02  0.24171610380E+03  0.47000000000E+01 0. -1.
        -11    1    4    4    0    0  0.41365592529E+02  0.13830248564E+02 -0.14047143261E+02  0.45822595457E+02  0.00000000000E+00 0.  1.
         12    1    4    4    0    0  0.29501911320E+01 -0.43538674618E+02  0.27781922440E+02  0.51731567053E+02  0.00000000000E+00 0. -1.
         -5    1    5    5    0  502 -0.91178836253E+02  0.10499877502E+03 -0.11097066520E+04  0.11183958451E+04  0.47000000000E+01 0.  1.
         11    1    6    6    0    0 -0.94040188195E+01  0.31409728878E+02 -0.69198348332E+02  0.76572959001E+02  0.00000000000E+00 0. -1.
        -12    1    6    6    0    0 -0.13096191705E+03  0.36889670564E+02 -0.59356249041E+03  0.60895673207E+03  0.00000000000E+00 0.  1.
</event>
<event>
12    1  0.8633375E-002  0.1893326E+03  0.7818608E-02  0.1161412E+00
         21   -1    0    0  503  502  0.00000000000E+00  0.00000000000E+00  0.74549290624E+03  0.74549290624E+03  0.00000000000E+00 0.  1.
         21   -1    0    0  501  503 -0.00000000000E+00 -0.00000000000E+00 -0.77729723792E+02  0.77729723792E+02  0.00000000000E+00 0.  1.
          6    2    1    2  501    0 -0.13483336251E+02 -0.68821360458E+02  0.74495433616E+02  0.20346108043E+03  0.17586546451E+03 0.  0.
         24    2    3    3    0    0  0.38630035914E+02 -0.93317776317E+02  0.32844612770E+02  0.13223777788E+03  0.78788160662E+02 0.  0.
         -6    2    1    2    0  502  0.13483336251E+02  0.68821360458E+02  0.59326774884E+03  0.61976154961E+03  0.16498356448E+03 0.  0.
        -24    2    5    5    0    0  0.53827708910E+02 -0.35489112691E+01  0.30766506195E+03  0.32234583147E+03  0.79618011191E+02 0.  0.
          5    1    3    3  501    0 -0.52113372165E+02  0.24496415859E+02  0.41650820846E+02  0.71223302546E+02  0.47000000000E+01 0. -1.
        -11    1    4    4    0    0 -0.10830703867E+02 -0.37545154579E+02 -0.16947430652E+02  0.42592935851E+02  0.00000000000E+00 0.  1.
         12    1    4    4    0    0  0.49460739781E+02 -0.55772621738E+02  0.49792043422E+02  0.89644842034E+02  0.00000000000E+00 0. -1.
         -5    1    5    5    0  502 -0.40344372659E+02  0.72370271727E+02  0.28560268689E+03  0.29741571813E+03  0.47000000000E+01 0.  1.
         11    1    6    6    0    0 -0.10638762688E+02  0.19036272567E+02  0.34862306193E+02  0.41121081429E+02  0.00000000000E+00 0. -1.
        -12    1    6    6    0    0  0.64466471599E+02 -0.22585183836E+02  0.27280275576E+03  0.28122475004E+03  0.00000000000E+00 0.  1.
</event>
<event>
12    1  0.8633375E-002  0.1962623E+03  0.7818608E-02  0.1152969E+00
         21   -1    0    0  503  502  0.00000000000E+00  0.00000000000E+00  0.21050153605E+03  0.21050153605E+03  0.00000000000E+00 0. -1.
         21   -1    0    0  501  503 -0.00000000000E+00 -0.00000000000E+00 -0.23136089799E+03  0.23136089799E+03  0.00000000000E+00 0. -1.
          6    2    1    2  501    0  0.76831916513E+02 -0.53119993423E+02 -0.11162485990E+03  0.22578530278E+03  0.17260943343E+03 0.  0.
         24    2    3    3    0    0  0.48632199894E+02 -0.53528890855E+02 -0.10223027376E+01  0.11154692541E+03  0.84919011084E+02 0.  0.
         -6    2    1    2    0  502 -0.76831916513E+02  0.53119993423E+02  0.90765497958E+02  0.21607713126E+03  0.17241251097E+03 0.  0.
        -24    2    5    5    0    0 -0.88198079928E+02  0.30270337309E+02  0.78719276178E+00  0.12243161956E+03  0.79332762291E+02 0.  0.
          5    1    3    3  501    0  0.28199716620E+02  0.40889743146E+00 -0.11060255716E+03  0.11423837737E+03  0.47000000000E+01 0. -1.
        -13    1    4    4    0    0 -0.11608576697E+02 -0.22880889750E+02 -0.28712487790E+02  0.38505858305E+02  0.00000000000E+00 0.  1.
         14    1    4    4    0    0  0.60240776591E+02 -0.30648001104E+02  0.27690185053E+02  0.73041067108E+02  0.00000000000E+00 0. -1.
         -5    1    5    5    0  502  0.11366163414E+02  0.22849656115E+02  0.89978305196E+02  0.93645511698E+02  0.47000000000E+01 0.  1.
         11    1    6    6    0    0 -0.37759538468E+02  0.54171029324E+02 -0.55140984298E+01  0.66262270145E+02  0.00000000000E+00 0. -1.
        -12    1    6    6    0    0 -0.50438541460E+02 -0.23900692015E+02  0.63012911916E+01  0.56169349418E+02  0.00000000000E+00 0.  1.
</event>
<event>
12    1  0.8633375E-002  0.1868402E+03  0.7818608E-02  0.1161503E+00
         21   -1    0    0  501  502  0.00000000000E+00  0.00000000000E+00  0.30827817826E+03  0.30827817826E+03  0.00000000000E+00 0. -1.
         21   -1    0    0  502  503 -0.00000000000E+00 -0.00000000000E+00 -0.11382220251E+03  0.11382220251E+03  0.00000000000E+00 0. -1.
         -6    2    1    2    0  503  0.64100576937E+02  0.31697508573E+02  0.77596174348E+02  0.20231269790E+03  0.17261415192E+03 0.  0.
        -24    2    3    3    0    0  0.38627540747E+02 -0.43676187213E+02  0.12924462043E+02  0.99674547284E+02  0.79801487602E+02 0.  0.
          6    2    1    2  501    0 -0.64100576937E+02 -0.31697508573E+02  0.11685980140E+03  0.21978768287E+03  0.17186272530E+03 0.  0.
         24    2    5    5    0    0 -0.67608198735E+02 -0.77316893284E+02  0.57266292081E+02  0.14450881449E+03  0.83991658717E+02 0.  0.
          5    1    5    5  501    0  0.35076217978E+01  0.45619384711E+02  0.59593509318E+02  0.75278868382E+02  0.47000000000E+01 0. -1.
        -11    1    6    6    0    0 -0.38244104122E+02 -0.80566397076E+02  0.68961018282E+02  0.11273498960E+03  0.00000000000E+00 0.  1.
         12    1    6    6    0    0 -0.29364094614E+02  0.32495037912E+01 -0.11694726201E+02  0.31773824892E+02  0.00000000000E+00 0. -1.
         -5    1    3    3    0  503  0.25473036190E+02  0.75373695787E+02  0.64671712304E+02  0.10263815062E+03  0.47000000000E+01 0.  1.
         13    1    4    4    0    0  0.10745751556E+02 -0.37779814136E+02  0.43001665355E+02  0.58240267478E+02  0.00000000000E+00 0. -1.
        -14    1    4    4    0    0  0.27881789191E+02 -0.58963730777E+01 -0.30077203312E+02  0.41434279806E+02  0.00000000000E+00 0.  1.
</event>
<event>
12    1  0.8633375E-002  0.2000784E+03  0.7818608E-02  0.1150152E+00
         21   -1    0    0  501  502  0.00000000000E+00  0.00000000000E+00  0.12029736366E+03  0.12029736366E+03  0.00000000000E+00 0. -1.
         21   -1    0    0  502  503 -0.00000000000E+00 -0.00000000000E+00 -0.51562867619E+03  0.51562867619E+03  0.00000000000E+00 0. -1.
         -6    2    1    2    0  503 -0.62933990141E+02  0.82291471642E+02 -0.38966084660E+03  0.43802620335E+03  0.17116894002E+03 0.  0.
        -24    2    3    3    0    0 -0.10729230777E+03  0.75783446022E+02 -0.30950632802E+03  0.34606506162E+03  0.81927344590E+02 0.  0.
          6    2    1    2  501    0  0.62933990141E+02 -0.82291471642E+02 -0.56704659268E+01  0.19789983650E+03  0.16852186114E+03 0.  0.
         24    2    5    5    0    0  0.63307611910E+02  0.10845964590E+02 -0.15691346500E+02  0.10410628838E+03  0.80414005320E+02 0.  0.
          5    1    5    5  501    0 -0.37362176966E+00 -0.93137436232E+02  0.10020880573E+02  0.93793548118E+02  0.47000000000E+01 0. -1.
        -13    1    6    6    0    0  0.65497309648E+02  0.29848152239E+02  0.93636827540E+01  0.72584353120E+02  0.00000000000E+00 0.  1.
         14    1    6    6    0    0 -0.21896977373E+01 -0.19002187649E+02 -0.25055029254E+02  0.31521935260E+02  0.00000000000E+00 0. -1.
         -5    1    3    3    0  503  0.44358317625E+02  0.65080256197E+01 -0.80154518582E+02  0.91961141734E+02  0.47000000000E+01 0.  1.
         11    1    4    4    0    0 -0.89798789840E+02  0.70412462399E+02 -0.30709033476E+03  0.32760679361E+03  0.00000000000E+00 0. -1.
        -12    1    4    4    0    0 -0.17493517925E+02  0.53709836231E+01 -0.24159932644E+01  0.18458268010E+02  0.00000000000E+00 0.  1.
</event>
<event>
12    1  0.8633375E-002  0.2241299E+03  0.7818608E-02  0.1131082E+00
         21   -1    0    0  501  502  0.00000000000E+00  0.00000000000E+00  0.12699370462E+04  0.12699370462E+04  0.00000000000E+00 0.  1.
         21   -1    0    0  502  503 -0.00000000000E+00 -0.00000000000E+00 -0.39331784333E+02  0.39331784333E+02  0.00000000000E+00 0.  1.
         -6    2    1    2    0  503  0.95247606372E+01  0.14080777960E+03  0.62628946084E+03  0.66518622377E+03  0.17411683342E+03 0.  0.
        -24    2    3    3    0    0 -0.44512890901E+02  0.18995892482E+02  0.31104866252E+03  0.32290409664E+03  0.71927350754E+02 0.  0.
          6    2    1    2  501    0 -0.95247606372E+01 -0.14080777960E+03  0.60431580104E+03  0.64408260677E+03  0.17241596532E+03 0.  0.
         24    2    5    5    0    0 -0.64408274187E+02 -0.48796104580E+02  0.34898321967E+03  0.36714368659E+03  0.80471817352E+02 0.  0.
          5    1    5    5  501    0  0.54883513550E+02 -0.92011675023E+02  0.25533258137E+03  0.27693892018E+03  0.47000000000E+01 0. -1.
        -13    1    6    6    0    0 -0.26646303694E+02 -0.42818136089E+02  0.74218763554E+02  0.89732063067E+02  0.00000000000E+00 0.  1.
         14    1    6    6    0    0 -0.37761970493E+02 -0.59779684903E+01  0.27476445611E+03  0.27741162352E+03  0.00000000000E+00 0. -1.
         -5    1    3    3    0  503  0.54037651538E+02  0.12181188712E+03  0.31524079832E+03  0.34228212713E+03  0.47000000000E+01 0.  1.
         13    1    4    4    0    0 -0.15975655475E+02  0.38779961339E+02  0.91861181737E+02  0.10098308611E+03  0.00000000000E+00 0. -1.
        -14    1    4    4    0    0 -0.28537235426E+02 -0.19784068857E+02  0.21918748078E+03  0.22192101054E+03  0.00000000000E+00 0.  1.
</event>
<event>
12    1  0.8633375E-002  0.2077343E+03  0.7818608E-02  0.1143386E+00
         21   -1    0    0  501  502  0.00000000000E+00  0.00000000000E+00  0.47677091348E+03  0.47677091348E+03  0.00000000000E+00 0.  1.
         21   -1    0    0  502  503 -0.00000000000E+00 -0.00000000000E+00 -0.17749764616E+03  0.17749764616E+03  0.00000000000E+00 0.  1.
         -6    2    1    2    0  503  0.10566893270E+03 -0.49778642524E+02 -0.79422938391E+02  0.22233758143E+03  0.17170369939E+03 0.  0.
        -24    2    3    3    0    0  0.48802298090E+02 -0.33622182897E+02  0.26125906876E+02  0.10126944336E+03  0.77851279158E+02 0.  0.
          6    2    1    2  501    0 -0.10566893270E+03  0.49778642524E+02  0.37869620571E+03  0.43193097821E+03  0.17178392569E+03 0.  0.
         24    2    5    5    0    0 -0.54772978570E+02 -0.32684752832E+02  0.13291202189E+03  0.16769138100E+03  0.79915088984E+02 0.  0.
          5    1    5    5  501    0 -0.50895954132E+02  0.82463395356E+02  0.24578418382E+03  0.26423959721E+03  0.47000000000E+01 0. -1.
        -11    1    6    6    0    0 -0.59643951792E+02 -0.24250420823E+02  0.14101706448E+03  0.15502030954E+03  0.00000000000E+00 0.  1.
         12    1    6    6    0    0  0.48709732215E+01 -0.84343320091E+01 -0.81050425851E+01  0.12671071457E+02  0.00000000000E+00 0. -1.
         -5    1    3    3    0  503  0.56866634612E+02 -0.16156459627E+02 -0.10554884527E+03  0.12106813807E+03  0.47000000000E+01 0.  1.
         11    1    4    4    0    0  0.14818129950E+02  0.16192038128E+02  0.33985441436E+02  0.40457005618E+02  0.00000000000E+00 0. -1.
        -12    1    4    4    0    0  0.33984168140E+02 -0.49814221025E+02 -0.78595345609E+01  0.60812437741E+02  0.00000000000E+00 0.  1.
</event>
<event>
12    1  0.8633375E-002  0.3128211E+03  0.7818608E-02  0.1079079E+00
         21   -1    0    0  501  502  0.00000000000E+00  0.00000000000E+00  0.88654155101E+03  0.88654155101E+03  0.00000000000E+00 0. -1.
         21   -1    0    0  502  503 -0.00000000000E+00 -0.00000000000E+00 -0.12624543002E+03  0.12624543002E+03  0.00000000000E+00 0.  1.
         -6    2    1    2    0  503 -0.16775748659E+03  0.19996414946E+03  0.19968363814E+03  0.37112074895E+03  0.17242047323E+03 0.  0.
        -24    2    3    3    0    0 -0.12960194790E+03  0.19961166674E+03  0.11245460707E+03  0.27579518450E+03  0.82313199111E+02 0.  0.
          6    2    1    2  501    0  0.16775748659E+03 -0.19996414946E+03  0.56061248285E+03  0.64166623207E+03  0.17123364765E+03 0.  0.
         24    2    5    5    0    0  0.14363038105E+03 -0.90974797569E+02  0.25907387508E+03  0.32009443912E+03  0.80218932026E+02 0.  0.
          5    1    5    5  501    0  0.24127105531E+02 -0.10898935189E+03  0.30153860777E+03  0.32157179295E+03  0.47000000000E+01 0. -1.
        -13    1    6    6    0    0  0.50790922704E+02 -0.79424983542E+02  0.12341276384E+03  0.15530214460E+03  0.00000000000E+00 0.  1.
         14    1    6    6    0    0  0.92839458351E+02 -0.11549814027E+02  0.13566111124E+03  0.16479229452E+03  0.00000000000E+00 0. -1.
         -5    1    3    3    0  503 -0.38155538686E+02  0.35248272008E+00  0.87229031069E+02  0.95325564451E+02  0.47000000000E+01 0.  1.
         13    1    4    4    0    0 -0.73639963895E+02  0.86241616127E+02  0.95450323882E+02  0.14822693738E+03  0.00000000000E+00 0. -1.
        -14    1    4    4    0    0 -0.55961984005E+02  0.11337005061E+03  0.17004283190E+02  0.12756824713E+03  0.00000000000E+00 0.  1.
</event>
<event>
12    1  0.8633375E-002  0.2735058E+03  0.7818608E-02  0.1100816E+00
         21   -1    0    0  501  502  0.00000000000E+00  0.00000000000E+00  0.12565903808E+03  0.12565903808E+03  0.00000000000E+00 0.  1.
         21   -1    0    0  502  503 -0.00000000000E+00 -0.00000000000E+00 -0.61125534597E+03  0.61125534597E+03  0.00000000000E+00 0. -1.
         -6    2    1    2    0  503  0.19811078106E+03 -0.18407180577E+02 -0.34016816901E+03  0.43648572896E+03  0.18766646614E+03 0.  0.
        -24    2    3    3    0    0  0.12704511978E+03 -0.19774577399E+02 -0.33193249432E+03  0.36477719164E+03  0.79697693738E+02 0.  0.
          6    2    1    2  501    0 -0.19811078106E+03  0.18407180577E+02 -0.14542813888E+03  0.30042865509E+03  0.17181771547E+03 0.  0.
         24    2    5    5    0    0 -0.66456644069E+02  0.23102405360E+02 -0.12889441742E+03  0.16757418257E+03  0.80728738046E+02 0.  0.
          5    1    5    5  501    0 -0.13165413699E+03 -0.46952247832E+01 -0.16533721456E+02  0.13285447252E+03  0.47000000000E+01 0. -1.
        -13    1    6    6    0    0 -0.26648482272E+02 -0.28832992513E+02 -0.31986517163E+02  0.50642080771E+02  0.00000000000E+00 0.  1.
         14    1    6    6    0    0 -0.39808161797E+02  0.51935397873E+02 -0.96907900262E+02  0.11693210180E+03  0.00000000000E+00 0. -1.
         -5    1    3    3    0  503  0.71065661282E+02  0.13673968219E+01 -0.82356746925E+01  0.71708537324E+02  0.47000000000E+01 0.  1.
         13    1    4    4    0    0  0.10772334371E+03 -0.38548390824E+02 -0.20264730390E+03  0.23271490497E+03  0.00000000000E+00 0. -1.
        -14    1    4    4    0    0  0.19321776070E+02  0.18773813425E+02 -0.12928519041E+03  0.13206228667E+03  0.00000000000E+00 0.  1.
</event>
<event>
12    1  0.8633375E-002  0.2341621E+03  0.7818608E-02  0.1123799E+00
         21   -1    0    0  503  502  0.00000000000E+00  0.00000000000E+00  0.31082107128E+03  0.31082107128E+03  0.00000000000E+00 0.  1.
         21   -1    0    0  501  503 -0.00000000000E+00 -0.00000000000E+00 -0.64509792398E+03  0.64509792398E+03  0.00000000000E+00 0. -1.
          6    2    1    2  501    0  0.15684805946E+03 -0.26035847810E+02 -0.57461100033E+03  0.62037107217E+03  0.17147386492E+03 0.  0.
         24    2    3    3    0    0 -0.84492772702E+01 -0.98770458637E+00 -0.65263981887E+02  0.84267449527E+02  0.52623662656E+02 0.  0.
         -6    2    1    2    0  502 -0.15684805946E+03  0.26035847810E+02  0.24033414763E+03  0.33554792309E+03  0.17190906622E+03 0.  0.
        -24    2    5    5    0    0 -0.16845984163E+03  0.27692454483E+02  0.14086554174E+03  0.23527992527E+03  0.79799449294E+02 0.  0.
          5    1    3    3  501    0  0.16529733673E+03 -0.25048143224E+02 -0.50934701845E+03  0.53610362264E+03  0.47000000000E+01 0. -1.
        -11    1    4    4    0    0  0.10497677810E+02 -0.93916365763E+01  0.16825202904E+01  0.14185730559E+02  0.00000000000E+00 0.  1.
         12    1    4    4    0    0 -0.18946955080E+02  0.84039319899E+01 -0.66946502177E+02  0.70081718968E+02  0.00000000000E+00 0. -1.
         -5    1    5    5    0  502  0.11611782172E+02 -0.16566066728E+01  0.99468605886E+02  0.10026799782E+03  0.47000000000E+01 0.  1.
         11    1    6    6    0    0 -0.18740235161E+02  0.12255411086E+02 -0.78126548577E+01  0.23715587505E+02  0.00000000000E+00 0. -1.
        -12    1    6    6    0    0 -0.14971960647E+03  0.15437043397E+02  0.14867819660E+03  0.21156433776E+03  0.00000000000E+00 0.  1.
</event>
<event>
12    1  0.8633375E-002  0.2175039E+03  0.7818608E-02  0.1135947E+00
         21   -1    0    0  503  502  0.00000000000E+00  0.00000000000E+00  0.97418234438E+03  0.97418234438E+03  0.00000000000E+00 0.  1.
         21   -1    0    0  501  503 -0.00000000000E+00 -0.00000000000E+00 -0.50367792708E+02  0.50367792708E+02  0.00000000000E+00 0. -1.
          6    2    1    2  501    0 -0.10471675220E+03  0.81385387631E+02  0.35807395417E+03  0.41843927443E+03  0.17112945456E+03 0.  0.
         24    2    3    3    0    0  0.19486251516E+00  0.50037133821E+02  0.23838772183E+03  0.25615543626E+03  0.79266316129E+02 0.  0.
         -6    2    1    2    0  502  0.10471675220E+03 -0.81385387631E+02  0.56574059750E+03  0.60611086266E+03  0.17239134161E+03 0.  0.
        -24    2    5    5    0    0  0.26615771073E+02  0.22271813745E+02  0.25847881812E+03  0.27252958363E+03  0.79098935390E+02 0.  0.
          5    1    3    3  501    0 -0.10491161472E+03  0.31348253810E+02  0.11968623234E+03  0.16228383817E+03  0.47000000000E+01 0. -1.
        -11    1    4    4    0    0  0.20329822622E+02 -0.14434309488E+02  0.47078872635E+02  0.53273550912E+02  0.00000000000E+00 0.  1.
         12    1    4    4    0    0 -0.20134960107E+02  0.64471443309E+02  0.19130884919E+03  0.20288188534E+03  0.00000000000E+00 0. -1.
         -5    1    5    5    0  502  0.78100981129E+02 -0.10365720138E+03  0.30726177938E+03  0.33358127903E+03  0.47000000000E+01 0.  1.
         11    1    6    6    0    0 -0.23292951024E+02 -0.11066833203E+02  0.64015143494E+02  0.69014309829E+02  0.00000000000E+00 0. -1.
        -12    1    6    6    0    0  0.49908722097E+02  0.33338646948E+02  0.19446367462E+03  0.20351527380E+03  0.00000000000E+00 0.  1.
</event>
<event>
12    1  0.8633375E-002  0.1932747E+03  0.7818608E-02  0.1155547E+00
         21   -1    0    0  503  502  0.00000000000E+00  0.00000000000E+00  0.57980224444E+02  0.57980224444E+02  0.00000000000E+00 0. -1.
         21   -1    0    0  501  503 -0.00000000000E+00 -0.00000000000E+00 -0.15791423440E+04  0.15791423440E+04  0.00000000000E+00 0.  1.
          6    2    1    2  501    0 -0.27278533527E+02 -0.85275936072E+02 -0.13904551859E+04  0.14038236091E+04  0.17128630291E+03 0.  0.
         24    2    3    3    0    0  0.43339257563E+02 -0.38818757078E+02 -0.56164540537E+03  0.57070123853E+03  0.82880366424E+02 0.  0.
         -6    2    1    2    0  502  0.27278533527E+02  0.85275936072E+02 -0.13070693357E+03  0.23329895934E+03  0.17125419202E+03 0.  0.
        -24    2    5    5    0    0  0.31887532732E+02  0.51369303867E+02  0.58192922363E+01  0.92471394876E+02  0.69724275433E+02 0.  0.
          5    1    3    3  501    0 -0.70617791090E+02 -0.46457178994E+02 -0.82880978058E+03  0.83312237054E+03  0.47000000000E+01 0. -1.
        -13    1    4    4    0    0 -0.44429322837E+01 -0.30714812084E+02 -0.41698558776E+03  0.41813887613E+03  0.00000000000E+00 0.  1.
         14    1    4    4    0    0  0.47782189847E+02 -0.81039449939E+01 -0.14465981760E+03  0.15256236240E+03  0.00000000000E+00 0. -1.
         -5    1    5    5    0  502 -0.46089992047E+01  0.33906632205E+02 -0.13652622580E+03  0.14082756446E+03  0.47000000000E+01 0.  1.
         11    1    6    6    0    0 -0.21183985474E+02  0.16258303080E+02 -0.68936620937E+01  0.27579271866E+02  0.00000000000E+00 0. -1.
        -12    1    6    6    0    0  0.53071518206E+02  0.35111000786E+02  0.12712954330E+02  0.64892123010E+02  0.00000000000E+00 0.  1.
</event>
<event>
12    1  0.8633375E-002  0.1929579E+03  0.7818608E-02  0.1155985E+00
         21   -1    0    0  501  502  0.00000000000E+00  0.00000000000E+00  0.17136096930E+03  0.17136096930E+03  0.00000000000E+00 0. -1.
         21   -1    0    0  502  503 -0.00000000000E+00 -0.00000000000E+00 -0.21645500380E+03  0.21645500380E+03  0.00000000000E+00 0.  1.
         -6    2    1    2    0  503 -0.86807344854E+02 -0.40925852208E+01 -0.20779379409E+02  0.19333212121E+03  0.17144463278E+03 0.  0.
        -24    2    3    3    0    0 -0.29554915672E+02  0.93227526534E+01  0.51351503953E+02  0.10015075896E+03  0.80204680687E+02 0.  0.
          6    2    1    2  501    0  0.86807344854E+02  0.40925852208E+01 -0.24314655093E+02  0.19448385188E+03  0.17228030014E+03 0.  0.
         24    2    5    5    0    0  0.35098750047E+02 -0.63222810617E+02 -0.38082584033E+01  0.10703247339E+03  0.78818788949E+02 0.  0.
          5    1    5    5  501    0  0.51708594806E+02  0.67315395838E+02 -0.20506396690E+02  0.87451378485E+02  0.47000000000E+01 0. -1.
        -13    1    6    6    0    0  0.48150773175E+02 -0.59318845476E+02 -0.26244825728E+02  0.80783743807E+02  0.00000000000E+00 0.  1.
         14    1    6    6    0    0 -0.13052023128E+02 -0.39039651414E+01  0.22436567325E+02  0.26248729586E+02  0.00000000000E+00 0. -1.
         -5    1    3    3    0  503 -0.57252429181E+02 -0.13415337874E+02 -0.72130883362E+02  0.93181362257E+02  0.47000000000E+01 0.  1.
         11    1    4    4    0    0 -0.17244825024E+01 -0.34141668133E+02  0.17246326169E+02  0.38289203559E+02  0.00000000000E+00 0. -1.
        -12    1    4    4    0    0 -0.27830433170E+02  0.43464420787E+02  0.34105177784E+02  0.61861555399E+02  0.00000000000E+00 0.  1.
</event>
<event>
12    1  0.8633375E-002  0.2140588E+03  0.7818608E-02  0.1138952E+00
         21   -1    0    0  501  502  0.00000000000E+00  0.00000000000E+00  0.36299042042E+03  0.36299042042E+03  0.00000000000E+00 0.  1.
         21   -1    0    0  502  503 -0.00000000000E+00 -0.00000000000E+00 -0.12453968962E+03  0.12453968962E+03  0.00000000000E+00 0. -1.
         -6    2    1    2    0  503 -0.12669864917E+03 -0.19823328743E+02  0.11811136628E+03  0.24196400060E+03  0.16778191403E+03 0.  0.
        -24    2    3    3    0    0 -0.10016150807E+03  0.43641933830E+02  0.49666774714E+02  0.14481045447E+03  0.81032913836E+02 0.  0.
          6    2    1    2  501    0  0.12669864917E+03  0.19823328743E+02  0.12033936452E+03  0.24556610944E+03  0.17139323028E+03 0.  0.
         24    2    5    5    0    0  0.14649061323E+02 -0.36025369522E+02  0.35228438160E+02  0.94106058529E+02  0.78118404680E+02 0.  0.
          5    1    5    5  501    0  0.11204958785E+03  0.55848698265E+02  0.85110926364E+02  0.15146005091E+03  0.47000000000E+01 0. -1.
        -13    1    6    6    0    0  0.46355757250E+02 -0.24719324980E+02  0.14216732507E+02  0.54424413096E+02  0.00000000000E+00 0.  1.
         14    1    6    6    0    0 -0.31706695927E+02 -0.11306044542E+02  0.21011705653E+02  0.39681645433E+02  0.00000000000E+00 0. -1.
         -5    1    3    3    0  503 -0.26537141101E+02 -0.63465262573E+02  0.68444591568E+02  0.97153546132E+02  0.47000000000E+01 0.  1.
         11    1    4    4    0    0 -0.69503476008E+02  0.65714955254E+02  0.47942287319E+02  0.10699369811E+03  0.00000000000E+00 0. -1.
        -12    1    4    4    0    0 -0.30658032065E+02 -0.22073021424E+02  0.17244873949E+01  0.37816756361E+02  0.00000000000E+00 0.  1.
</event>
<event>
12    1  0.8633375E-002  0.1812899E+03  0.7818608E-02  0.1166728E+00
         21   -1    0    0  503  502  0.00000000000E+00  0.00000000000E+00  0.23875850866E+03  0.23875850866E+03  0.00000000000E+00 0.  1.
         21   -1    0    0  501  503 -0.00000000000E+00 -0.00000000000E+00 -0.19336467390E+03  0.19336467390E+03  0.00000000000E+00 0.  1.
          6    2    1    2  501    0 -0.29696060329E+02  0.49276717536E+02 -0.93794338309E+02  0.20411613115E+03  0.17191848710E+03 0.  0.
         24    2    3    3    0    0 -0.70013475954E+00  0.54648634414E+02 -0.12663300175E+03  0.15973044644E+03  0.80566338844E+02 0.  0.
         -6    2    1    2    0  502  0.29696060329E+02 -0.49276717536E+02  0.13918817307E+03  0.22800705141E+03  0.17118357713E+03 0.  0.
        -24    2    5    5    0    0 -0.15397460907E+02 -0.13469672460E+02  0.14822605474E+03  0.16953189908E+03  0.79696848269E+02 0.  0.
          5    1    3    3  501    0 -0.28995925570E+02 -0.53719168779E+01  0.32838663445E+02  0.44385684713E+02  0.47000000000E+01 0. -1.
        -13    1    4    4    0    0 -0.29366105909E+02 -0.46849902620E+01 -0.26332971537E+02  0.39720809408E+02  0.00000000000E+00 0.  1.
         14    1    4    4    0    0  0.28665971150E+02  0.59333624676E+02 -0.10030003022E+03  0.12000963703E+03  0.00000000000E+00 0. -1.
         -5    1    5    5    0  502  0.45093521237E+02 -0.35807045076E+02 -0.90378816691E+01  0.58475152327E+02  0.47000000000E+01 0.  1.
         11    1    6    6    0    0 -0.30691689498E+02  0.17177971902E+02  0.29317303390E+02  0.45788282354E+02  0.00000000000E+00 0. -1.
        -12    1    6    6    0    0  0.15294228590E+02 -0.30647644362E+02  0.11890875135E+03  0.12374361673E+03  0.00000000000E+00 0.  1.
</event>
<event>
12    1  0.8633375E-002  0.1857181E+03  0.7818608E-02  0.1163216E+00
         21   -1    0    0  501  502  0.00000000000E+00  0.00000000000E+00  0.77651605489E+03  0.77651605489E+03  0.00000000000E+00 0. -1.
         21   -1    0    0  502  503 -0.00000000000E+00 -0.00000000000E+00 -0.44606276114E+02  0.44606276114E+02  0.00000000000E+00 0. -1.
         -6    2    1    2    0  503 -0.48373968929E+02 -0.42666870848E+02  0.29995379322E+03  0.35093385477E+03  0.17035782817E+03 0.  0.
        -24    2    3    3    0    0 -0.70886730149E+02 -0.21238314702E+02  0.10156471876E+03  0.15006991500E+03  0.82034095156E+02 0.  0.
          6    2    1    2  501    0  0.48373968929E+02  0.42666870848E+02  0.43195598556E+03  0.47018847624E+03  0.17415719045E+03 0.  0.
         24    2    5    5    0    0 -0.35297022633E+01  0.31389191360E+02  0.90725577908E+02  0.12481699762E+03  0.79689474054E+02 0.  0.
          5    1    5    5  501    0  0.51903671192E+02  0.11277679487E+02  0.34123040765E+03  0.34537147862E+03  0.47000000000E+01 0. -1.
        -13    1    6    6    0    0  0.27307418035E+02  0.40314166106E+02  0.33179212250E+02  0.58921873647E+02  0.00000000000E+00 0.  1.
         14    1    6    6    0    0 -0.30837120299E+02 -0.89249747455E+01  0.57546365658E+02  0.65895123969E+02  0.00000000000E+00 0. -1.
         -5    1    3    3    0  503  0.22512761221E+02 -0.21428556145E+02  0.19838907446E+03  0.20086393977E+03  0.47000000000E+01 0.  1.
         11    1    4    4    0    0 -0.64532748126E+02  0.17304156967E+02  0.42258550356E+02  0.79055009375E+02  0.00000000000E+00 0. -1.
        -12    1    4    4    0    0 -0.63539820236E+01 -0.38542471670E+02  0.59306168405E+02  0.71014905624E+02  0.00000000000E+00 0.  1.
</event>
<event>
12    1  0.8633375E-002  0.2845198E+03  0.7818608E-02  0.1093251E+00
         21   -1    0    0  501  502  0.00000000000E+00  0.00000000000E+00  0.12029419471E+03  0.12029419471E+03  0.00000000000E+00 0.  1.
         21   -1    0    0  502  503 -0.00000000000E+00 -0.00000000000E+00 -0.84305644652E+03  0.84305644652E+03  0.00000000000E+00 0.  1.
         -6    2    1    2    0  503 -0.12485838334E+03  0.18903805719E+03 -0.57782174737E+03  0.64407258324E+03  0.17212355384E+03 0.  0.
        -24    2    3    3    0    0 -0.23182775820E+02  0.15643074545E+02 -0.16867099590E+03  0.18818863244E+03  0.78631479976E+02 0.  0.
          6    2    1    2  501    0  0.12485838334E+03 -0.18903805719E+03 -0.14494050443E+03  0.31927805799E+03  0.17206314402E+03 0.  0.
         24    2    5    5    0    0  0.15410211143E+03 -0.18588466155E+03 -0.12523326011E+03  0.28356244494E+03  0.80148129079E+02 0.  0.
          5    1    5    5  501    0 -0.29243728093E+02 -0.31533956471E+01 -0.19707244320E+02  0.35715613051E+02  0.47000000000E+01 0. -1.
        -11    1    6    6    0    0  0.41161095951E+02 -0.11082543050E+03 -0.48807340397E+02  0.12790100993E+03  0.00000000000E+00 0.  1.
         12    1    6    6    0    0  0.11294101548E+03 -0.75059231046E+02 -0.76425919717E+02  0.15566143500E+03  0.00000000000E+00 0. -1.
         -5    1    3    3    0  503 -0.10167560752E+03  0.17339498265E+03 -0.40915075147E+03  0.45588395080E+03  0.47000000000E+01 0.  1.
         13    1    4    4    0    0 -0.45373737519E+02  0.26930233154E+02 -0.78062203466E+02  0.94221659528E+02  0.00000000000E+00 0. -1.
        -14    1    4    4    0    0  0.22190961699E+02 -0.11287158609E+02 -0.90608792437E+02  0.93966972908E+02  0.00000000000E+00 0.  1.
</event>
<event>
12    1  0.8633375E-002  0.2036662E+03  0.7818608E-02  0.1146828E+00
         21   -1    0    0  501  502  0.00000000000E+00  0.00000000000E+00  0.17433576493E+03  0.17433576493E+03  0.00000000000E+00 0. -1.
         21   -1    0    0  502  503 -0.00000000000E+00 -0.00000000000E+00 -0.30481394861E+03  0.30481394861E+03  0.00000000000E+00 0. -1.
         -6    2    1    2    0  503  0.16013423337E+02 -0.10659587277E+03 -0.17824111938E+03  0.27064704807E+03  0.17280283033E+03 0.  0.
        -24    2    3    3    0    0 -0.42651184529E+02 -0.94398475740E+02 -0.73484409335E+02  0.14987299866E+03  0.79572366741E+02 0.  0.
          6    2    1    2  501    0 -0.16013423337E+02  0.10659587277E+03  0.47762935703E+02  0.20850266547E+03  0.17196788556E+03 0.  0.
         24    2    5    5    0    0 -0.18311163890E+02  0.12578547988E+03  0.80507326784E+02  0.17019071199E+03  0.79537180669E+02 0.  0.
          5    1    5    5  501    0  0.22977405529E+01 -0.19189607110E+02 -0.32744391081E+02  0.38311953486E+02  0.47000000000E+01 0. -1.
        -11    1    6    6    0    0 -0.16495806301E+02  0.65451873169E+01  0.40811921672E+02  0.44503528547E+02  0.00000000000E+00 0.  1.
         12    1    6    6    0    0 -0.18153575887E+01  0.11924029257E+03  0.39695405112E+02  0.12568718344E+03  0.00000000000E+00 0. -1.
         -5    1    3    3    0  503  0.58664607866E+02 -0.12197397033E+02 -0.10475671005E+03  0.12077404941E+03  0.47000000000E+01 0.  1.
         13    1    4    4    0    0 -0.28353166038E+02 -0.34955845916E+02 -0.76392521799E+02  0.88665836571E+02  0.00000000000E+00 0. -1.
        -14    1    4    4    0    0 -0.14298018492E+02 -0.59442629823E+02  0.29081124638E+01  0.61207162091E+02  0.00000000000E+00 0.  1.
</event>
<event>
12    1  0.8633375E-002  0.2727651E+03  0.7818608E-02  0.1099784E+00
         21   -1    0    0  501  502  0.00000000000E+00  0.00000000000E+00  0.83008676291E+02  0.83008676291E+02  0.00000000000E+00 0. -1.
         21   -1    0    0  502  503 -0.00000000000E+00 -0.00000000000E+00 -0.89494529874E+03  0.89494529874E+03  0.00000000000E+00 0. -1.
         -6    2    1    2    0  503  0.40063073486E+02 -0.20680305892E+03 -0.39502574859E+03  0.47974169788E+03  0.17243607394E+03 0.  0.
        -24    2    3    3    0    0  0.48276250634E+02 -0.85391389475E+02 -0.29720834922E+03  0.32354123893E+03  0.81999052847E+02 0.  0.
          6    2    1    2  501    0 -0.40063073486E+02  0.20680305892E+03 -0.41691087385E+03  0.49821227715E+03  0.17328658726E+03 0.  0.
         24    2    5    5    0    0 -0.43613842950E+02  0.18691418842E+03 -0.22906085031E+03  0.30922048769E+03  0.79431453065E+02 0.  0.
          5    1    5    5  501    0  0.35507694645E+01  0.19888870501E+02 -0.18785002355E+03  0.18899178945E+03  0.47000000000E+01 0. -1.
        -11    1    6    6    0    0 -0.24233648577E+02  0.83322535561E+01 -0.14687714347E+02  0.29536843525E+02  0.00000000000E+00 0.  1.
         12    1    6    6    0    0 -0.19380194373E+02  0.17858193487E+03 -0.21437313596E+03  0.27968364417E+03  0.00000000000E+00 0. -1.
         -5    1    3    3    0  503 -0.82131771485E+01 -0.12141166945E+03 -0.97817399369E+02  0.15620045895E+03  0.47000000000E+01 0.  1.
         11    1    4    4    0    0  0.64435712621E+02 -0.87204171402E+02 -0.22829340038E+03  0.25273386245E+03  0.00000000000E+00 0. -1.
        -12    1    4    4    0    0 -0.16159461987E+02  0.18127819266E+01 -0.68914948847E+02  0.70807376484E+02  0.00000000000E+00 0.  1.
</event>
<event>
12    1  0.8633375E-002  0.1811428E+03  0.7818608E-02  0.1167105E+00
         21   -1    0    0  501  502  0.00000000000E+00  0.00000000000E+00  0.38880228731E+03  0.38880228731E+03  0.00000000000E+00 0. -1.
         21   -1    0    0  502  503 -0.00000000000E+00 -0.00000000000E+00 -0.86804123990E+02  0.86804123990E+02  0.00000000000E+00 0. -1.
         -6    2    1    2    0  503  0.36200612054E+02  0.36585489475E+02  0.19723613812E+03  0.26779617338E+03  0.17367703920E+03 0.  0.
        -24    2    3    3    0    0  0.64515005956E+02  0.50248899938E+02  0.66716802710E+02  0.13346158885E+03  0.81692876036E+02 0.  0.
          6    2    1    2  501    0 -0.36200612054E+02 -0.36585489475E+02  0.10476202520E+03  0.20781023792E+03  0.17193321583E+03 0.  0.
         24    2    5    5    0    0  0.12618972954E+02  0.11572227684E+02  0.11457135746E+03  0.13837803644E+03  0.75688374856E+02 0.  0.
          5    1    5    5  501    0 -0.48819585008E+02 -0.48157717158E+02 -0.98093322545E+01  0.69432201474E+02  0.47000000000E+01 0. -1.
        -13    1    6    6    0    0  0.21056706054E+02 -0.26413378464E+02  0.77903882885E+02  0.84912109857E+02  0.00000000000E+00 0.  1.
         14    1    6    6    0    0 -0.84377330997E+01  0.37985606148E+02  0.36667474571E+02  0.53465926586E+02  0.00000000000E+00 0. -1.
         -5    1    3    3    0  503 -0.28314393902E+02 -0.13663410463E+02  0.13051933541E+03  0.13433458453E+03  0.47000000000E+01 0.  1.
         11    1    4    4    0    0  0.46238959535E+02  0.71920610369E+02  0.39584250696E+02  0.94220637219E+02  0.00000000000E+00 0. -1.
        -12    1    4    4    0    0  0.18276046421E+02 -0.21671710432E+02  0.27132552014E+02  0.39240951627E+02  0.00000000000E+00 0.  1.
</event>
<event>
12    1  0.8633375E-002  0.1836260E+03  0.7818608E-02  0.1167058E+00
         21   -1    0    0  503  502  0.00000000000E+00  0.00000000000E+00  0.16300747209E+03  0.16300747209E+03  0.00000000000E+00 0. -1.
         21   -1    0    0  501  503 -0.00000000000E+00 -0.00000000000E+00 -0.22428021241E+03  0.22428021241E+03  0.00000000000E+00 0. -1.
          6    2    1    2  501    0 -0.61928171348E+02  0.17769766550E+02 -0.10202514881E+03  0.21006577556E+03  0.17195242383E+03 0.  0.
         24    2    3    3    0    0  0.29296689567E+02  0.31291437522E+02 -0.61216001122E+02  0.10910891660E+03  0.79497841525E+02 0.  0.
         -6    2    1    2    0  502  0.61928171348E+02 -0.17769766550E+02  0.40752408484E+02  0.17722190894E+03  0.15998744702E+03 0.  0.
        -24    2    5    5    0    0  0.16254807784E+02 -0.46796433225E+02  0.67371267322E+02  0.11673011476E+03  0.81442661383E+02 0.  0.
          5    1    3    3  501    0 -0.91224860915E+02 -0.13521670972E+02 -0.40809147684E+02  0.10095685895E+03  0.47000000000E+01 0. -1.
        -13    1    4    4    0    0  0.10534301662E+02  0.55339139406E+02 -0.24645021295E+02  0.61487957653E+02  0.00000000000E+00 0.  1.
         14    1    4    4    0    0  0.18762387905E+02 -0.24047701884E+02 -0.36570979827E+02  0.47620958950E+02  0.00000000000E+00 0. -1.
         -5    1    5    5    0  502  0.45673363564E+02  0.29026666675E+02 -0.26618858837E+02  0.60491794182E+02  0.47000000000E+01 0.  1.
         13    1    6    6    0    0  0.42922179049E+02 -0.33184298683E+02  0.67738611081E+02  0.86787271904E+02  0.00000000000E+00 0. -1.
        -14    1    6    6    0    0 -0.26667371264E+02 -0.13612134542E+02 -0.36734375995E+00  0.29942842857E+02  0.00000000000E+00 0.  1.
</event>
<event>
12    1  0.8633375E-002  0.2681410E+03  0.7818608E-02  0.1102407E+00
         21   -1    0    0  501  502  0.00000000000E+00  0.00000000000E+00  0.25098735583E+03  0.25098735583E+03  0.00000000000E+00 0.  1.
         21   -1    0    0  502  503 -0.00000000000E+00 -0.00000000000E+00 -0.45241211056E+03  0.45241211056E+03  0.00000000000E+00 0. -1.
         -6    2    1    2    0  503  0.15015293808E+03  0.14088748197E+03 -0.31404121810E+03  0.41294244309E+03  0.17176841169E+03 0.  0.
        -24    2    3    3    0    0  0.91271391481E+02  0.58037292380E+01 -0.13635458005E+03  0.18205440069E+03  0.78658013805E+02 0.  0.
          6    2    1    2  501    0 -0.15015293808E+03 -0.14088748197E+03  0.11261646337E+03  0.29045702330E+03  0.17113628245E+03 0.  0.
         24    2    5    5    0    0 -0.12696550653E+03 -0.54123101731E+02  0.18544265812E+02  0.16031332190E+03  0.79416128050E+02 0.  0.
          5    1    5    5  501    0 -0.23187431546E+02 -0.86764380239E+02  0.94072197558E+02  0.13014370140E+03  0.47000000000E+01 0. -1.
        -13    1    6    6    0    0 -0.84557097926E+02 -0.77630523125E+01  0.40076631043E+02  0.93895176376E+02  0.00000000000E+00 0.  1.
         14    1    6    6    0    0 -0.42408408606E+02 -0.46360049418E+02 -0.21532365231E+02  0.66418145525E+02  0.00000000000E+00 0. -1.
         -5    1    3    3    0  503  0.58881546597E+02  0.13508375273E+03 -0.17768663805E+03  0.23088804240E+03  0.47000000000E+01 0.  1.
         13    1    4    4    0    0 -0.74323396913E+01  0.16784509535E+02 -0.86885814682E+01  0.20308886763E+02  0.00000000000E+00 0. -1.
        -14    1    4    4    0    0  0.98703731172E+02 -0.10980780297E+02 -0.12766599858E+03  0.16174551393E+03  0.00000000000E+00 0.  1.
</event>
<event>
12    1  0.8633375E-002  0.1995647E+03  0.7818608E-02  0.1150983E+00
         21   -1    0    0  503  502  0.00000000000E+00  0.00000000000E+00  0.92046773697E+02  0.92046773697E+02  0.00000000000E+00 0.  1.
         21   -1    0    0  501  503 -0.00000000000E+00 -0.00000000000E+00 -0.61898964172E+03  0.61898964172E+03  0.00000000000E+00 0. -1.
          6    2    1    2  501    0 -0.46260384272E+02  0.84357822264E+02 -0.46121560476E+03  0.50092658984E+03  0.17015095947E+03 0.  0.
         24    2    3    3    0    0  0.20787126038E+02  0.68401692835E+02 -0.37063235062E+03  0.38700827422E+03  0.85417614071E+02 0.  0.
         -6    2    1    2    0  502  0.46260384272E+02 -0.84357822264E+02 -0.65727263268E+02  0.21010982558E+03  0.17484221554E+03 0.  0.
        -24    2    5    5    0    0 -0.10900667116E+02  0.16351169000E+02 -0.13902407655E+02  0.83154745423E+02  0.79594280426E+02 0.  0.
          5    1    3    3  501    0 -0.67047510311E+02  0.15956129429E+02 -0.90583254134E+02  0.11391831562E+03  0.47000000000E+01 0. -1.
        -11    1    4    4    0    0  0.18400307273E+02  0.17241706976E+02 -0.18762182977E+02  0.31430355983E+02  0.00000000000E+00 0.  1.
         12    1    4    4    0    0  0.23868187652E+01  0.51159985859E+02 -0.35187016765E+03  0.35557791823E+03  0.00000000000E+00 0. -1.
         -5    1    5    5    0  502  0.57161051389E+02 -0.10070899126E+03 -0.51824855613E+02  0.12695508015E+03  0.47000000000E+01 0.  1.
         13    1    6    6    0    0 -0.49866924393E+01 -0.29950081569E+02 -0.19587615362E+02  0.36132383855E+02  0.00000000000E+00 0. -1.
        -14    1    6    6    0    0 -0.59139746770E+01  0.46301250569E+02  0.56852077072E+01  0.47022361568E+02  0.00000000000E+00 0.  1.
</event>
<event>
12    1  0.8633375E-002  0.1801565E+03  0.7818608E-02  0.1167696E+00
         21   -1    0    0  503  502  0.00000000000E+00  0.00000000000E+00  0.29742480495E+03  0.29742480495E+03  0.00000000000E+00 0. -1.
         21   -1    0    0  501  503 -0.00000000000E+00 -0.00000000000E+00 -0.11657407664E+03  0.11657407664E+03  0.00000000000E+00 0. -1.
          6    2    1    2  501    0  0.45412014764E+02 -0.29373923243E+02  0.37752811826E+02  0.18406964268E+03  0.17184667615E+03 0.  0.
         24    2    3    3    0    0  0.82610633407E+02 -0.17035129234E+02  0.68661552579E+02  0.13393558917E+03  0.78164063765E+02 0.  0.
         -6    2    1    2    0  502 -0.45412014764E+02  0.29373923243E+02  0.14309791648E+03  0.22992923892E+03  0.17165477784E+03 0.  0.
        -24    2    5    5    0    0 -0.84457607093E+01  0.82454001127E+02  0.67121726168E+02  0.13003694641E+03  0.74392796241E+02 0.  0.
          5    1    3    3  501    0 -0.37198618643E+02 -0.12338794009E+02 -0.30908740753E+02  0.50134053511E+02  0.47000000000E+01 0. -1.
        -13    1    4    4    0    0  0.42642889973E+02  0.18176253900E+02 -0.84905060317E+00  0.46362842429E+02  0.00000000000E+00 0.  1.
         14    1    4    4    0    0  0.39967743433E+02 -0.35211383134E+02  0.69510603182E+02  0.87572746743E+02  0.00000000000E+00 0. -1.
         -5    1    5    5    0  502 -0.36966254055E+02 -0.53080077883E+02  0.75976190315E+02  0.99892292504E+02  0.47000000000E+01 0.  1.
         13    1    6    6    0    0  0.10028946510E+02  0.51414601557E+02  0.76501593843E+02  0.92717500408E+02  0.00000000000E+00 0. -1.
        -14    1    6    6    0    0 -0.18474707219E+02  0.31039399569E+02 -0.93798676743E+01  0.37319446004E+02  0.00000000000E+00 0.  1.
</event>
<event>
12    1  0.8633375E-002  0.2019191E+03  0.7818608E-02  0.1148145E+00
         21   -1    0    0  503  502  0.00000000000E+00  0.00000000000E+00  0.85842687531E+03  0.85842687531E+03  0.00000000000E+00 0. -1.
         21   -1    0    0  501  503 -0.00000000000E+00 -0.00000000000E+00 -0.82786054788E+02  0.82786054788E+02  0.00000000000E+00 0. -1.
          6    2    1    2  501    0  0.10441116036E+03 -0.15160628615E+02  0.69511735194E+03  0.72383000941E+03  0.17207618800E+03 0.  0.
         24    2    3    3    0    0  0.63358020043E+02 -0.27402835546E+02  0.66072352435E+03  0.66869148080E+03  0.76338501209E+02 0.  0.
         -6    2    1    2    0  502 -0.10441116036E+03  0.15160628615E+02  0.80523468583E+02  0.21738292070E+03  0.17216204619E+03 0.  0.
        -24    2    5    5    0    0 -0.57604334185E+02 -0.56818491553E+02  0.62243965736E+02  0.12947329130E+03  0.79639321879E+02 0.  0.
          5    1    3    3  501    0  0.41053140316E+02  0.12242206930E+02  0.34393827595E+02  0.55138528607E+02  0.47000000000E+01 0. -1.
        -13    1    4    4    0    0 -0.15342161785E+02 -0.14856733965E+02  0.94235672796E+02  0.96625392624E+02  0.00000000000E+00 0.  1.
         14    1    4    4    0    0  0.78700181828E+02 -0.12546101581E+02  0.56648785155E+03  0.57206608818E+03  0.00000000000E+00 0. -1.
         -5    1    5    5    0  502 -0.46806826174E+02  0.71979120169E+02  0.18279502846E+02  0.87909629399E+02  0.47000000000E+01 0.  1.
         13    1    6    6    0    0 -0.70462073436E+02 -0.43310829420E+02  0.22722994564E+02  0.85773342128E+02  0.00000000000E+00 0. -1.
        -14    1    6    6    0    0  0.12857739251E+02 -0.13507662133E+02  0.39520971172E+02  0.43699949168E+02  0.00000000000E+00 0.  1.
</event>
<event>
12    1  0.8633375E-002  0.2586140E+03  0.7818608E-02  0.1108088E+00
         21   -1    0    0  503  502  0.00000000000E+00  0.00000000000E+00  0.37273782057E+03  0.37273782057E+03  0.00000000000E+00 0. -1.
         21   -1    0    0  501  503 -0.00000000000E+00 -0.00000000000E+00 -0.23764048683E+03  0.23764048683E+03  0.00000000000E+00 0.  1.
          6    2    1    2  501    0 -0.17576099381E+03 -0.77804485703E+02 -0.84072160593E+02  0.27193624670E+03  0.17301944730E+03 0.  0.
         24    2    3    3    0    0 -0.31177086877E+02 -0.22338179498E+02 -0.75498912453E+02  0.11676985907E+03  0.80399684057E+02 0.  0.
         -6    2    1    2    0  502  0.17576099381E+03  0.77804485703E+02  0.21916949433E+03  0.33844206069E+03  0.17193689615E+03 0.  0.
        -24    2    5    5    0    0  0.15227010373E+03  0.64449478669E+02  0.83923030282E+02  0.20044251660E+03  0.76119692982E+02 0.  0.
          5    1    3    3  501    0 -0.14458390693E+03 -0.55466306205E+02 -0.85732481400E+01  0.15516638763E+03  0.47000000000E+01 0. -1.
        -11    1    4    4    0    0 -0.85328039692E+01 -0.49949192633E+02 -0.57955255559E+02  0.76984038834E+02  0.00000000000E+00 0.  1.
         12    1    4    4    0    0 -0.22644282908E+02  0.27611013135E+02 -0.17543656894E+02  0.39785820237E+02  0.00000000000E+00 0. -1.
         -5    1    5    5    0  502  0.23490890075E+02  0.13355007034E+02  0.13524646405E+03  0.13799954409E+03  0.47000000000E+01 0.  1.
         11    1    6    6    0    0  0.77292572704E+02  0.28291635528E+01  0.66159505659E+02  0.10178028370E+03  0.00000000000E+00 0. -1.
        -12    1    6    6    0    0  0.74977531027E+02  0.61620315116E+02  0.17763524624E+02  0.98662232901E+02  0.00000000000E+00 0.  1.
</event>
<event>
12    1  0.8633375E-002  0.2125795E+03  0.7818608E-02  0.1139923E+00
         21   -1    0    0  501  502  0.00000000000E+00  0.00000000000E+00  0.25085859840E+03  0.25085859840E+03  0.00000000000E+00 0. -1.
         21   -1    0    0  502  503 -0.00000000000E+00 -0.00000000000E+00 -0.29801595623E+03  0.29801595623E+03  0.00000000000E+00 0. -1.
         -6    2    1    2    0  503 -0.21964703903E+02  0.12089161642E+03 -0.19744851614E+03  0.29013094111E+03  0.17347280861E+03 0.  0.
        -24    2    3    3    0    0 -0.36483881880E+02  0.61874728263E+02 -0.20220357671E+03  0.22898766496E+03  0.79934402090E+02 0.  0.
          6    2    1    2  501    0  0.21964703903E+02 -0.12089161642E+03  0.15029115830E+03  0.25874361352E+03  0.17106605196E+03 0.  0.
         24    2    5    5    0    0  0.64255086977E+02 -0.50810252480E+02  0.13114809511E+03  0.17455085290E+03  0.80980117544E+02 0.  0.
          5    1    5    5  501    0 -0.42290383073E+02 -0.70081363940E+02  0.19143063189E+02  0.84192760618E+02  0.47000000000E+01 0. -1.
        -11    1    6    6    0    0  0.91823075363E+01  0.16420564919E+02  0.57940340684E+02  0.60918246877E+02  0.00000000000E+00 0.  1.
         12    1    6    6    0    0  0.55072779440E+02 -0.67230817399E+02  0.73207754427E+02  0.11363260602E+03  0.00000000000E+00 0. -1.
         -5    1    3    3    0  503  0.14519177977E+02  0.59016888157E+02  0.47550605715E+01  0.61143276146E+02  0.47000000000E+01 0.  1.
         13    1    4    4    0    0 -0.61470389723E+02  0.35157764710E+02 -0.13725445986E+03  0.15444566677E+03  0.00000000000E+00 0. -1.
        -14    1    4    4    0    0  0.24986507843E+02  0.26716963553E+02 -0.64949116850E+02  0.74541998198E+02  0.00000000000E+00 0.  1.
</event>
<event>
12    1  0.8633375E-002  0.1731540E+03  0.7818608E-02  0.1174815E+00
         21   -1    0    0  503  502  0.00000000000E+00  0.00000000000E+00  0.76556700540E+03  0.76556700540E+03  0.00000000000E+00 0.  1.
         21   -1    0    0  501  503 -0.00000000000E+00 -0.00000000000E+00 -0.44358678604E+02  0.44358678604E+02  0.00000000000E+00 0.  1.
          6    2    1    2  501    0 -0.17019011341E+02 -0.13226772018E+02  0.50250668384E+03  0.53150283687E+03  0.17180717112E+03 0.  0.
         24    2    3    3    0    0  0.12672806009E+02 -0.16912047373E+02  0.12667891676E+03  0.15445670470E+03  0.85806225400E+02 0.  0.
         -6    2    1    2    0  502  0.17019011341E+02  0.13226772018E+02  0.21870164295E+03  0.27842284714E+03  0.17095110100E+03 0.  0.
        -24    2    5    5    0    0 -0.41142522451E+02 -0.26635995684E+02  0.16688705828E+03  0.19079496660E+03  0.78417125933E+02 0.  0.
          5    1    3    3  501    0 -0.29691817350E+02  0.36852753550E+01  0.37582776708E+03  0.37704613216E+03  0.47000000000E+01 0. -1.
        -11    1    4    4    0    0  0.35826941760E+02 -0.38854339106E+02  0.98994753926E+02  0.11221938660E+03  0.00000000000E+00 0.  1.
         12    1    4    4    0    0 -0.23154135751E+02  0.21942291734E+02  0.27684162833E+02  0.42237318105E+02  0.00000000000E+00 0. -1.
         -5    1    5    5    0  502  0.58161533792E+02  0.39862767702E+02  0.51814584672E+02  0.87627880532E+02  0.47000000000E+01 0.  1.
         11    1    6    6    0    0  0.11904736201E+02  0.15707102314E+02  0.68412525695E+02  0.71194869752E+02  0.00000000000E+00 0. -1.
        -12    1    6    6    0    0 -0.53047258652E+02 -0.42343097998E+02  0.98474532589E+02  0.11960009685E+03  0.00000000000E+00 0.  1.
</event>
<event>
12    1  0.8633375E-002  0.4083473E+03  0.7818608E-02  0.1041269E+00
         21   -1    0    0  501  502  0.00000000000E+00  0.00000000000E+00  0.33524855829E+03  0.33524855829E+03  0.00000000000E+00 0.  1.
         21   -1    0    0  502  503 -0.00000000000E+00 -0.00000000000E+00 -0.56088261165E+03  0.56088261165E+03  0.00000000000E+00 0. -1.
         -6    2    1    2    0  503  0.72391880753E+02  0.36280974578E+03 -0.26879669589E+03  0.48550904213E+03  0.16308240322E+03 0.  0.
        -24    2    3    3    0    0  0.14690423989E+02  0.12658925030E+03 -0.15646151954E+03  0.21760819772E+03  0.81440001016E+02 0.  0.
          6    2    1    2  501    0 -0.72391880753E+02 -0.36280974578E+03  0.43162642530E+02  0.41062212780E+03  0.17284681687E+03 0.  0.
         24    2    5    5    0    0 -0.76472120205E+02 -0.36476172490E+03  0.66158206342E+02  0.38671931350E+03  0.79220060887E+02 0.  0.
          5    1    5    5  501    0  0.40802394525E+01  0.19519791259E+01 -0.22995563812E+02  0.23902814301E+02  0.47000000000E+01 0. -1.
        -11    1    6    6    0    0  0.52956028462E+01 -0.87632868161E+02  0.40373068805E+02  0.96630987144E+02  0.00000000000E+00 0.  1.
         12    1    6    6    0    0 -0.81767723051E+02 -0.27712885674E+03  0.25785137537E+02  0.29008832636E+03  0.00000000000E+00 0. -1.
         -5    1    3    3    0  503  0.57701456764E+02  0.23622049547E+03 -0.11233517634E+03  0.26790084442E+03  0.47000000000E+01 0.  1.
         13    1    4    4    0    0  0.15312401999E+01 -0.70858483432E+00 -0.53039575775E+02  0.53066405451E+02  0.00000000000E+00 0. -1.
        -14    1    4    4    0    0  0.13159183789E+02  0.12729783514E+03 -0.10342194377E+03  0.16454179226E+03  0.00000000000E+00 0.  1.
</event>
<event>
12    1  0.8633375E-002  0.2197787E+03  0.7818608E-02  0.1136181E+00
         21   -1    0    0  503  502  0.00000000000E+00  0.00000000000E+00  0.10468541041E+04  0.10468541041E+04  0.00000000000E+00 0. -1.
         21   -1    0    0  501  503 -0.00000000000E+00 -0.00000000000E+00 -0.54007714750E+02  0.54007714750E+02  0.00000000000E+00 0.  1.
          6    2    1    2  501    0 -0.10961533859E+03 -0.42325694164E+02  0.26807205833E+03  0.34664869046E+03  0.18573017876E+03 0.  0.
         24    2    3    3    0    0 -0.37249428710E+02 -0.99864385290E+02  0.15865098016E+03  0.20332183242E+03  0.69348530218E+02 0.  0.
         -6    2    1    2    0  502  0.10961533859E+03  0.42325694164E+02  0.72477433100E+03  0.75421312837E+03  0.17243150897E+03 0.  0.
        -24    2    5    5    0    0  0.75621644847E+02  0.91322944225E+02  0.58596200497E+03  0.60306004839E+03  0.79192407387E+02 0.  0.
          5    1    3    3  501    0 -0.72365909878E+02  0.57538691126E+02  0.10942107817E+03  0.14332685804E+03  0.47000000000E+01 0. -1.
        -13    1    4    4    0    0  0.10368177634E+02 -0.40974776470E+01  0.48598411778E+02  0.49860746664E+02  0.00000000000E+00 0.  1.
         14    1    4    4    0    0 -0.47617606344E+02 -0.95766907643E+02  0.11005256839E+03  0.15346108576E+03  0.00000000000E+00 0. -1.
         -5    1    5    5    0  502  0.33993693742E+02 -0.48997250062E+02  0.13881232603E+03  0.15115307997E+03  0.47000000000E+01 0.  1.
         11    1    6    6    0    0 -0.14781321522E+02  0.27403893346E+02  0.10501593992E+03  0.10953450814E+03  0.00000000000E+00 0. -1.
        -12    1    6    6    0    0  0.90402966369E+02  0.63919050880E+02  0.48094606505E+03  0.49352554025E+03  0.00000000000E+00 0.  1.
</event>
<event>
12    1  0.8633375E-002  0.2063597E+03  0.7818608E-02  0.1144996E+00
         21   -1    0    0  501  502  0.00000000000E+00  0.00000000000E+00  0.74089494460E+02  0.74089494460E+02  0.00000000000E+00 0.  1.
         21   -1    0    0  502  503 -0.00000000000E+00 -0.00000000000E+00 -0.16751904726E+04  0.16751904726E+04  0.00000000000E+00 0.  1.
         -6    2    1    2    0  503  0.89665877117E+02 -0.64175220512E+02 -0.15100171667E+04  0.15237126689E+04  0.17143519293E+03 0.  0.
        -24    2    3    3    0    0  0.12996502834E+03 -0.49167848806E+02 -0.12432452012E+04  0.12534560975E+04  0.78645866520E+02 0.  0.
          6    2    1    2  501    0 -0.89665877117E+02  0.64175220512E+02 -0.91083811509E+02  0.22556729817E+03  0.17443026353E+03 0.  0.
         24    2    5    5    0    0 -0.51855273145E+01  0.23929706442E+02 -0.10019776552E+03  0.13143024349E+03  0.81454257984E+02 0.  0.
          5    1    5    5  501    0 -0.84480349803E+02  0.40245514070E+02  0.91139540159E+01  0.94137054678E+02  0.47000000000E+01 0. -1.
        -13    1    6    6    0    0 -0.51088553007E+01  0.49881762814E+02 -0.34700549771E+02  0.60978839103E+02  0.00000000000E+00 0.  1.
         14    1    6    6    0    0 -0.76672013805E-01 -0.25952056373E+02 -0.65497215754E+02  0.70451404387E+02  0.00000000000E+00 0. -1.
         -5    1    3    3    0  503 -0.40299151219E+02 -0.15007371706E+02 -0.26677196552E+03  0.27025657139E+03  0.47000000000E+01 0.  1.
         13    1    4    4    0    0  0.55944301377E+02  0.12775651863E+02 -0.63652679174E+03  0.63910823711E+03  0.00000000000E+00 0. -1.
        -14    1    4    4    0    0  0.74020726959E+02 -0.61943500669E+02 -0.60671840942E+03  0.61434786044E+03  0.00000000000E+00 0.  1.
</event>
<event>
12    1  0.8633375E-002  0.2217496E+03  0.7818608E-02  0.1133048E+00
         21   -1    0    0  503  502  0.00000000000E+00  0.00000000000E+00  0.29294194922E+03  0.29294194922E+03  0.00000000000E+00 0. -1.
         21   -1    0    0  501  503 -0.00000000000E+00 -0.00000000000E+00 -0.18223282608E+03  0.18223282608E+03  0.00000000000E+00 0. -1.
          6    2    1    2  501    0 -0.57800338133E+02  0.12816185201E+03  0.12603213613E+03  0.25289634949E+03  0.16824424165E+03 0.  0.
         24    2    3    3    0    0 -0.31169326452E+02  0.62647010541E+01  0.20881884844E+02  0.89657899549E+02  0.81189361656E+02 0.  0.
         -6    2    1    2    0  502  0.57800338133E+02 -0.12816185201E+03 -0.15323012986E+02  0.22227842580E+03  0.17148342325E+03 0.  0.
        -24    2    5    5    0    0 -0.21147481826E+02 -0.43314757689E+02 -0.43008655667E+02  0.10302922244E+03  0.80261397904E+02 0.  0.
          5    1    3    3  501    0 -0.26631011681E+02  0.12189715096E+03  0.10515025128E+03  0.16323844994E+03  0.47000000000E+01 0. -1.
        -11    1    4    4    0    0 -0.44742833970E+02  0.33157609279E+02  0.58636451620E+01  0.55997594407E+02  0.00000000000E+00 0.  1.
         12    1    4    4    0    0  0.13573507518E+02 -0.26892908225E+02  0.15018239682E+02  0.33660305142E+02  0.00000000000E+00 0. -1.
         -5    1    5    5    0  502  0.78947819959E+02 -0.84847094322E+02  0.27685642681E+02  0.11924920336E+03  0.47000000000E+01 0.  1.
         13    1    6    6    0    0 -0.37572525665E+02 -0.54225686882E+02 -0.49271744902E+02  0.82339690602E+02  0.00000000000E+00 0. -1.
        -14    1    6    6    0    0  0.16425043839E+02  0.10910929194E+02  0.62630892351E+01  0.20689531840E+02  0.00000000000E+00 0.  1.
</event>
<event>
12    1  0.8633375E-002  0.2039523E+03  0.7818608E-02  0.1147074E+00
         21   -1    0    0  503  502  0.00000000000E+00  0.00000000000E+00  0.10418932179E+03  0.10418932179E+03  0.00000000000E+00 0.  1.
         21   -1    0    0  501  503 -0.00000000000E+00 -0.00000000000E+00 -0.44810193659E+03  0.44810193659E+03  0.00000000000E+00 0.  1.
          6    2    1    2  501    0 -0.94443095781E+02 -0.58147034096E+02 -0.26961671424E+03  0.33806764100E+03  0.17116068877E+03 0.  0.
         24    2    3    3    0    0 -0.18642811742E+02 -0.90520395715E+02 -0.17095708260E+03  0.20942266241E+03  0.78038650472E+02 0.  0.
         -6    2    1    2    0  502  0.94443095781E+02  0.58147034096E+02 -0.74295900548E+02  0.21422361737E+03  0.16754492379E+03 0.  0.
        -24    2    5    5    0    0  0.95181309552E+02  0.79633604501E+02 -0.10067140943E+03  0.17987285121E+03  0.82574313639E+02 0.  0.
          5    1    3    3  501    0 -0.75800284040E+02  0.32373361619E+02 -0.98659631639E+02  0.12864497860E+03  0.47000000000E+01 0. -1.
        -13    1    4    4    0    0 -0.43926983958E+01 -0.71273027047E+02 -0.17117588264E+03  0.18547324061E+03  0.00000000000E+00 0.  1.
         14    1    4    4    0    0 -0.14250113346E+02 -0.19247368668E+02  0.21880003883E+00  0.23949421798E+02  0.00000000000E+00 0. -1.
         -5    1    5    5    0  502 -0.73821377072E+00 -0.21486570405E+02  0.26375508880E+02  0.34350766163E+02  0.47000000000E+01 0.  1.
         11    1    6    6    0    0  0.33828141400E+02  0.23677216923E+02 -0.86205364020E+02  0.95584091446E+02  0.00000000000E+00 0. -1.
        -12    1    6    6    0    0  0.61353168152E+02  0.55956387578E+02 -0.14466045408E+02  0.84288759765E+02  0.00000000000E+00 0.  1.
</event>
<event>
12    1  0.8633375E-002  0.1842266E+03  0.7818608E-02  0.1163800E+00
         21   -1    0    0  501  502  0.00000000000E+00  0.00000000000E+00  0.39271147339E+03  0.39271147339E+03  0.00000000000E+00 0. -1.
         21   -1    0    0  502  503 -0.00000000000E+00 -0.00000000000E+00 -0.10795619733E+03  0.10795619733E+03  0.00000000000E+00 0. -1.
         -6    2    1    2    0  503  0.56977931483E+02  0.33607195366E+02  0.30408724920E+02  0.18661099686E+03  0.17182271486E+03 0.  0.
        -24    2    3    3    0    0  0.18492737689E+02  0.69047053181E+02  0.63451868316E+02  0.12455430513E+03  0.79863373540E+02 0.  0.
          6    2    1    2  501    0 -0.56977931483E+02 -0.33607195366E+02  0.25434655114E+03  0.31405667386E+03  0.17194039102E+03 0.  0.
         24    2    5    5    0    0 -0.53268397553E+02  0.95163742353E+01  0.25281199393E+03  0.27049237927E+03  0.79524457937E+02 0.  0.
          5    1    5    5  501    0 -0.37095339302E+01 -0.43123569601E+02  0.15345572010E+01  0.43564294588E+02  0.47000000000E+01 0. -1.
        -13    1    6    6    0    0 -0.23452486736E+01  0.10320449472E+02 -0.18877784014E+01  0.10750608166E+02  0.00000000000E+00 0.  1.
         14    1    6    6    0    0 -0.50923148879E+02 -0.80407523708E+00  0.25469977234E+03  0.25974177110E+03  0.00000000000E+00 0. -1.
         -5    1    3    3    0  503  0.38485193794E+02 -0.35439857814E+02 -0.33043143395E+02  0.62056691732E+02  0.47000000000E+01 0.  1.
         13    1    4    4    0    0  0.41167486847E+02  0.13746854180E+02  0.43740274147E+02  0.61619392691E+02  0.00000000000E+00 0. -1.
        -14    1    4    4    0    0 -0.22674749158E+02  0.55300199000E+02  0.19711594169E+02  0.62934912438E+02  0.00000000000E+00 0.  1.
</event>
<event>
12    1  0.8633375E-002  0.2743937E+03  0.7818608E-02  0.1098922E+00
         21   -1    0    0  501  502  0.00000000000E+00  0.00000000000E+00  0.17347492155E+03  0.17347492155E+03  0.00000000000E+00 0.  1.
         21   -1    0    0  502  503 -0.00000000000E+00 -0.00000000000E+00 -0.44277542468E+03  0.44277542468E+03  0.00000000000E+00 0.  1.
         -6    2    1    2    0  503 -0.95030586440E+02  0.19019167447E+03 -0.18126180686E+03  0.32807905725E+03  0.17197773048E+03 0.  0.
        -24    2    3    3    0    0 -0.14760895033E+01  0.85853851806E+02 -0.13793653148E+03  0.18132077086E+03  0.80483989207E+02 0.  0.
          6    2    1    2  501    0  0.95030586440E+02 -0.19019167447E+03 -0.88038696269E+02  0.28817128898E+03  0.17345948908E+03 0.  0.
         24    2    5    5    0    0 -0.17914675543E+02 -0.10346569307E+03 -0.34880114381E+02  0.13609909269E+03  0.79248062502E+02 0.  0.
          5    1    5    5  501    0  0.11294526198E+03 -0.86725981407E+02 -0.53158581888E+02  0.15207219629E+03  0.47000000000E+01 0. -1.
        -11    1    6    6    0    0  0.26889255350E+02 -0.57867622211E+02 -0.11508739772E+01  0.63820202637E+02  0.00000000000E+00 0.  1.
         12    1    6    6    0    0 -0.44803930892E+02 -0.45598070855E+02 -0.33729240404E+02  0.72278890053E+02  0.00000000000E+00 0. -1.
         -5    1    3    3    0  503 -0.93554496937E+02  0.10433782267E+03 -0.43325275380E+02  0.14675828639E+03  0.47000000000E+01 0.  1.
         11    1    4    4    0    0 -0.11845385206E+02 -0.10006884700E+02 -0.35246083768E+01  0.15902004788E+02  0.00000000000E+00 0. -1.
        -12    1    4    4    0    0  0.10369295702E+02  0.95860736506E+02 -0.13441192311E+03  0.16541876608E+03  0.00000000000E+00 0.  1.
</event>
<event>
12    1  0.8633375E-002  0.2119203E+03  0.7818608E-02  0.1140275E+00
         21   -1    0    0  503  502  0.00000000000E+00  0.00000000000E+00  0.56764500042E+03  0.56764500042E+03  0.00000000000E+00 0. -1.
         21   -1    0    0  501  503 -0.00000000000E+00 -0.00000000000E+00 -0.10345999963E+03  0.10345999963E+03  0.00000000000E+00 0.  1.
          6    2    1    2  501    0  0.28673115562E+02 -0.11812380203E+03  0.67462017662E+02  0.22132800071E+03  0.17221956889E+03 0.  0.
         24    2    3    3    0    0  0.53458505684E+02 -0.51951685299E+01  0.36877698646E+02  0.10164223549E+03  0.78015240633E+02 0.  0.
         -6    2    1    2    0  502 -0.28673115562E+02  0.11812380203E+03  0.39672298313E+03  0.44977699934E+03  0.17359390435E+03 0.  0.
        -24    2    5    5    0    0 -0.31658738411E+02  0.11401061677E+03  0.41037345905E+03  0.43447151897E+03  0.79739754494E+02 0.  0.
          5    1    3    3  501    0 -0.24785390122E+02 -0.11292863350E+03  0.30584319015E+02  0.11968576523E+03  0.47000000000E+01 0. -1.
        -13    1    4    4    0    0  0.22731318493E+02 -0.33717209435E+02 -0.66540303986E+01  0.41204844049E+02  0.00000000000E+00 0.  1.
         14    1    4    4    0    0  0.30727187190E+02  0.28522040905E+02  0.43531729045E+02  0.60437391437E+02  0.00000000000E+00 0. -1.
         -5    1    5    5    0  502  0.29856228497E+01  0.41131852614E+01 -0.13650475915E+02  0.15305480375E+02  0.47000000000E+01 0.  1.
         11    1    6    6    0    0 -0.48492870061E+02  0.32932095397E+02  0.14232376600E+03  0.15392249907E+03  0.00000000000E+00 0. -1.
        -12    1    6    6    0    0  0.16834131649E+02  0.81078521373E+02  0.26804969305E+03  0.28054901989E+03  0.00000000000E+00 0.  1.
</event>
<event>
12    1  0.8633375E-002  0.1797097E+03  0.7818608E-02  0.1168362E+00
         21   -1    0    0  503  502  0.00000000000E+00  0.00000000000E+00  0.48554179742E+02  0.48554179742E+02  0.00000000000E+00 0. -1.
         21   -1    0    0  501  503 -0.00000000000E+00 -0.00000000000E+00 -0.67114534644E+03  0.67114534644E+03  0.00000000000E+00 0. -1.
          6    2    1    2  501    0 -0.40742119175E+02  0.31520510205E+02 -0.35470923143E+03  0.39712191896E+03  0.17097870282E+03 0.  0.
         24    2    3    3    0    0 -0.37134264931E+02  0.68263079839E+02 -0.33804964837E+03  0.35634613272E+03  0.81646799330E+02 0.  0.
         -6    2    1    2    0  502  0.40742119175E+02 -0.31520510205E+02 -0.26788193527E+03  0.32257760722E+03  0.17216886652E+03 0.  0.
        -24    2    5    5    0    0  0.21378043350E+02 -0.44327357705E+02 -0.28064788765E+03  0.29566957282E+03  0.78964068233E+02 0.  0.
          5    1    3    3  501    0 -0.36078542444E+01 -0.36742569634E+02 -0.16659583053E+02  0.40775786235E+02  0.47000000000E+01 0. -1.
        -11    1    4    4    0    0  0.22648480603E+02  0.13231658619E+02 -0.13716134896E+03  0.13964693378E+03  0.00000000000E+00 0.  1.
         12    1    4    4    0    0 -0.59782745534E+02  0.55031421220E+02 -0.20088829941E+03  0.21669919895E+03  0.00000000000E+00 0. -1.
         -5    1    5    5    0  502  0.19364075825E+02  0.12806847499E+02  0.12765952375E+02  0.26908034404E+02  0.47000000000E+01 0.  1.
         11    1    6    6    0    0  0.10699029324E+02  0.22642613542E+02 -0.84224743330E+02  0.87869019373E+02  0.00000000000E+00 0. -1.
        -12    1    6    6    0    0  0.10679014026E+02 -0.66969971247E+02 -0.19642314432E+03  0.20780055345E+03  0.00000000000E+00 0.  1.
</event>
<event>
12    1  0.8633375E-002  0.3325024E+03  0.7818608E-02  0.1070204E+00
         21   -1    0    0  501  502  0.00000000000E+00  0.00000000000E+00  0.34246085717E+03  0.34246085717E+03  0.00000000000E+00 0.  1.
         21   -1    0    0  502  503 -0.00000000000E+00 -0.00000000000E+00 -0.32538291057E+03  0.32538291057E+03  0.00000000000E+00 0. -1.
         -6    2    1    2    0  503  0.21123571892E+03 -0.18787302440E+03  0.45767492773E+02  0.33563743931E+03  0.17504577980E+03 0.  0.
        -24    2    3    3    0    0  0.82141573692E+02 -0.72384577097E+02 -0.42087351735E+02  0.14136072044E+03  0.78897040349E+02 0.  0.
          6    2    1    2  501    0 -0.21123571892E+03  0.18787302440E+03 -0.28689546176E+02  0.33220632843E+03  0.17210796712E+03 0.  0.
         24    2    5    5    0    0 -0.57432483271E+02  0.98651094421E+02  0.34226207471E+02  0.14353606013E+03  0.80003991867E+02 0.  0.
          5    1    5    5  501    0 -0.15380323564E+03  0.89221929982E+02 -0.62915753647E+02  0.18867026830E+03  0.47000000000E+01 0. -1.
        -11    1    6    6    0    0  0.18370009563E+02  0.28143406336E+02 -0.24728928766E+01  0.33699017356E+02  0.00000000000E+00 0.  1.
         12    1    6    6    0    0 -0.75802492835E+02  0.70507688084E+02  0.36699100348E+02  0.10983704277E+03  0.00000000000E+00 0. -1.
         -5    1    3    3    0  503  0.12909414522E+03 -0.11548844731E+03  0.87854844508E+02  0.19427671887E+03  0.47000000000E+01 0.  1.
         11    1    4    4    0    0 -0.12834748484E+02  0.32634135405E+01 -0.14626206488E+01  0.13323659248E+02  0.00000000000E+00 0. -1.
        -12    1    4    4    0    0  0.94976322177E+02 -0.75647990637E+02 -0.40624731086E+02  0.12803706119E+03  0.00000000000E+00 0.  1.
</event>
<event>
12    1  0.8633375E-002  0.3190314E+03  0.7818608E-02  0.1076211E+00
         21   -1    0    0  503  502  0.00000000000E+00  0.00000000000E+00  0.46784150440E+03  0.46784150440E+03  0.00000000000E+00 0. -1.
         21   -1    0    0  501  503 -0.00000000000E+00 -0.00000000000E+00 -0.41748223275E+03  0.41748223275E+03  0.00000000000E+00 0.  1.
          6    2    1    2  501    0 -0.24684857847E+03  0.10586683278E+03 -0.28169065893E+03  0.42484771211E+03  0.17030544378E+03 0.  0.
         24    2    3    3    0    0 -0.19683056482E+03  0.19947323342E+02 -0.22758396404E+03  0.31156228399E+03  0.78335363418E+02 0.  0.
         -6    2    1    2    0  502  0.24684857847E+03 -0.10586683278E+03  0.33204993058E+03  0.46047602504E+03  0.17215982768E+03 0.  0.
        -24    2    5    5    0    0  0.24877819012E+03 -0.56221375557E+02  0.26231226444E+03  0.37472156800E+03  0.80975913088E+02 0.  0.
          5    1    3    3  501    0 -0.50018013642E+02  0.85919509441E+02 -0.54106694892E+02  0.11328542812E+03  0.47000000000E+01 0. -1.
        -13    1    4    4    0    0 -0.90863865165E+02  0.20181281217E+02 -0.16231087300E+03  0.18710517256E+03  0.00000000000E+00 0.  1.
         14    1    4    4    0    0 -0.10596669966E+03 -0.23395787480E+00 -0.65273091041E+02  0.12445711144E+03  0.00000000000E+00 0. -1.
         -5    1    5    5    0  502 -0.19296116502E+01 -0.49645457226E+02  0.69737666139E+02  0.85754457044E+02  0.47000000000E+01 0.  1.
         13    1    6    6    0    0  0.20213193227E+03 -0.11884883062E+02  0.21075925974E+03  0.29226363793E+03  0.00000000000E+00 0. -1.
        -14    1    6    6    0    0  0.46646257841E+02 -0.44336492496E+02  0.51553004705E+02  0.82457930070E+02  0.00000000000E+00 0.  1.
</event>
<event>
12    1  0.8633375E-002  0.2048556E+03  0.7818608E-02  0.1145789E+00
         21   -1    0    0  503  502  0.00000000000E+00  0.00000000000E+00  0.71360184950E+02  0.71360184950E+02  0.00000000000E+00 0. -1.
         21   -1    0    0  501  503 -0.00000000000E+00 -0.00000000000E+00 -0.74749828079E+03  0.74749828079E+03  0.00000000000E+00 0. -1.
          6    2    1    2  501    0  0.79346017756E+02  0.75688158748E+02 -0.52810460417E+03  0.56644531393E+03  0.17303564031E+03 0.  0.
         24    2    3    3    0    0 -0.12095326212E+02  0.75586582928E+02 -0.33390024144E+03  0.35173864377E+03  0.79819006863E+02 0.  0.
         -6    2    1    2    0  502 -0.79346017756E+02 -0.75688158748E+02 -0.14803349166E+03  0.25241315181E+03  0.17255143188E+03 0.  0.
        -24    2    5    5    0    0 -0.10651997508E+03 -0.88732110122E+02 -0.15307152771E+03  0.22149324832E+03  0.80052944967E+02 0.  0.
          5    1    3    3  501    0  0.91441343967E+02  0.10157582045E+00 -0.19420436273E+03  0.21470667016E+03  0.47000000000E+01 0. -1.
        -13    1    4    4    0    0 -0.12092598504E+02 -0.61491689002E+01 -0.80094112295E+01  0.15754170400E+02  0.00000000000E+00 0.  1.
         14    1    4    4    0    0 -0.27277074534E-02  0.81735751828E+02 -0.32589083021E+03  0.33598447337E+03  0.00000000000E+00 0. -1.
         -5    1    5    5    0  502  0.27173957328E+02  0.13043951374E+02  0.50380360477E+01  0.30919903485E+02  0.47000000000E+01 0.  1.
         13    1    6    6    0    0 -0.40203820210E+02 -0.43540622997E+01 -0.83006976132E+01  0.41282037242E+02  0.00000000000E+00 0. -1.
        -14    1    6    6    0    0 -0.66316154874E+02 -0.84378047822E+02 -0.14477083010E+03  0.18021121108E+03  0.00000000000E+00 0.  1.
</event>
<event>
12    1  0.8633375E-002  0.1900370E+03  0.7818608E-02  0.1158575E+00
         21   -1    0    0  501  502  0.00000000000E+00  0.00000000000E+00  0.23875852540E+03  0.23875852540E+03  0.00000000000E+00 0.  1.
         21   -1    0    0  502  503 -0.00000000000E+00 -0.00000000000E+00 -0.20993330467E+03  0.20993330467E+03  0.00000000000E+00 0.  1.
         -6    2    1    2    0  503  0.21498592608E+01  0.79637749964E+02 -0.10469789699E+03  0.21696935015E+03  0.17253189896E+03 0.  0.
        -24    2    3    3    0    0 -0.50693625989E+02  0.33131858701E+02 -0.84562560244E+01  0.97638820484E+02  0.76120084227E+02 0.  0.
          6    2    1    2  501    0 -0.21498592608E+01 -0.79637749964E+02  0.13352311771E+03  0.23172247991E+03  0.17181411938E+03 0.  0.
         24    2    5    5    0    0 -0.59665832894E+02 -0.61551470190E+02  0.47361335941E+02  0.12645547000E+03  0.79995591455E+02 0.  0.
          5    1    5    5  501    0  0.57515973633E+02 -0.18086279774E+02  0.86161781773E+02  0.10526700992E+03  0.47000000000E+01 0. -1.
        -11    1    6    6    0    0 -0.90548947482E+01 -0.50225247304E+02  0.53846196413E+02  0.74188809492E+02  0.00000000000E+00 0.  1.
         12    1    6    6    0    0 -0.50610938146E+02 -0.11326222886E+02 -0.64848604722E+01  0.52266660503E+02  0.00000000000E+00 0. -1.
         -5    1    3    3    0  503  0.52843485250E+02  0.46505891264E+02 -0.96241640961E+02  0.11933052967E+03  0.47000000000E+01 0.  1.
         13    1    4    4    0    0  0.82896309390E+01  0.21125362146E+02  0.20736080669E+02  0.30740591218E+02  0.00000000000E+00 0. -1.
        -14    1    4    4    0    0 -0.58983256928E+02  0.12006496555E+02 -0.29192336694E+02  0.66898229266E+02  0.00000000000E+00 0.  1.
</event>
<event>
12    1  0.8633375E-002  0.2242032E+03  0.7818608E-02  0.1131043E+00
         21   -1    0    0  501  502  0.00000000000E+00  0.00000000000E+00  0.26825845523E+03  0.26825845523E+03  0.00000000000E+00 0.  1.
         21   -1    0    0  502  503 -0.00000000000E+00 -0.00000000000E+00 -0.22434436715E+03  0.22434436715E+03  0.00000000000E+00 0. -1.
         -6    2    1    2    0  503  0.10991906787E+03 -0.89341682819E+02 -0.79524909056E+02  0.23788919525E+03  0.17378987395E+03 0.  0.
        -24    2    3    3    0    0  0.13550635755E+03 -0.98988095802E+02 -0.40738935477E+02  0.19020057582E+03  0.79724413657E+02 0.  0.
          6    2    1    2  501    0 -0.10991906787E+03  0.89341682819E+02  0.12343899714E+03  0.25471362713E+03  0.17198170851E+03 0.  0.
         24    2    5    5    0    0 -0.30492186620E+02  0.34911299550E+02  0.12856253414E+03  0.15817536156E+03  0.79640112634E+02 0.  0.
          5    1    5    5  501    0 -0.79426881247E+02  0.54430383269E+02 -0.51235369971E+01  0.96538265567E+02  0.47000000000E+01 0. -1.
        -13    1    6    6    0    0 -0.32420581413E+02  0.55477857460E+02  0.11936943962E+03  0.13556529749E+03  0.00000000000E+00 0.  1.
         14    1    6    6    0    0  0.19283947928E+01 -0.20566557910E+02  0.91930945199E+01  0.22610064077E+02  0.00000000000E+00 0. -1.
         -5    1    3    3    0  503 -0.25587289681E+02  0.96464129830E+01 -0.38785973579E+02  0.47688619430E+02  0.47000000000E+01 0.  1.
         13    1    4    4    0    0  0.12663259011E+03 -0.65042950224E+02 -0.54606162713E+02  0.15247370678E+03  0.00000000000E+00 0. -1.
        -14    1    4    4    0    0  0.88737674379E+01 -0.33945145578E+02  0.13867227236E+02  0.37726869046E+02  0.00000000000E+00 0.  1.
</event>
<event>
12    1  0.8633375E-002  0.2542712E+03  0.7818608E-02  0.1110826E+00
         21   -1    0    0  501  502  0.00000000000E+00  0.00000000000E+00  0.13230852155E+03  0.13230852155E+03  0.00000000000E+00 0.  1.
         21   -1    0    0  502  503 -0.00000000000E+00 -0.00000000000E+00 -0.56975267201E+03  0.56975267201E+03  0.00000000000E+00 0.  1.
         -6    2    1    2    0  503 -0.11520220676E+02 -0.18536466765E+03 -0.35261819427E+03  0.43401399735E+03  0.17185977850E+03 0.  0.
        -24    2    3    3    0    0  0.43458505965E+02 -0.14149586247E+03 -0.17226764209E+03  0.24037633541E+03  0.78707822196E+02 0.  0.
          6    2    1    2  501    0  0.11520220676E+02  0.18536466765E+03 -0.84825956183E+02  0.26804719621E+03  0.17366945919E+03 0.  0.
         24    2    5    5    0    0 -0.44877874860E+01  0.18176720219E+03 -0.11766111579E+03  0.23104130763E+03  0.80476652747E+02 0.  0.
          5    1    5    5  501    0  0.16008008162E+02  0.35974654657E+01  0.32835159606E+02  0.37005888578E+02  0.47000000000E+01 0. -1.
        -13    1    6    6    0    0 -0.22317297214E+02  0.33817158008E+02  0.10286775795E+01  0.40530483691E+02  0.00000000000E+00 0.  1.
         14    1    6    6    0    0  0.17829509728E+02  0.14795004418E+03 -0.11868979337E+03  0.19051082394E+03  0.00000000000E+00 0. -1.
         -5    1    3    3    0  503 -0.54978726641E+02 -0.43868805184E+02 -0.18035055218E+03  0.19363766194E+03  0.47000000000E+01 0.  1.
         11    1    4    4    0    0  0.10162424637E+02  0.86347896851E+01 -0.89875443350E+01  0.16081368741E+02  0.00000000000E+00 0. -1.
        -12    1    4    4    0    0  0.33296081329E+02 -0.15013065215E+03 -0.16328009776E+03  0.22429496667E+03  0.00000000000E+00 0.  1.
</event>
<event>
12    1  0.8633375E-002  0.2139861E+03  0.7818608E-02  0.1138533E+00
         21   -1    0    0  503  502  0.00000000000E+00  0.00000000000E+00  0.55266103170E+03  0.55266103170E+03  0.00000000000E+00 0.  1.
         21   -1    0    0  501  503 -0.00000000000E+00 -0.00000000000E+00 -0.11547691698E+03  0.11547691698E+03  0.00000000000E+00 0.  1.
          6    2    1    2  501    0  0.43349658135E+02  0.12003013247E+03  0.40729001790E+02  0.21782769389E+03  0.17176619888E+03 0.  0.
         24    2    3    3    0    0  0.24948642854E+02  0.13208103401E+03  0.75841807853E+02  0.17612852434E+03  0.84861315927E+02 0.  0.
         -6    2    1    2    0  502 -0.43349658135E+02 -0.12003013247E+03  0.39645511293E+03  0.45031025478E+03  0.17121986869E+03 0.  0.
        -24    2    5    5    0    0 -0.46969852227E+02 -0.42616705593E+02  0.33375883887E+03  0.35051618057E+03  0.86280239383E+02 0.  0.
          5    1    3    3  501    0  0.18401015281E+02 -0.12050901543E+02 -0.35112806063E+02  0.41699169548E+02  0.47000000000E+01 0. -1.
        -13    1    4    4    0    0  0.32901466956E+02  0.27854308328E+02 -0.57960616009E+01  0.43496705052E+02  0.00000000000E+00 0.  1.
         14    1    4    4    0    0 -0.79528241014E+01  0.10422672569E+03  0.81637869454E+02  0.13263181929E+03  0.00000000000E+00 0. -1.
         -5    1    5    5    0  502  0.36201940915E+01 -0.77413426878E+02  0.62696274062E+02  0.99794074211E+02  0.47000000000E+01 0.  1.
         13    1    6    6    0    0 -0.24637931214E+02 -0.16237543156E+02  0.21896052573E+02  0.36744014213E+02  0.00000000000E+00 0. -1.
        -14    1    6    6    0    0 -0.22331921013E+02 -0.26379162437E+02  0.31186278629E+03  0.31377216636E+03  0.00000000000E+00 0.  1.
</event>
<event>
12    1  0.8633375E-002  0.2129009E+03  0.7818608E-02  0.1139398E+00
         21   -1    0    0  501  502  0.00000000000E+00  0.00000000000E+00  0.42089564218E+02  0.42089564218E+02  0.00000000000E+00 0.  1.
         21   -1    0    0  502  503 -0.00000000000E+00 -0.00000000000E+00 -0.16003224452E+04  0.16003224452E+04  0.00000000000E+00 0. -1.
         -6    2    1    2    0  503  0.56763047023E+02 -0.11064865812E+03 -0.12507196453E+04  0.12687105390E+04  0.17280518432E+03 0.  0.
        -24    2    3    3    0    0  0.35098156025E+02 -0.12889586577E+03 -0.68648221101E+03  0.70374301756E+03  0.78424383773E+02 0.  0.
          6    2    1    2  501    0 -0.56763047023E+02  0.11064865812E+03 -0.30751323572E+03  0.37370147040E+03  0.17211400229E+03 0.  0.
         24    2    5    5    0    0  0.22063607558E+02  0.95077415408E+02 -0.14074539117E+03  0.18852666367E+03  0.78781470400E+02 0.  0.
          5    1    5    5  501    0 -0.78826654581E+02  0.15571242710E+02 -0.16676784455E+03  0.18517480673E+03  0.47000000000E+01 0. -1.
        -13    1    6    6    0    0  0.40760665522E+01  0.10120081459E+03 -0.13481436675E+03  0.16862126993E+03  0.00000000000E+00 0.  1.
         14    1    6    6    0    0  0.17987541006E+02 -0.61233991811E+01 -0.59310244212E+01  0.19905393733E+02  0.00000000000E+00 0. -1.
         -5    1    3    3    0  503  0.21664890997E+02  0.18247207647E+02 -0.56423743425E+03  0.56496752145E+03  0.47000000000E+01 0.  1.
         11    1    4    4    0    0 -0.14344318888E+02 -0.12338219391E+01 -0.12433381213E+03  0.12516460618E+03  0.00000000000E+00 0. -1.
        -12    1    4    4    0    0  0.49442474913E+02 -0.12766204383E+03 -0.56214839888E+03  0.57857841139E+03  0.00000000000E+00 0.  1.
</event>
<event>
12    1  0.8633375E-002  0.2037015E+03  0.7818608E-02  0.1146937E+00
         21   -1    0    0  501  502  0.00000000000E+00  0.00000000000E+00  0.15671152238E+03  0.15671152238E+03  0.00000000000E+00 0. -1.
         21   -1    0    0  502  503 -0.00000000000E+00 -0.00000000000E+00 -0.45147088020E+03  0.45147088020E+03  0.00000000000E+00 0. -1.
         -6    2    1    2    0  503  0.11110340386E+01 -0.11041895436E+03 -0.34356510107E+03  0.39871569182E+03  0.16953950676E+03 0.  0.
        -24    2    3    3    0    0  0.31761885503E+02 -0.10547367446E+03 -0.34128556426E+03  0.36723209646E+03  0.79057339472E+02 0.  0.
          6    2    1    2  501    0 -0.11110340386E+01  0.11041895436E+03  0.48805743254E+02  0.20946671076E+03  0.17117453801E+03 0.  0.
         24    2    5    5    0    0 -0.47639830941E+01  0.35667582398E+02  0.88904547254E+02  0.12443074349E+03  0.79272438045E+02 0.  0.
          5    1    5    5  501    0  0.36529490555E+01  0.74751371966E+02 -0.40098804000E+02  0.85035967272E+02  0.47000000000E+01 0. -1.
        -13    1    6    6    0    0 -0.12001493621E+02 -0.94593500015E+01 -0.80296288995E+01  0.17262389517E+02  0.00000000000E+00 0.  1.
         14    1    6    6    0    0  0.72375105265E+01  0.45126932399E+02  0.96934176153E+02  0.10716835397E+03  0.00000000000E+00 0. -1.
         -5    1    3    3    0  503 -0.30650851464E+02 -0.49452799068E+01 -0.22795368097E+01  0.31483595362E+02  0.47000000000E+01 0.  1.
         13    1    4    4    0    0  0.33883647982E+02 -0.11338112279E+03 -0.33849299775E+03  0.35858177607E+03  0.00000000000E+00 0. -1.
        -14    1    4    4    0    0 -0.21217624791E+01  0.79074483306E+01 -0.27925665108E+01  0.86503203893E+01  0.00000000000E+00 0.  1.
</event>
<event>
12    1  0.8633375E-002  0.2201623E+03  0.7818608E-02  0.1133999E+00
         21   -1    0    0  501  502  0.00000000000E+00  0.00000000000E+00  0.11639744118E+03  0.11639744118E+03  0.00000000000E+00 0.  1.
         21   -1    0    0  502  503 -0.00000000000E+00 -0.00000000000E+00 -0.57328753550E+03  0.57328753550E+03  0.00000000000E+00 0.  1.
         -6    2    1    2    0  503  0.68404951296E+02  0.12076501354E+03 -0.41067118045E+03  0.46596377891E+03  0.17090347846E+03 0.  0.
        -24    2    3    3    0    0  0.47208103910E+02  0.28062177510E+02 -0.87560196683E+02  0.12911675135E+03  0.77383826185E+02 0.  0.
          6    2    1    2  501    0 -0.68404951296E+02 -0.12076501354E+03 -0.46218913865E+02  0.22372119777E+03  0.16926771835E+03 0.  0.
         24    2    5    5    0    0 -0.45081971545E+02 -0.10078287992E+03  0.32385243652E+02  0.13919930340E+03  0.78345829616E+02 0.  0.
          5    1    5    5  501    0 -0.23322979751E+02 -0.19982133617E+02 -0.78604157517E+02  0.84521894367E+02  0.47000000000E+01 0. -1.
        -13    1    6    6    0    0 -0.27801204908E+02 -0.64012303208E+02 -0.20287432999E+02  0.72677795055E+02  0.00000000000E+00 0.  1.
         14    1    6    6    0    0 -0.17280766636E+02 -0.36770576710E+02  0.52672676652E+02  0.66521508347E+02  0.00000000000E+00 0. -1.
         -5    1    3    3    0  503  0.21196847386E+02  0.92702836025E+02 -0.32311098377E+03  0.33684702756E+03  0.47000000000E+01 0.  1.
         11    1    4    4    0    0 -0.10666136957E+02 -0.17937071205E+02 -0.16937352159E+02  0.26877107344E+02  0.00000000000E+00 0. -1.
        -12    1    4    4    0    0  0.57874240867E+02  0.45999248715E+02 -0.70622844523E+02  0.10223964401E+03  0.00000000000E+00 0.  1.
</event>
<event>
12    1  0.8633375E-002  0.1959650E+03  0.7818608E-02  0.1153197E+00
         21   -1    0    0  501  502  0.00000000000E+00  0.00000000000E+00  0.52103494433E+03  0.52103494433E+03  0.00000000000E+00 0. -1.
         21   -1    0    0  502  503 -0.00000000000E+00 -0.00000000000E+00 -0.15389083973E+03  0.15389083973E+03  0.00000000000E+00 0. -1.
         -6    2    1    2    0  503 -0.72855899856E+02  0.58420508330E+02 -0.60054873787E+02  0.20492445941E+03  0.17223968260E+03 0.  0.
        -24    2    3    3    0    0  0.22447114505E+02  0.24454984178E+02 -0.62269204821E+02  0.10361644078E+03  0.75874855718E+02 0.  0.
          6    2    1    2  501    0  0.72855899856E+02 -0.58420508330E+02  0.42719897840E+03  0.47000132465E+03  0.17228273300E+03 0.  0.
         24    2    5    5    0    0 -0.18473570448E+02 -0.12966505269E+02  0.12185146801E+03  0.14802876272E+03  0.80965000278E+02 0.  0.
          5    1    5    5  501    0  0.91329470304E+02 -0.45454003061E+02  0.30534751038E+03  0.32197256193E+03  0.47000000000E+01 0. -1.
        -11    1    6    6    0    0 -0.18752870203E+02 -0.46130616332E+02  0.61178197458E+02  0.78882670773E+02  0.00000000000E+00 0.  1.
         12    1    6    6    0    0  0.27929975503E+00  0.33164111064E+02  0.60673270556E+02  0.69146091943E+02  0.00000000000E+00 0. -1.
         -5    1    3    3    0  503 -0.95303014361E+02  0.33965524152E+02  0.22143310349E+01  0.10130801863E+03  0.47000000000E+01 0.  1.
         13    1    4    4    0    0  0.32753097817E+02 -0.19198147840E+02 -0.28715078177E+02  0.47601365650E+02  0.00000000000E+00 0. -1.
        -14    1    4    4    0    0 -0.10305983312E+02  0.43653132018E+02 -0.33554126645E+02  0.56015075131E+02  0.00000000000E+00 0.  1.
</event>
<event>
12    1  0.8633375E-002  0.1977001E+03  0.7818608E-02  0.1151761E+00
         21   -1    0    0  503  502  0.00000000000E+00  0.00000000000E+00  0.12516697506E+03  0.12516697506E+03  0.00000000000E+00 0.  1.
         21   -1    0    0  501  503 -0.00000000000E+00 -0.00000000000E+00 -0.12854207504E+04  0.12854207504E+04  0.00000000000E+00 0.  1.
          6    2    1    2  501    0  0.93936880055E+02 -0.27388377995E+02 -0.11938460163E+04  0.12100540170E+04  0.17142973087E+03 0.  0.
         24    2    3    3    0    0  0.86281489228E+02  0.15009537155E+02 -0.47289305363E+03  0.48779959322E+03  0.81552568232E+02 0.  0.
         -6    2    1    2    0  502 -0.93936880055E+02  0.27388377995E+02  0.33592240979E+02  0.20053370850E+03  0.17178786018E+03 0.  0.
        -24    2    5    5    0    0 -0.77484695908E+02  0.69632665630E+02  0.63775792683E+02  0.14586753070E+03  0.79733296424E+02 0.  0.
          5    1    3    3  501    0  0.76553908269E+01 -0.42397915150E+02 -0.72095296272E+03  0.72225442378E+03  0.47000000000E+01 0. -1.
        -13    1    4    4    0    0  0.18657182183E+02  0.42484796851E+02 -0.20013993746E+03  0.20544839493E+03  0.00000000000E+00 0.  1.
         14    1    4    4    0    0  0.67624307045E+02 -0.27475259696E+02 -0.27275311617E+03  0.28235119829E+03  0.00000000000E+00 0. -1.
         -5    1    5    5    0  502 -0.16452184147E+02 -0.42244287635E+02 -0.30183551704E+02  0.54666177792E+02  0.47000000000E+01 0.  1.
         13    1    6    6    0    0 -0.86356183901E+02  0.45156748864E+02  0.27572912936E+02  0.10127580162E+03  0.00000000000E+00 0. -1.
        -14    1    6    6    0    0  0.88714879937E+01  0.24475916766E+02  0.36202879746E+02  0.44591729084E+02  0.00000000000E+00 0.  1.
</event>
<event>
12    1  0.8633375E-002  0.1881493E+03  0.7818608E-02  0.1160184E+00
         21   -1    0    0  501  502  0.00000000000E+00  0.00000000000E+00  0.22392373256E+04  0.22392373256E+04  0.00000000000E+00 0.  1.
         21   -1    0    0  502  503 -0.00000000000E+00 -0.00000000000E+00 -0.34863378629E+02  0.34863378629E+02  0.00000000000E+00 0.  1.
         -6    2    1    2    0  503 -0.29708020816E+02 -0.67028243251E+02  0.26148344523E+03  0.32213934502E+03  0.17327669661E+03 0.  0.
        -24    2    3    3    0    0  0.26518350088E+02  0.94632647963E+01  0.95737802541E+02  0.13107374461E+03  0.84981312179E+02 0.  0.
          6    2    1    2  501    0  0.29708020816E+02  0.67028243251E+02  0.19428905017E+04  0.19519613592E+04  0.17307308916E+03 0.  0.
         24    2    5    5    0    0 -0.40788917903E+02  0.59791007247E+02  0.14515689585E+04  0.14555329708E+04  0.79278543537E+02 0.  0.
          5    1    5    5  501    0  0.70496938719E+02  0.72372360043E+01  0.49132154323E+03  0.49642838839E+03  0.47000000000E+01 0. -1.
        -13    1    6    6    0    0  0.19575106880E+02  0.65286210783E+01  0.54693579064E+03  0.54732491884E+03  0.00000000000E+00 0.  1.
         14    1    6    6    0    0 -0.60364024783E+02  0.53262386169E+02  0.90463316787E+03  0.90820805198E+03  0.00000000000E+00 0. -1.
         -5    1    3    3    0  503 -0.56226370904E+02 -0.76491508048E+02  0.16574564268E+03  0.19106560040E+03  0.47000000000E+01 0.  1.
         11    1    4    4    0    0  0.11798931571E+02 -0.18819362485E+02  0.96657425135E+02  0.99176816970E+02  0.00000000000E+00 0. -1.
        -12    1    4    4    0    0  0.14719418518E+02  0.28282627281E+02 -0.91962259367E+00  0.31896927644E+02  0.00000000000E+00 0.  1.
</event>
<event>
12    1  0.8633375E-002  0.2123503E+03  0.7818608E-02  0.1139870E+00
         21   -1    0    0  501  502  0.00000000000E+00  0.00000000000E+00  0.52148297829E+03  0.52148297829E+03  0.00000000000E+00 0.  1.
         21   -1    0    0  502  503 -0.00000000000E+00 -0.00000000000E+00 -0.15000070494E+03  0.15000070494E+03  0.00000000000E+00 0. -1.
         -6    2    1    2    0  503 -0.31164872049E+02 -0.11988456057E+03 -0.33498510766E+02  0.21420685034E+03  0.17151929161E+03 0.  0.
        -24    2    3    3    0    0 -0.32370110335E+02 -0.13299205795E+03 -0.71482008492E+02  0.17373346172E+03  0.79617376634E+02 0.  0.
          6    2    1    2  501    0  0.31164872049E+02  0.11988456057E+03  0.40498078412E+03  0.45727683289E+03  0.17247930101E+03 0.  0.
         24    2    5    5    0    0 -0.95205133065E+01  0.10913807794E+03  0.38935667479E+03  0.41214380437E+03  0.79133653101E+02 0.  0.
          5    1    5    5  501    0  0.40685385355E+02  0.10746482633E+02  0.15624109332E+02  0.45133028514E+02  0.47000000000E+01 0. -1.
        -13    1    6    6    0    0 -0.54318623715E+01 -0.17244367387E+00  0.13689834805E+03  0.13700617710E+03  0.00000000000E+00 0.  1.
         14    1    6    6    0    0 -0.40886509350E+01  0.10931052161E+03  0.25245832674E+03  0.27513762727E+03  0.00000000000E+00 0. -1.
         -5    1    3    3    0  503  0.12052382858E+01  0.13107497379E+02  0.37983497725E+02  0.40473388619E+02  0.47000000000E+01 0.  1.
         11    1    4    4    0    0  0.18897259872E+02 -0.53712656359E+02 -0.52464785783E+02  0.77425510209E+02  0.00000000000E+00 0. -1.
        -12    1    4    4    0    0 -0.51267370207E+02 -0.79279401590E+02 -0.19017222708E+02  0.96307951510E+02  0.00000000000E+00 0.  1.
</event>
<event>
12    1  0.8633375E-002  0.2203698E+03  0.7818608E-02  0.1133788E+00
         21   -1    0    0  501  502  0.00000000000E+00  0.00000000000E+00  0.12483618920E+03  0.12483618920E+03  0.00000000000E+00 0. -1.
         21   -1    0    0  502  503 -0.00000000000E+00 -0.00000000000E+00 -0.73272508507E+03  0.73272508507E+03  0.00000000000E+00 0. -1.
         -6    2    1    2    0  503 -0.13447255865E+03 -0.30697023981E+02 -0.59799010030E+03  0.63696925178E+03  0.17062382997E+03 0.  0.
        -24    2    3    3    0    0 -0.27208713165E+02 -0.51391747893E+02 -0.18669992773E+03  0.21139258396E+03  0.80302775263E+02 0.  0.
          6    2    1    2  501    0  0.13447255865E+03  0.30697023981E+02 -0.98987955747E+01  0.22059202249E+03  0.17186529004E+03 0.  0.
         24    2    5    5    0    0  0.14132932767E+03 -0.24805229635E+02 -0.61657017471E+01  0.16434665444E+03  0.79890729571E+02 0.  0.
          5    1    5    5  501    0 -0.68567690158E+01  0.55502253616E+02 -0.37330938276E+01  0.56245368052E+02  0.47000000000E+01 0. -1.
        -11    1    6    6    0    0  0.65722059808E+02 -0.49791488630E+02  0.10111126481E+02  0.83071152419E+02  0.00000000000E+00 0.  1.
         12    1    6    6    0    0  0.75607267859E+02  0.24986258995E+02 -0.16276828228E+02  0.81275502021E+02  0.00000000000E+00 0. -1.
         -5    1    3    3    0  503 -0.10726384549E+03  0.20694723912E+02 -0.41129017257E+03  0.42557666782E+03  0.47000000000E+01 0.  1.
         13    1    4    4    0    0 -0.26913921059E+02 -0.72080341693E+02 -0.16065735241E+03  0.17813118674E+03  0.00000000000E+00 0. -1.
        -14    1    4    4    0    0 -0.29479210657E+00  0.20688593800E+02 -0.26042575320E+02  0.33261397221E+02  0.00000000000E+00 0.  1.
</event>
<event>
12    1  0.8633375E-002  0.1943198E+03  0.7818608E-02  0.1154864E+00
         21   -1    0    0  501  502  0.00000000000E+00  0.00000000000E+00  0.33503532336E+03  0.33503532336E+03  0.00000000000E+00 0.  1.
         21   -1    0    0  502  503 -0.00000000000E+00 -0.00000000000E+00 -0.17217879217E+03  0.17217879217E+03  0.00000000000E+00 0. -1.
         -6    2    1    2    0  503 -0.33734957809E+02 -0.81507193790E+02 -0.68571991353E+02  0.20502320583E+03  0.17190383042E+03 0.  0.
        -24    2    3    3    0    0 -0.52537979152E+02 -0.47505794529E+02 -0.10626413907E+03  0.15068687579E+03  0.79983920361E+02 0.  0.
          6    2    1    2  501    0  0.33734957809E+02  0.81507193790E+02  0.23142852254E+03  0.30219090971E+03  0.17314362490E+03 0.  0.
         24    2    5    5    0    0  0.59951863089E+02 -0.83227637546E+01  0.12690689314E+03  0.16182136740E+03  0.80108059117E+02 0.  0.
          5    1    5    5  501    0 -0.26216905280E+02  0.89829957545E+02  0.10452162940E+03  0.14036954230E+03  0.47000000000E+01 0. -1.
        -11    1    6    6    0    0  0.26627204861E+02  0.15142385441E+02  0.11550740538E+03  0.11950004424E+03  0.00000000000E+00 0.  1.
         12    1    6    6    0    0  0.33324658228E+02 -0.23465149195E+02  0.11399487763E+02  0.42321323160E+02  0.00000000000E+00 0. -1.
         -5    1    3    3    0  503  0.18803021343E+02 -0.34001399261E+02  0.37692147714E+02  0.54336330043E+02  0.47000000000E+01 0.  1.
         11    1    4    4    0    0 -0.35140156918E+02 -0.42394558723E+02 -0.14216781414E+02  0.56870432663E+02  0.00000000000E+00 0. -1.
        -12    1    4    4    0    0 -0.17397822233E+02 -0.51112358065E+01 -0.92047357653E+02  0.93816443127E+02  0.00000000000E+00 0.  1.
</event>
<event>
12    1  0.8633375E-002  0.2056837E+03  0.7818608E-02  0.1145058E+00
         21   -1    0    0  501  502  0.00000000000E+00  0.00000000000E+00  0.66352349764E+02  0.66352349764E+02  0.00000000000E+00 0. -1.
         21   -1    0    0  502  503 -0.00000000000E+00 -0.00000000000E+00 -0.10214275012E+04  0.10214275012E+04  0.00000000000E+00 0.  1.
         -6    2    1    2    0  503  0.39845767282E+02  0.10466635959E+03 -0.81123435485E+03  0.83690319224E+03  0.17251968780E+03 0.  0.
        -24    2    3    3    0    0  0.79185566147E+02  0.60830306835E+02 -0.69327411039E+03  0.70497166238E+03  0.79908525877E+02 0.  0.
          6    2    1    2  501    0 -0.39845767282E+02 -0.10466635959E+03 -0.14384079659E+03  0.25087665874E+03  0.17235484077E+03 0.  0.
         24    2    5    5    0    0  0.12452946426E+02 -0.71954554771E+02 -0.15370432433E+03  0.18823005620E+03  0.80454962001E+02 0.  0.
          5    1    5    5  501    0 -0.52298713709E+02 -0.32711804817E+02  0.98635277444E+01  0.62646602538E+02  0.47000000000E+01 0. -1.
        -13    1    6    6    0    0 -0.48496565708E+01 -0.10443107890E+02 -0.11049491516E+03  0.11109322188E+03  0.00000000000E+00 0.  1.
         14    1    6    6    0    0  0.17302602997E+02 -0.61511446881E+02 -0.43209409177E+02  0.77136834323E+02  0.00000000000E+00 0. -1.
         -5    1    3    3    0  503 -0.39339798864E+02  0.43836052753E+02 -0.11796024446E+03  0.13193152985E+03  0.47000000000E+01 0.  1.
         13    1    4    4    0    0  0.86633236941E+02  0.23613480685E+02 -0.47178708870E+03  0.48025615173E+03  0.00000000000E+00 0. -1.
        -14    1    4    4    0    0 -0.74476707944E+01  0.37216826150E+02 -0.22148702169E+03  0.22471551065E+03  0.00000000000E+00 0.  1.
</event>
<event>
12    1  0.8633375E-002  0.2493964E+03  0.7818608E-02  0.1113890E+00
         21   -1    0    0  501  502  0.00000000000E+00  0.00000000000E+00  0.14406081390E+03  0.14406081390E+03  0.00000000000E+00 0.  1.
         21   -1    0    0  502  503 -0.00000000000E+00 -0.00000000000E+00 -0.89712039235E+03  0.89712039235E+03  0.00000000000E+00 0.  1.
         -6    2    1    2    0  503  0.10745085470E+03  0.14422738352E+03 -0.75190198877E+03  0.79178207932E+03  0.17092406525E+03 0.  0.
        -24    2    3    3    0    0  0.62476080658E+02  0.22697282469E+02 -0.46772822409E+03  0.47942152756E+03  0.81589718683E+02 0.  0.
          6    2    1    2  501    0 -0.10745085470E+03 -0.14422738352E+03 -0.11575896765E+01  0.24939912693E+03  0.17277546170E+03 0.  0.
         24    2    5    5    0    0 -0.78408859923E+02 -0.17464087332E+03 -0.32776436557E+01  0.20703165767E+03  0.78765350123E+02 0.  0.
          5    1    5    5  501    0 -0.29041994776E+02  0.30413489804E+02  0.21200539792E+01  0.42367469260E+02  0.47000000000E+01 0. -1.
        -11    1    6    6    0    0 -0.64092902290E+02 -0.61187289063E+02 -0.21637702181E+02  0.91213894898E+02  0.00000000000E+00 0.  1.
         12    1    6    6    0    0 -0.14315957633E+02 -0.11345358426E+03  0.18360058525E+02  0.11581776277E+03  0.00000000000E+00 0. -1.
         -5    1    3    3    0  503  0.44974774041E+02  0.12153010105E+03 -0.28417376469E+03  0.31236055176E+03  0.47000000000E+01 0.  1.
         13    1    4    4    0    0  0.23831077539E+01 -0.12064797343E+02 -0.84384491803E+01  0.14914622424E+02  0.00000000000E+00 0. -1.
        -14    1    4    4    0    0  0.60092972904E+02  0.34762079812E+02 -0.45928977491E+03  0.46450690513E+03  0.00000000000E+00 0.  1.
</event>
<event>
12    1  0.8633375E-002  0.1801351E+03  0.7818608E-02  0.1167776E+00
         21   -1    0    0  501  502  0.00000000000E+00  0.00000000000E+00  0.36723080118E+03  0.36723080118E+03  0.00000000000E+00 0.  1.
         21   -1    0    0  502  503 -0.00000000000E+00 -0.00000000000E+00 -0.16026970756E+03  0.16026970756E+03  0.00000000000E+00 0.  1.
         -6    2    1    2    0  503 -0.44716227044E+02 -0.27871566143E+02 -0.73378704203E+02  0.19450729251E+03  0.17225645836E+03 0.  0.
        -24    2    3    3    0    0 -0.45522649740E+02  0.44299609120E+02 -0.65394727669E+02  0.12173942365E+03  0.80679922267E+02 0.  0.
          6    2    1    2  501    0  0.44716227044E+02  0.27871566143E+02  0.28033979782E+03  0.33299321623E+03  0.17180720199E+03 0.  0.
         24    2    5    5    0    0  0.51189346621E+02 -0.22744658799E+02  0.26023564485E+03  0.27794623202E+03  0.79961542812E+02 0.  0.
          5    1    5    5  501    0 -0.64731195766E+01  0.50616224942E+02  0.20104152963E+02  0.55046984211E+02  0.47000000000E+01 0. -1.
        -11    1    6    6    0    0 -0.10159953972E+01 -0.30199002037E+02  0.17592859373E+03  0.17850457154E+03  0.00000000000E+00 0.  1.
         12    1    6    6    0    0  0.52205342018E+02  0.74543432377E+01  0.84307051124E+02  0.99441660473E+02  0.00000000000E+00 0. -1.
         -5    1    3    3    0  503  0.80642269570E+00 -0.72171175262E+02 -0.79839765338E+01  0.72767868854E+02  0.47000000000E+01 0.  1.
         13    1    4    4    0    0 -0.31027839463E+01  0.57424490665E+02 -0.29450199930E+02  0.64610476491E+02  0.00000000000E+00 0. -1.
        -14    1    4    4    0    0 -0.42419865794E+02 -0.13124881546E+02 -0.35944527739E+02  0.57128947162E+02  0.00000000000E+00 0.  1.
</event>
<event>
12    1  0.8633375E-002  0.2285769E+03  0.7818608E-02  0.1127863E+00
         21   -1    0    0  501  502  0.00000000000E+00  0.00000000000E+00  0.10979569671E+03  0.10979569671E+03  0.00000000000E+00 0.  1.
         21   -1    0    0  502  503 -0.00000000000E+00 -0.00000000000E+00 -0.48804261612E+03  0.48804261612E+03  0.00000000000E+00 0.  1.
         -6    2    1    2    0  503  0.10016781146E+03 -0.11211317644E+03 -0.24055854412E+03  0.33099476884E+03  0.17054667708E+03 0.  0.
        -24    2    3    3    0    0  0.11365828181E+03 -0.27615495721E+02 -0.14986630681E+03  0.20621887875E+03  0.79909294891E+02 0.  0.
          6    2    1    2  501    0 -0.10016781146E+03  0.11211317644E+03 -0.13768837529E+03  0.26684354399E+03  0.17217558913E+03 0.  0.
         24    2    5    5    0    0 -0.46029691124E+02  0.11046884888E+03 -0.15393503446E+03  0.21010128618E+03  0.78258907374E+02 0.  0.
          5    1    5    5  501    0 -0.54138120339E+02  0.16443275643E+01  0.16246659165E+02  0.56742257807E+02  0.47000000000E+01 0. -1.
        -11    1    6    6    0    0  0.89386422208E+01 -0.52345764240E+01 -0.70738549824E+00  0.10382702410E+02  0.00000000000E+00 0.  1.
         12    1    6    6    0    0 -0.54968333345E+02  0.11570342530E+03 -0.15322764896E+03  0.19971858377E+03  0.00000000000E+00 0. -1.
         -5    1    3    3    0  503 -0.13490470347E+02 -0.84497680721E+02 -0.90692237313E+02  0.12477589008E+03  0.47000000000E+01 0.  1.
         11    1    4    4    0    0 -0.21619316949E+01 -0.25255109606E+02 -0.20804373352E+02  0.32792018243E+02  0.00000000000E+00 0. -1.
        -12    1    4    4    0    0  0.11582021351E+03 -0.23603861150E+01 -0.12906193345E+03  0.17342686051E+03  0.00000000000E+00 0.  1.
</event>
<event>
12    1  0.8633375E-002  0.1862353E+03  0.7818608E-02  0.1162006E+00
         21   -1    0    0  501  502  0.00000000000E+00  0.00000000000E+00  0.19297052780E+03  0.19297052780E+03  0.00000000000E+00 0.  1.
         21   -1    0    0  502  503 -0.00000000000E+00 -0.00000000000E+00 -0.54854922097E+03  0.54854922097E+03  0.00000000000E+00 0.  1.
         -6    2    1    2    0  503 -0.34529001739E+02  0.59691177907E+02 -0.48204949495E+03  0.51677394784E+03  0.17299800259E+03 0.  0.
        -24    2    3    3    0    0 -0.10812655084E+02 -0.22591941908E+02 -0.12739758872E+03  0.15189994013E+03  0.78842481263E+02 0.  0.
          6    2    1    2  501    0  0.34529001739E+02 -0.59691177907E+02  0.12647080178E+03  0.22474580093E+03  0.17251238405E+03 0.  0.
         24    2    5    5    0    0 -0.12986528865E+02 -0.71069428523E+02  0.13584313877E+03  0.17477459986E+03  0.82905300194E+02 0.  0.
          5    1    5    5  501    0  0.47515530605E+02  0.11378250616E+02 -0.93723369916E+01  0.49971201070E+02  0.47000000000E+01 0. -1.
        -13    1    6    6    0    0  0.12705302886E+02  0.11288841895E+02  0.51064034942E+02  0.53818197084E+02  0.00000000000E+00 0.  1.
         14    1    6    6    0    0 -0.25691831752E+02 -0.82358270418E+02  0.84779103831E+02  0.12095640277E+03  0.00000000000E+00 0. -1.
         -5    1    3    3    0  503 -0.23716346655E+02  0.82283119815E+02 -0.35465190623E+03  0.36487400771E+03  0.47000000000E+01 0.  1.
         13    1    4    4    0    0  0.26570150398E+02  0.12902269641E+02 -0.32584517640E+02  0.43979452519E+02  0.00000000000E+00 0. -1.
        -14    1    4    4    0    0 -0.37382805482E+02 -0.35494211549E+02 -0.94813071079E+02  0.10792048761E+03  0.00000000000E+00 0.  1.
</event>
<event>
12    1  0.8633375E-002  0.2178685E+03  0.7818608E-02  0.1135585E+00
         21   -1    0    0  503  502  0.00000000000E+00  0.00000000000E+00  0.26221259241E+03  0.26221259241E+03  0.00000000000E+00 0. -1.
         21   -1    0    0  501  503 -0.00000000000E+00 -0.00000000000E+00 -0.19690928385E+03  0.19690928385E+03  0.00000000000E+00 0. -1.
          6    2    1    2  501    0 -0.37594992880E+02  0.12851887622E+03 -0.33507653784E+02  0.21989330834E+03  0.17117189944E+03 0.  0.
         24    2    3    3    0    0  0.44059703915E+02  0.80956653429E+02 -0.12748369847E+02  0.12302900937E+03  0.80488377855E+02 0.  0.
         -6    2    1    2    0  502  0.37594992880E+02 -0.12851887622E+03  0.98810962343E+02  0.23922856791E+03  0.17186103803E+03 0.  0.
        -24    2    5    5    0    0  0.66885329892E+02 -0.10835348157E+03  0.12492731027E+03  0.19485830070E+03  0.78414285535E+02 0.  0.
          5    1    3    3  501    0 -0.81654696795E+02  0.47562222787E+02 -0.20759283937E+02  0.96864298968E+02  0.47000000000E+01 0. -1.
        -13    1    4    4    0    0  0.40002642244E+02  0.69236505164E+02  0.24611892597E+02  0.83663912717E+02  0.00000000000E+00 0.  1.
         14    1    4    4    0    0  0.40570616711E+01  0.11720148265E+02 -0.37360262444E+02  0.39365096655E+02  0.00000000000E+00 0. -1.
         -5    1    5    5    0  502 -0.29290337012E+02 -0.20165394642E+02 -0.26116347931E+02  0.44370267214E+02  0.47000000000E+01 0.  1.
         13    1    6    6    0    0  0.15644017853E+02 -0.83887770748E+02  0.44034531379E+02  0.96025690987E+02  0.00000000000E+00 0. -1.
        -14    1    6    6    0    0  0.51241312039E+02 -0.24465710825E+02  0.80892778895E+02  0.98832609714E+02  0.00000000000E+00 0.  1.
</event>
<event>
12    1  0.8633375E-002  0.1839157E+03  0.7818608E-02  0.1165128E+00
         21   -1    0    0  501  502  0.00000000000E+00  0.00000000000E+00  0.11115273307E+03  0.11115273307E+03  0.00000000000E+00 0.  1.
         21   -1    0    0  502  503 -0.00000000000E+00 -0.00000000000E+00 -0.34578317421E+03  0.34578317421E+03  0.00000000000E+00 0.  1.
         -6    2    1    2    0  503 -0.75881049774E+01  0.48021883903E+02 -0.20190199628E+03  0.27013087775E+03  0.17275009216E+03 0.  0.
        -24    2    3    3    0    0 -0.18715377183E+02 -0.40202586808E+02 -0.10395488506E+03  0.13775603114E+03  0.78762888834E+02 0.  0.
          6    2    1    2  501    0  0.75881049774E+01 -0.48021883903E+02 -0.32728444863E+02  0.18680502953E+03  0.17737329924E+03 0.  0.
         24    2    5    5    0    0 -0.61163868442E+02 -0.44491522538E+02  0.16623217347E+01  0.10970696128E+03  0.79450233858E+02 0.  0.
          5    1    5    5  501    0  0.68751973420E+02 -0.35303613649E+01 -0.34390766597E+02  0.77098068248E+02  0.47000000000E+01 0. -1.
        -11    1    6    6    0    0 -0.28325709919E+02 -0.54719970574E+02  0.26711886001E+02  0.67157619640E+02  0.00000000000E+00 0.  1.
         12    1    6    6    0    0 -0.32838158523E+02  0.10228448036E+02 -0.25049564266E+02  0.42549341644E+02  0.00000000000E+00 0. -1.
         -5    1    3    3    0  503  0.11127272206E+02  0.88224470711E+02 -0.97947111219E+02  0.13237484661E+03  0.47000000000E+01 0.  1.
         13    1    4    4    0    0  0.22614126501E+02 -0.25178482632E+02 -0.81779620674E+02  0.88505712034E+02  0.00000000000E+00 0. -1.
        -14    1    4    4    0    0 -0.41329503684E+02 -0.15024104176E+02 -0.22175264384E+02  0.49250319101E+02  0.00000000000E+00 0.  1.
</event>
<event>
12    1  0.8633375E-002  0.2092930E+03  0.7818608E-02  0.1142190E+00
         21   -1    0    0  503  502  0.00000000000E+00  0.00000000000E+00  0.16187436376E+03  0.16187436376E+03  0.00000000000E+00 0. -1.
         21   -1    0    0  501  503 -0.00000000000E+00 -0.00000000000E+00 -0.41780796386E+03  0.41780796386E+03  0.00000000000E+00 0. -1.
          6    2    1    2  501    0 -0.11340326823E+03 -0.38874407843E+02 -0.30030823307E+03  0.36604451004E+03  0.17155765111E+03 0.  0.
         24    2    3    3    0    0 -0.13725405396E+03 -0.69773271441E+01 -0.16979304715E+03  0.22950664902E+03  0.70400743348E+02 0.  0.
         -6    2    1    2    0  502  0.11340326823E+03  0.38874407843E+02  0.44374632975E+02  0.21363781757E+03  0.17117385378E+03 0.  0.
        -24    2    5    5    0    0  0.64569612429E+01  0.47712088893E+02  0.44975134576E+02  0.10622241930E+03  0.83320488819E+02 0.  0.
          5    1    3    3  501    0  0.23850785730E+02 -0.31897080699E+02 -0.13051518592E+03  0.13653786102E+03  0.47000000000E+01 0. -1.
        -13    1    4    4    0    0 -0.70802543218E+02 -0.38760720531E+02 -0.86351803160E+02  0.11820333113E+03  0.00000000000E+00 0.  1.
         14    1    4    4    0    0 -0.66451510738E+02  0.31783393387E+02 -0.83441243988E+02  0.11130331789E+03  0.00000000000E+00 0. -1.
         -5    1    5    5    0  502  0.10694630698E+03 -0.88376810499E+01 -0.60050160153E+00  0.10741539827E+03  0.47000000000E+01 0.  1.
         13    1    6    6    0    0  0.38206655468E+02  0.13063918018E+02 -0.11209483444E+01  0.40393947581E+02  0.00000000000E+00 0. -1.
        -14    1    6    6    0    0 -0.31749694225E+02  0.34648170875E+02  0.46096082921E+02  0.65828471720E+02  0.00000000000E+00 0.  1.
</event>
<event>
12    1  0.8633375E-002  0.2061674E+03  0.7818608E-02  0.1146901E+00
         21   -1    0    0  501  502  0.00000000000E+00  0.00000000000E+00  0.17890582690E+03  0.17890582690E+03  0.00000000000E+00 0. -1.
         21   -1    0    0  502  503 -0.00000000000E+00 -0.00000000000E+00 -0.23205318957E+03  0.23205318957E+03  0.00000000000E+00 0.  1.
         -6    2    1    2    0  503  0.11613724127E+03  0.97816169480E+01 -0.62442345134E+02  0.21541595488E+03  0.17006307156E+03 0.  0.
        -24    2    3    3    0    0  0.95018231090E+02  0.68432151011E+02 -0.43459221723E+02  0.15008336950E+03  0.83215925865E+02 0.  0.
          6    2    1    2  501    0 -0.11613724127E+03 -0.97816169480E+01  0.92949824616E+01  0.19554306159E+03  0.15673912529E+03 0.  0.
         24    2    5    5    0    0 -0.31656164254E+02 -0.40225472726E+02  0.36455858587E+02  0.10160859549E+03  0.79844070922E+02 0.  0.
          5    1    5    5  501    0 -0.84481077020E+02  0.30443855778E+02 -0.27160876125E+02  0.93934466097E+02  0.47000000000E+01 0. -1.
        -11    1    6    6    0    0  0.20279257899E+02 -0.48518928042E+01 -0.10326464751E+02  0.23268541832E+02  0.00000000000E+00 0.  1.
         12    1    6    6    0    0 -0.51935422153E+02 -0.35373579922E+02  0.46782323338E+02  0.78340053661E+02  0.00000000000E+00 0. -1.
         -5    1    3    3    0  503  0.21119010184E+02 -0.58650534063E+02 -0.18983123411E+02  0.65332585373E+02  0.47000000000E+01 0.  1.
         11    1    4    4    0    0  0.21987031329E+02  0.37347335654E+02  0.20695170836E+02  0.48026483559E+02  0.00000000000E+00 0. -1.
        -12    1    4    4    0    0  0.73031199761E+02  0.31084815357E+02 -0.64154392559E+02  0.10205688595E+03  0.00000000000E+00 0.  1.
</event>
<event>
12    1  0.8633375E-002  0.2211626E+03  0.7818608E-02  0.1133440E+00
         21   -1    0    0  501  502  0.00000000000E+00  0.00000000000E+00  0.39732418069E+03  0.39732418069E+03  0.00000000000E+00 0. -1.
         21   -1    0    0  502  503 -0.00000000000E+00 -0.00000000000E+00 -0.29806629769E+03  0.29806629769E+03  0.00000000000E+00 0. -1.
         -6    2    1    2    0  503  0.13594911416E+03 -0.19141164733E+02 -0.21760646758E+03  0.31026677004E+03  0.17339073802E+03 0.  0.
        -24    2    3    3    0    0  0.10696608351E+03 -0.60365908567E+02 -0.21478811232E+03  0.25957625124E+03  0.78486375098E+02 0.  0.
          6    2    1    2  501    0 -0.13594911416E+03  0.19141164733E+02  0.31686435058E+03  0.38512370833E+03  0.17049547860E+03 0.  0.
         24    2    5    5    0    0 -0.15585845358E+03  0.47510681405E+02  0.25960995064E+03  0.31803147641E+03  0.84838500194E+02 0.  0.
          5    1    5    5  501    0  0.19909339420E+02 -0.28369516671E+02  0.57254399936E+02  0.67092231922E+02  0.47000000000E+01 0. -1.
        -11    1    6    6    0    0 -0.26427473573E+02  0.30236186685E+02  0.19341713329E+02  0.44572864157E+02  0.00000000000E+00 0.  1.
         12    1    6    6    0    0 -0.12943098001E+03  0.17274494720E+02  0.24026823731E+03  0.27345861225E+03  0.00000000000E+00 0. -1.
         -5    1    3    3    0  503  0.28983030650E+02  0.41224743834E+02 -0.28183552556E+01  0.50690518799E+02  0.47000000000E+01 0.  1.
         11    1    4    4    0    0  0.11977008329E+03 -0.56075589866E+02 -0.19570302513E+03  0.23619699125E+03  0.00000000000E+00 0. -1.
        -12    1    4    4    0    0 -0.12803999776E+02 -0.42903187006E+01 -0.19085087188E+02  0.23379259992E+02  0.00000000000E+00 0.  1.
</event>
<event>
12    1  0.8633375E-002  0.2021749E+03  0.7818608E-02  0.1148488E+00
         21   -1    0    0  503  502  0.00000000000E+00  0.00000000000E+00  0.22376669510E+03  0.22376669510E+03  0.00000000000E+00 0. -1.
         21   -1    0    0  501  503 -0.00000000000E+00 -0.00000000000E+00 -0.20989128784E+03  0.20989128784E+03  0.00000000000E+00 0.  1.
          6    2    1    2  501    0 -0.10213205815E+03  0.27757353375E+02 -0.74553354571E+02  0.21548293360E+03  0.17225929300E+03 0.  0.
         24    2    3    3    0    0 -0.12783851582E+03 -0.25381974324E+00 -0.89685382253E+02  0.17429414814E+03  0.77409506752E+02 0.  0.
         -6    2    1    2    0  502  0.10213205815E+03 -0.27757353375E+02  0.88428761825E+02  0.21817504934E+03  0.16905406907E+03 0.  0.
        -24    2    5    5    0    0  0.12810034753E+03 -0.54415909736E+02  0.59161192988E+02  0.17059657452E+03  0.78945260863E+02 0.  0.
          5    1    3    3  501    0  0.25706457672E+02  0.28011173118E+02  0.15132027682E+02  0.41188785455E+02  0.47000000000E+01 0. -1.
        -13    1    4    4    0    0 -0.40330159636E+02  0.36594741866E+02 -0.30741555395E+02  0.62535910776E+02  0.00000000000E+00 0.  1.
         14    1    4    4    0    0 -0.87508356182E+02 -0.36848561609E+02 -0.58943826858E+02  0.11175823737E+03  0.00000000000E+00 0. -1.
         -5    1    5    5    0  502 -0.25968289383E+02  0.26658556361E+02  0.29267568837E+02  0.47578474821E+02  0.47000000000E+01 0.  1.
         13    1    6    6    0    0  0.26911437969E+02 -0.22512576893E+02  0.53967700302E+02  0.64370445764E+02  0.00000000000E+00 0. -1.
        -14    1    6    6    0    0  0.10118890956E+03 -0.31903332842E+02  0.51934926868E+01  0.10622612876E+03  0.00000000000E+00 0.  1.
</event>
<event>
12    1  0.8633375E-002  0.2092734E+03  0.7818608E-02  0.1142527E+00
         21   -1    0    0  501  502  0.00000000000E+00  0.00000000000E+00  0.62550472810E+03  0.62550472810E+03  0.00000000000E+00 0.  1.
         21   -1    0    0  502  503 -0.00000000000E+00 -0.00000000000E+00 -0.71820534910E+02  0.71820534910E+02  0.00000000000E+00 0. -1.
         -6    2    1    2    0  503  0.80120173605E+02  0.84809766036E+02  0.21373280651E+03  0.29912720681E+03  0.17373380397E+03 0.  0.
        -24    2    3    3    0    0  0.23147000049E+02  0.56014329284E+02  0.21283662193E+03  0.23511148351E+03  0.79401469422E+02 0.  0.
          6    2    1    2  501    0 -0.80120173605E+02 -0.84809766036E+02  0.33995138668E+03  0.39819805621E+03  0.17141414184E+03 0.  0.
         24    2    5    5    0    0 -0.11312892444E+03 -0.96619765501E+02  0.30511780431E+03  0.34855410209E+03  0.79117349201E+02 0.  0.
          5    1    5    5  501    0  0.33008750839E+02  0.11809999465E+02  0.34833582373E+02  0.49643954116E+02  0.47000000000E+01 0. -1.
        -11    1    6    6    0    0 -0.10549602261E+03 -0.92213838914E+02  0.20653815329E+03  0.24958127262E+03  0.00000000000E+00 0.  1.
         12    1    6    6    0    0 -0.76329018321E+01 -0.44059265867E+01  0.98579651018E+02  0.98972829475E+02  0.00000000000E+00 0. -1.
         -5    1    3    3    0  503  0.56973173556E+02  0.28795436752E+02  0.89618457993E+00  0.64015723300E+02  0.47000000000E+01 0.  1.
         13    1    4    4    0    0 -0.23434520761E+02  0.45094359044E+02  0.91200582297E+02  0.10440413877E+03  0.00000000000E+00 0. -1.
        -14    1    4    4    0    0  0.46581520810E+02  0.10919970240E+02  0.12163603963E+03  0.13070734474E+03  0.00000000000E+00 0.  1.
</event>
<event>
12    1  0.8633375E-002  0.1837688E+03  0.7818608E-02  0.1164584E+00
         21   -1    0    0  503  502  0.00000000000E+00  0.00000000000E+00  0.82766620631E+03  0.82766620631E+03  0.00000000000E+00 0. -1.
         21   -1    0    0  501  503 -0.00000000000E+00 -0.00000000000E+00 -0.83639193677E+02  0.83639193677E+02  0.00000000000E+00 0. -1.
          6    2    1    2  501    0 -0.37050049010E+02  0.53044445895E+02  0.45364811322E+02  0.18928532990E+03  0.17200160068E+03 0.  0.
         24    2    3    3    0    0 -0.17955948748E+02  0.49390839232E+02  0.89595695769E+02  0.14074262040E+03  0.94969602515E+02 0.  0.
         -6    2    1    2    0  502  0.37050049010E+02 -0.53044445895E+02  0.69866220132E+03  0.72202007009E+03  0.17028708317E+03 0.  0.
        -24    2    5    5    0    0 -0.29808550831E+01  0.33548531219E+02  0.35256844205E+03  0.36298832056E+03  0.79508647894E+02 0.  0.
          5    1    3    3  501    0 -0.19094100262E+02  0.36536066636E+01 -0.44230884447E+02  0.48542709498E+02  0.47000000000E+01 0. -1.
        -13    1    4    4    0    0 -0.55819785932E+02  0.37311506181E+02  0.44086927757E+02  0.80322189923E+02  0.00000000000E+00 0.  1.
         14    1    4    4    0    0  0.37863837184E+02  0.12079333050E+02  0.45508768012E+02  0.60420430479E+02  0.00000000000E+00 0. -1.
         -5    1    5    5    0  502  0.40030904093E+02 -0.86592977114E+02  0.34609375926E+03  0.35903174953E+03  0.47000000000E+01 0.  1.
         11    1    6    6    0    0 -0.11369765428E+01 -0.17547515304E+02  0.22306547288E+03  0.22375748748E+03  0.00000000000E+00 0. -1.
        -12    1    6    6    0    0 -0.18438785403E+01  0.51096046523E+02  0.12950296917E+03  0.13923083308E+03  0.00000000000E+00 0.  1.
</event>
<event>
12    1  0.8633375E-002  0.2040023E+03  0.7818608E-02  0.1147804E+00
         21   -1    0    0  503  502  0.00000000000E+00  0.00000000000E+00  0.14247207710E+03  0.14247207710E+03  0.00000000000E+00 0. -1.
         21   -1    0    0  501  503 -0.00000000000E+00 -0.00000000000E+00 -0.31468731929E+03  0.31468731929E+03  0.00000000000E+00 0. -1.
          6    2    1    2  501    0  0.78824898058E+02 -0.71391806536E+02 -0.15778225978E+03  0.25264721105E+03  0.16620835465E+03 0.  0.
         24    2    3    3    0    0  0.12251259689E+02  0.13833026669E+02 -0.46768705005E+02  0.97594249567E+02  0.83641376065E+02 0.  0.
         -6    2    1    2    0  502 -0.78824898058E+02  0.71391806536E+02 -0.14432982421E+02  0.20451218534E+03  0.17408839243E+03 0.  0.
        -24    2    5    5    0    0 -0.93119884371E+02  0.40001137844E+02 -0.63444729609E+02  0.14439594730E+03  0.80954011551E+02 0.  0.
          5    1    3    3  501    0  0.66573638369E+02 -0.85224833205E+02 -0.11101355477E+03  0.15505296148E+03  0.47000000000E+01 0. -1.
        -11    1    4    4    0    0 -0.18685559287E+02 -0.27023074618E+02 -0.94101429067E+01  0.34175246557E+02  0.00000000000E+00 0.  1.
         12    1    4    4    0    0  0.30936818976E+02  0.40856101288E+02 -0.37358562098E+02  0.63419003011E+02  0.00000000000E+00 0. -1.
         -5    1    5    5    0  502  0.14294986313E+02  0.31390668692E+02  0.49011747187E+02  0.60116238047E+02  0.47000000000E+01 0.  1.
         13    1    6    6    0    0 -0.10453186843E+02  0.11715429628E+02  0.18737989683E+02  0.24446526623E+02  0.00000000000E+00 0. -1.
        -14    1    6    6    0    0 -0.82666697528E+02  0.28285708216E+02 -0.82182719292E+02  0.11994942067E+03  0.00000000000E+00 0.  1.
</event>
<event>
12    1  0.8633375E-002  0.2089564E+03  0.7818608E-02  0.1142516E+00
         21   -1    0    0  501  502  0.00000000000E+00  0.00000000000E+00  0.18777061091E+04  0.18777061091E+04  0.00000000000E+00 0. -1.
         21   -1    0    0  502  503 -0.00000000000E+00 -0.00000000000E+00 -0.32504941080E+02  0.32504941080E+02  0.00000000000E+00 0.  1.
         -6    2    1    2    0  503  0.69256686050E+02  0.95931424064E+02  0.41024056926E+03  0.46011632943E+03  0.17149456335E+03 0.  0.
        -24    2    3    3    0    0  0.11243917462E+03  0.87864130081E+02  0.32864349136E+03  0.36732634251E+03  0.80990271915E+02 0.  0.
          6    2    1    2  501    0 -0.69256686050E+02 -0.95931424064E+02  0.14349605987E+04  0.14500947207E+04  0.17223081158E+03 0.  0.
         24    2    5    5    0    0 -0.24151777179E+02  0.15988332656E+02  0.69805983745E+03  0.70336497929E+03  0.81214668109E+02 0.  0.
          5    1    5    5  501    0 -0.45104908871E+02 -0.11191975672E+03  0.73690076128E+03  0.74672974142E+03  0.47000000000E+01 0. -1.
        -13    1    6    6    0    0 -0.40506892818E+02 -0.18481088673E+02  0.47333820354E+03  0.47542761167E+03  0.00000000000E+00 0.  1.
         14    1    6    6    0    0  0.16355115639E+02  0.34469421329E+02  0.22472163391E+03  0.22793736762E+03  0.00000000000E+00 0. -1.
         -5    1    3    3    0  503 -0.43182488568E+02  0.80672939828E+01  0.81597077896E+02  0.92789986918E+02  0.47000000000E+01 0.  1.
         11    1    4    4    0    0  0.95172952402E+02  0.67691218627E+02  0.31791355755E+03  0.33868720381E+03  0.00000000000E+00 0. -1.
        -12    1    4    4    0    0  0.17266222217E+02  0.20172911453E+02  0.10729933811E+02  0.28639138704E+02  0.00000000000E+00 0.  1.
</event>
<event>
12    1  0.8633375E-002  0.1942976E+03  0.7818608E-02  0.1154920E+00
         21   -1    0    0  501  502  0.00000000000E+00  0.00000000000E+00  0.10385600313E+04  0.10385600313E+04  0.00000000000E+00 0. -1.
         21   -1    0    0  502  503 -0.00000000000E+00 -0.00000000000E+00 -0.12238373637E+03  0.12238373637E+03  0.00000000000E+00 0. -1.
         -6    2    1    2    0  503 -0.69146482890E+02  0.60193736594E+02 -0.28829376000E+02  0.19642480309E+03  0.17130980220E+03 0.  0.
        -24    2    3    3    0    0 -0.97988824150E+02  0.48312005817E+02 -0.63422764815E+02  0.14960761901E+03  0.80150689363E+02 0.  0.
          6    2    1    2  501    0  0.69146482890E+02 -0.60193736594E+02  0.94500567093E+03  0.96451896457E+03  0.16987228410E+03 0.  0.
         24    2    5    5    0    0  0.68162260326E+02 -0.80454154424E+02  0.43777975175E+03  0.45686585829E+03  0.77177307129E+02 0.  0.
          5    1    5    5  501    0  0.98422256412E+00  0.20260417830E+02  0.50722591919E+03  0.50765310628E+03  0.47000000000E+01 0. -1.
        -11    1    6    6    0    0 -0.46590013009E+01  0.11555138448E+02  0.28648942749E+02  0.31240829667E+02  0.00000000000E+00 0.  1.
         12    1    6    6    0    0  0.72821261627E+02 -0.92009292872E+02  0.40913080900E+03  0.42562502862E+03  0.00000000000E+00 0. -1.
         -5    1    3    3    0  503  0.28842341261E+02  0.11881730777E+02  0.34593388814E+02  0.46817184082E+02  0.47000000000E+01 0.  1.
         11    1    4    4    0    0 -0.73317689453E+02  0.65503147097E+02 -0.26183110655E+02  0.10174331010E+03  0.00000000000E+00 0. -1.
        -12    1    4    4    0    0 -0.24671134697E+02 -0.17191141280E+02 -0.37239654159E+02  0.47864308913E+02  0.00000000000E+00 0.  1.
</event>
<event>
12    1  0.8633375E-002  0.2014042E+03  0.7818608E-02  0.1148762E+00
         21   -1    0    0  503  502  0.00000000000E+00  0.00000000000E+00  0.63796583717E+02  0.63796583717E+02  0.00000000000E+00 0. -1.
         21   -1    0    0  501  503 -0.00000000000E+00 -0.00000000000E+00 -0.16768280518E+04  0.16768280518E+04  0.00000000000E+00 0. -1.
          6    2    1    2  501    0 -0.10121318006E+03 -0.24782227691E+02 -0.14925207836E+04  0.15059195674E+04  0.17122262528E+03 0.  0.
         24    2    3    3    0    0 -0.17372948125E+02  0.36979741179E+02 -0.49323388095E+03  0.50121059009E+03  0.79139583799E+02 0.  0.
         -6    2    1    2    0  502  0.10121318006E+03  0.24782227691E+02 -0.12051068451E+03  0.23470506813E+03  0.17235247981E+03 0.  0.
        -24    2    5    5    0    0  0.90635929469E+02 -0.44245354561E+02 -0.94319419683E+02  0.15997383172E+03  0.80764786856E+02 0.  0.
          5    1    3    3  501    0 -0.83840231934E+02 -0.61761968870E+02 -0.99928690264E+03  0.10047089773E+04  0.47000000000E+01 0. -1.
        -13    1    4    4    0    0 -0.32985544812E+02  0.55302646006E+02 -0.38338042909E+03  0.38875053985E+03  0.00000000000E+00 0.  1.
         14    1    4    4    0    0  0.15612596688E+02 -0.18322904828E+02 -0.10985345185E+03  0.11246005024E+03  0.00000000000E+00 0. -1.
         -5    1    5    5    0  502  0.10577250589E+02  0.69027582253E+02 -0.26191264825E+02  0.74731236406E+02  0.47000000000E+01 0.  1.
         11    1    6    6    0    0  0.10555561885E+03 -0.33857188159E+02 -0.78008833065E+02  0.13554953300E+03  0.00000000000E+00 0. -1.
        -12    1    6    6    0    0 -0.14919689378E+02 -0.10388166403E+02 -0.16310586617E+02  0.24424298724E+02  0.00000000000E+00 0.  1.
</event>
<event>
12    1  0.8633375E-002  0.2645089E+03  0.7818608E-02  0.1104626E+00
         21   -1    0    0  503  502  0.00000000000E+00  0.00000000000E+00  0.43973824708E+02  0.43973824708E+02  0.00000000000E+00 0. -1.
         21   -1    0    0  501  503 -0.00000000000E+00 -0.00000000000E+00 -0.15973167536E+04  0.15973167536E+04  0.00000000000E+00 0.  1.
          6    2    1    2  501    0  0.90163405879E+02  0.17925499725E+03 -0.84868467336E+03  0.88862318114E+03  0.17065664204E+03 0.  0.
         24    2    3    3    0    0 -0.44302766908E+01  0.28714931558E+02 -0.24178475368E+03  0.25619936861E+03  0.79586900396E+02 0.  0.
         -6    2    1    2    0  502 -0.90163405879E+02 -0.17925499725E+03 -0.70465825548E+03  0.75266739712E+03  0.17234604684E+03 0.  0.
        -24    2    5    5    0    0 -0.11985212899E+03 -0.92783283560E+02 -0.43246486956E+03  0.46549130673E+03  0.81749756622E+02 0.  0.
          5    1    3    3  501    0  0.94593682569E+02  0.15054006569E+03 -0.60689991968E+03  0.63242381254E+03  0.47000000000E+01 0. -1.
        -13    1    4    4    0    0  0.13755191768E+02  0.60393022903E+01 -0.21833857776E+03  0.21885477608E+03  0.00000000000E+00 0.  1.
         14    1    4    4    0    0 -0.18185468459E+02  0.22675629267E+02 -0.23446175919E+02  0.37344592526E+02  0.00000000000E+00 0. -1.
         -5    1    5    5    0  502  0.29688723110E+02 -0.86471713688E+02 -0.27219338592E+03  0.28717609038E+03  0.47000000000E+01 0.  1.
         11    1    6    6    0    0 -0.71079140263E+02 -0.85502855622E+02 -0.20992473482E+03  0.23755289261E+03  0.00000000000E+00 0. -1.
        -12    1    6    6    0    0 -0.48772988726E+02 -0.72804279380E+01 -0.22254013474E+03  0.22793841412E+03  0.00000000000E+00 0.  1.
</event>
<event>
12    1  0.8633375E-002  0.2281862E+03  0.7818608E-02  0.1128402E+00
         21   -1    0    0  501  502  0.00000000000E+00  0.00000000000E+00  0.14938552327E+03  0.14938552327E+03  0.00000000000E+00 0. -1.
         21   -1    0    0  502  503 -0.00000000000E+00 -0.00000000000E+00 -0.49335641622E+03  0.49335641622E+03  0.00000000000E+00 0. -1.
         -6    2    1    2    0  503  0.14017871338E+03 -0.42931903191E+02 -0.34923383595E+03  0.41717286582E+03  0.17485910846E+03 0.  0.
        -24    2    3    3    0    0  0.13127709959E+03 -0.81168303840E+02 -0.31964117171E+03  0.36778585499E+03  0.96301537108E+02 0.  0.
          6    2    1    2  501    0 -0.14017871338E+03  0.42931903191E+02  0.52629429899E+01  0.22556907367E+03  0.17134902519E+03 0.  0.
         24    2    5    5    0    0 -0.14087733599E+03 -0.14047832092E+02  0.27935358021E+02  0.16406048313E+03  0.78049295428E+02 0.  0.
          5    1    5    5  501    0  0.69862261230E+00  0.56979735283E+02 -0.22672415031E+02  0.61508590537E+02  0.47000000000E+01 0. -1.
        -13    1    6    6    0    0 -0.43310441209E+02 -0.27465777769E+02 -0.19347242234E+02  0.54813128430E+02  0.00000000000E+00 0.  1.
         14    1    6    6    0    0 -0.97566894780E+02  0.13417945677E+02  0.47282600254E+02  0.10924735470E+03  0.00000000000E+00 0. -1.
         -5    1    3    3    0  503  0.89016137837E+01  0.38236400649E+02 -0.29592664232E+02  0.49387010831E+02  0.47000000000E+01 0.  1.
         11    1    4    4    0    0  0.17591226163E+02 -0.61378020933E+02 -0.85053545199E+02  0.10635233069E+03  0.00000000000E+00 0. -1.
        -12    1    4    4    0    0  0.11368587343E+03 -0.19790282907E+02 -0.23458762651E+03  0.26143352430E+03  0.00000000000E+00 0.  1.
</event>
<event>
12    1  0.8633375E-002  0.1823815E+03  0.7818608E-02  0.1165734E+00
         21   -1    0    0  501  502  0.00000000000E+00  0.00000000000E+00  0.17620626067E+02  0.17620626067E+02  0.00000000000E+00 0.  1.
         21   -1    0    0  502  503 -0.00000000000E+00 -0.00000000000E+00 -0.19707798049E+04  0.19707798049E+04  0.00000000000E+00 0.  1.
         -6    2    1    2    0  503 -0.16882207710E+02 -0.55748398964E+02 -0.11941855697E+04  0.12080323549E+04  0.17282969299E+03 0.  0.
        -24    2    3    3    0    0  0.35669244052E+02 -0.72942218865E+01 -0.93494936216E+03  0.93908075398E+03  0.80105256062E+02 0.  0.
          6    2    1    2  501    0  0.16882207710E+02  0.55748398964E+02 -0.75897360919E+03  0.78036807609E+03  0.17187350523E+03 0.  0.
         24    2    5    5    0    0 -0.11608293448E+02  0.99686811760E+02 -0.54445637279E+03  0.55950153836E+03  0.80851819002E+02 0.  0.
          5    1    5    5  501    0  0.28490501158E+02 -0.43938412796E+02 -0.21451723640E+03  0.22086653773E+03  0.47000000000E+01 0. -1.
        -13    1    6    6    0    0 -0.18570699153E+02 -0.29478607896E+01 -0.34681711874E+02  0.39451006182E+02  0.00000000000E+00 0.  1.
         14    1    6    6    0    0  0.69624057053E+01  0.10263467255E+03 -0.50977466092E+03  0.52005053218E+03  0.00000000000E+00 0. -1.
         -5    1    3    3    0  503 -0.52551451762E+02 -0.48454177077E+02 -0.25923620751E+03  0.26895160093E+03  0.47000000000E+01 0.  1.
         13    1    4    4    0    0  0.49256945437E+02  0.21309170076E+02 -0.46999754699E+03  0.47305181701E+03  0.00000000000E+00 0. -1.
        -14    1    4    4    0    0 -0.13587701384E+02 -0.28603391963E+02 -0.46495181517E+03  0.46602893697E+03  0.00000000000E+00 0.  1.
</event>
<event>
12    1  0.8633375E-002  0.2426584E+03  0.7818608E-02  0.1118107E+00
         21   -1    0    0  503  502  0.00000000000E+00  0.00000000000E+00  0.17671123277E+04  0.17671123277E+04  0.00000000000E+00 0.  1.
         21   -1    0    0  501  503 -0.00000000000E+00 -0.00000000000E+00 -0.39074201711E+02  0.39074201711E+02  0.00000000000E+00 0.  1.
          6    2    1    2  501    0  0.84268982253E+02  0.14754187828E+03  0.12116835628E+04  0.12356559725E+04  0.17262316967E+03 0.  0.
         24    2    3    3    0    0  0.39549167241E+02  0.16434640135E+03  0.10628089576E+04  0.10792334935E+04  0.81290693688E+02 0.  0.
         -6    2    1    2    0  502 -0.84268982253E+02 -0.14754187828E+03  0.51635456316E+03  0.57053055692E+03  0.17324322286E+03 0.  0.
        -24    2    5    5    0    0 -0.69087069456E+02 -0.80814207134E+02  0.46606392503E+03  0.48547580481E+03  0.84659409400E+02 0.  0.
          5    1    3    3  501    0  0.44719815012E+02 -0.16804523064E+02  0.14887460517E+03  0.15642247893E+03  0.47000000000E+01 0. -1.
        -13    1    4    4    0    0  0.25363081263E+02  0.49295934132E+02  0.58256890799E+03  0.58520074126E+03  0.00000000000E+00 0.  1.
         14    1    4    4    0    0  0.14186085978E+02  0.11505046722E+03  0.48024004965E+03  0.49403275228E+03  0.00000000000E+00 0. -1.
         -5    1    5    5    0  502 -0.15181912797E+02 -0.66727671149E+02  0.50290638132E+02  0.85054752112E+02  0.47000000000E+01 0.  1.
         13    1    6    6    0    0 -0.64812562853E+02 -0.15167369719E+02  0.28951761373E+03  0.29707097816E+03  0.00000000000E+00 0. -1.
        -14    1    6    6    0    0 -0.42745066025E+01 -0.65646837415E+02  0.17654631130E+03  0.18840482665E+03  0.00000000000E+00 0.  1.
</event>
<event>
12    1  0.8633375E-002  0.1931749E+03  0.7818608E-02  0.1155683E+00
         21   -1    0    0  501  502  0.00000000000E+00  0.00000000000E+00  0.21655169761E+02  0.21655169761E+02  0.00000000000E+00 0. -1.
         21   -1    0    0  502  503 -0.00000000000E+00 -0.00000000000E+00 -0.24822429289E+04  0.24822429289E+04  0.00000000000E+00 0. -1.
         -6    2    1    2    0  503 -0.47918928631E+02 -0.74598834010E+02 -0.19230492108E+04  0.19327026415E+04  0.17134766807E+03 0.  0.
        -24    2    3    3    0    0 -0.22632202352E+02 -0.74004904456E+02 -0.18743507937E+04  0.18776263571E+04  0.79378185175E+02 0.  0.
          6    2    1    2  501    0  0.47918928631E+02  0.74598834010E+02 -0.53753854833E+03  0.57119545720E+03  0.17162560890E+03 0.  0.
         24    2    5    5    0    0 -0.21650183741E+01 -0.20760106311E+02 -0.19002758454E+03  0.20734426619E+03  0.80283824754E+02 0.  0.
          5    1    5    5  501    0  0.50083947005E+02  0.95358940322E+02 -0.34751096379E+03  0.36385119101E+03  0.47000000000E+01 0. -1.
        -11    1    6    6    0    0 -0.27349721013E+02 -0.90637060562E+01 -0.20022822833E+02  0.35086627668E+02  0.00000000000E+00 0.  1.
         12    1    6    6    0    0  0.25184702639E+02 -0.11696400255E+02 -0.17000476171E+03  0.17225763852E+03  0.00000000000E+00 0. -1.
         -5    1    3    3    0  503 -0.25286726279E+02 -0.59392955476E+00 -0.48698417112E+02  0.55076284437E+02  0.47000000000E+01 0.  1.
         11    1    4    4    0    0  0.10521583267E+02 -0.60574095651E+02 -0.68947591064E+03  0.69221164114E+03  0.00000000000E+00 0. -1.
        -12    1    4    4    0    0 -0.33153785619E+02 -0.13430808805E+02 -0.11848748831E+04  0.11854147159E+04  0.00000000000E+00 0.  1.
</event>
<event>
12    1  0.8633375E-002  0.4460253E+03  0.7818608E-02  0.1028920E+00
         21   -1    0    0  501  502  0.00000000000E+00  0.00000000000E+00  0.64857128290E+03  0.64857128290E+03  0.00000000000E+00 0. -1.
         21   -1    0    0  502  503 -0.00000000000E+00 -0.00000000000E+00 -0.33063977660E+03  0.33063977660E+03  0.00000000000E+00 0.  1.
         -6    2    1    2    0  503 -0.41152998673E+03  0.66443127583E+01  0.29076562745E+03  0.53235919774E+03  0.17164087053E+03 0.  0.
        -24    2    3    3    0    0 -0.17967592428E+03  0.64011293535E+02  0.14425957085E+03  0.25212110007E+03  0.79833212737E+02 0.  0.
          6    2    1    2  501    0  0.41152998673E+03 -0.66443127583E+01  0.27165878854E+02  0.44685186176E+03  0.17186484375E+03 0.  0.
         24    2    5    5    0    0  0.84046652289E+02 -0.18478045977E+02 -0.75212898205E+01  0.11729054539E+03  0.79342449501E+02 0.  0.
          5    1    5    5  501    0  0.32748333444E+03  0.11833733219E+02  0.34687168675E+02  0.32956131638E+03  0.47000000000E+01 0. -1.
        -13    1    6    6    0    0  0.57345410772E+02  0.27505245201E+02 -0.92626626647E-01  0.63600654320E+02  0.00000000000E+00 0.  1.
         14    1    6    6    0    0  0.26701241517E+02 -0.45983291178E+02 -0.74286631938E+01  0.53689891069E+02  0.00000000000E+00 0. -1.
         -5    1    3    3    0  503 -0.23185406246E+03 -0.57366980777E+02  0.14650605660E+03  0.28023809766E+03  0.47000000000E+01 0.  1.
         11    1    4    4    0    0 -0.52481417283E+01 -0.61647630012E+01  0.32291746492E+02  0.33291202832E+02  0.00000000000E+00 0. -1.
        -12    1    4    4    0    0 -0.17442778255E+03  0.70176056537E+02  0.11196782436E+03  0.21882989724E+03  0.00000000000E+00 0.  1.
</event>
<event>
12    1  0.8633375E-002  0.1797889E+03  0.7818608E-02  0.1169843E+00
         21   -1    0    0  503  502  0.00000000000E+00  0.00000000000E+00  0.14240140512E+04  0.14240140512E+04  0.00000000000E+00 0. -1.
         21   -1    0    0  501  503 -0.00000000000E+00 -0.00000000000E+00 -0.46191436204E+02  0.46191436204E+02  0.00000000000E+00 0. -1.
          6    2    1    2  501    0 -0.39050455926E+01 -0.39534625503E+01  0.16133163655E+03  0.24156148419E+03  0.17970301735E+03 0.  0.
         24    2    3    3    0    0 -0.59876636758E+02  0.40614034128E+02  0.96813599842E+02  0.14510554690E+03  0.80299658966E+02 0.  0.
         -6    2    1    2    0  502  0.39050455926E+01  0.39534625503E+01  0.12164909784E+04  0.12286440032E+04  0.17229308384E+03 0.  0.
        -24    2    5    5    0    0 -0.62039545339E+01 -0.63971033141E+02  0.76971666703E+03  0.77659831488E+03  0.80687130541E+02 0.  0.
          5    1    3    3  501    0  0.55971591165E+02 -0.44567496678E+02  0.64518036704E+02  0.96455937287E+02  0.47000000000E+01 0. -1.
        -13    1    4    4    0    0 -0.41270763368E+02  0.33984631166E+02  0.10934426308E+03  0.12171441547E+03  0.00000000000E+00 0.  1.
         14    1    4    4    0    0 -0.18605873390E+02  0.66294029620E+01 -0.12530663243E+02  0.23391131429E+02  0.00000000000E+00 0. -1.
         -5    1    5    5    0  502  0.10109000126E+02  0.67924495691E+02  0.44677431138E+03  0.45204568830E+03  0.47000000000E+01 0.  1.
         13    1    6    6    0    0 -0.49791933987E-01 -0.60880410565E+02  0.76664364342E+03  0.76905715188E+03  0.00000000000E+00 0. -1.
        -14    1    6    6    0    0 -0.61541625999E+01 -0.30906225761E+01  0.30730236142E+01  0.75411629970E+01  0.00000000000E+00 0.  1.
</event>
<event>
12    1  0.8633375E-002  0.1963991E+03  0.7818608E-02  0.1153091E+00
         21   -1    0    0  501  502  0.00000000000E+00  0.00000000000E+00  0.59336749327E+03  0.59336749327E+03  0.00000000000E+00 0. -1.
         21   -1    0    0  502  503 -0.00000000000E+00 -0.00000000000E+00 -0.10513226668E+03  0.10513226668E+03  0.00000000000E+00 0.  1.
         -6    2    1    2    0  503  0.48674770368E+02 -0.80869523590E+02  0.26723207487E+02  0.19693623932E+03  0.17076486589E+03 0.  0.
        -24    2    3    3    0    0  0.58221938340E+02 -0.11518853076E+03  0.41865752125E+02  0.15794483863E+03  0.80843299820E+02 0.  0.
          6    2    1    2  501    0 -0.48674770368E+02  0.80869523590E+02  0.46151201910E+03  0.50156352062E+03  0.17223097377E+03 0.  0.
         24    2    5    5    0    0 -0.31204042094E+02  0.10403864879E+03  0.21853027158E+03  0.25681006438E+03  0.79988729763E+02 0.  0.
          5    1    5    5  501    0 -0.17470728274E+02 -0.23169125201E+02  0.24298174753E+03  0.24475345624E+03  0.47000000000E+01 0. -1.
        -11    1    6    6    0    0 -0.28708720948E+01  0.99963207082E+02  0.13158528167E+03  0.16527422978E+03  0.00000000000E+00 0.  1.
         12    1    6    6    0    0 -0.28333169999E+02  0.40754417093E+01  0.86944989909E+02  0.91535834609E+02  0.00000000000E+00 0. -1.
         -5    1    3    3    0  503 -0.95471679718E+01  0.34319007173E+02 -0.15142544638E+02  0.38991400689E+02  0.47000000000E+01 0.  1.
         13    1    4    4    0    0  0.18209550180E+02  0.58396937717E+01  0.21641076148E+02  0.28879506885E+02  0.00000000000E+00 0. -1.
        -14    1    4    4    0    0  0.40012388160E+02 -0.12102822453E+03  0.20224675977E+02  0.12906533175E+03  0.00000000000E+00 0.  1.
</event>
<event>
12    1  0.8633375E-002  0.1897772E+03  0.7818608E-02  0.1159082E+00
         21   -1    0    0  501  502  0.00000000000E+00  0.00000000000E+00  0.38248123369E+03  0.38248123369E+03  0.00000000000E+00 0. -1.
         21   -1    0    0  502  503 -0.00000000000E+00 -0.00000000000E+00 -0.98379806023E+02  0.98379806023E+02  0.00000000000E+00 0.  1.
         -6    2    1    2    0  503 -0.72540140442E+02 -0.17789994933E+02  0.86483981305E+02  0.20687559120E+03  0.17245137088E+03 0.  0.
        -24    2    3    3    0    0 -0.82006308472E+02 -0.67559660450E+02  0.51044509568E+02  0.14487015515E+03  0.84216848355E+02 0.  0.
          6    2    1    2  501    0  0.72540140442E+02  0.17789994933E+02  0.19761744636E+03  0.27398544851E+03  0.17446150003E+03 0.  0.
         24    2    5    5    0    0  0.10973057533E+03 -0.67239167498E+01  0.10861757432E+03  0.17435047706E+03  0.80711220909E+02 0.  0.
          5    1    5    5  501    0 -0.37190434887E+02  0.24513911683E+02  0.88999872041E+02  0.99634971453E+02  0.47000000000E+01 0. -1.
        -11    1    6    6    0    0  0.79183148463E+02  0.18744497990E+02  0.30887840911E+02  0.87036692961E+02  0.00000000000E+00 0.  1.
         12    1    6    6    0    0  0.30547426866E+02 -0.25468414739E+02  0.77729733410E+02  0.87313784098E+02  0.00000000000E+00 0. -1.
         -5    1    3    3    0  503  0.94661680306E+01  0.49769665517E+02  0.35439471737E+02  0.62005436051E+02  0.47000000000E+01 0.  1.
         11    1    4    4    0    0 -0.36714217815E+02 -0.15185924294E+02  0.63120221198E+02  0.74583566625E+02  0.00000000000E+00 0. -1.
        -12    1    4    4    0    0 -0.45292090657E+02 -0.52373736157E+02 -0.12075711631E+02  0.70286588525E+02  0.00000000000E+00 0.  1.
</event>
<event>
12    1  0.8633375E-002  0.2760737E+03  0.7818608E-02  0.1097909E+00
         21   -1    0    0  501  502  0.00000000000E+00  0.00000000000E+00  0.92720049959E+02  0.92720049959E+02  0.00000000000E+00 0.  1.
         21   -1    0    0  502  503 -0.00000000000E+00 -0.00000000000E+00 -0.12547703063E+04  0.12547703063E+04  0.00000000000E+00 0.  1.
         -6    2    1    2    0  503  0.14408941149E+03 -0.15985969639E+03 -0.97697060899E+03  0.10151183646E+04  0.17226967877E+03 0.  0.
        -24    2    3    3    0    0  0.12517596702E+03 -0.13332775679E+03 -0.54079918723E+03  0.57770636044E+03  0.88518724173E+02 0.  0.
          6    2    1    2  501    0 -0.14408941149E+03  0.15985969639E+03 -0.18507964736E+03  0.33237199170E+03  0.17291553998E+03 0.  0.
         24    2    5    5    0    0 -0.16475321096E+03  0.11367030743E+03 -0.11016107066E+03  0.24184389995E+03  0.79299754977E+02 0.  0.
          5    1    5    5  501    0  0.20663799479E+02  0.46189388957E+02 -0.74918576700E+02  0.90528091750E+02  0.47000000000E+01 0. -1.
        -11    1    6    6    0    0 -0.10788683025E+03  0.11231919242E+03 -0.96936487591E+02  0.18344441053E+03  0.00000000000E+00 0.  1.
         12    1    6    6    0    0 -0.56866380718E+02  0.13511150116E+01 -0.13224583072E+02  0.58399489426E+02  0.00000000000E+00 0. -1.
         -5    1    3    3    0  503  0.18913444463E+02 -0.26531939604E+02 -0.43617142175E+03  0.43741200413E+03  0.47000000000E+01 0.  1.
         11    1    4    4    0    0  0.32502621322E+02 -0.51463276400E+01 -0.36315401115E+02  0.49007279451E+02  0.00000000000E+00 0. -1.
        -12    1    4    4    0    0  0.92673345700E+02 -0.12818142915E+03 -0.50448378612E+03  0.52869908099E+03  0.00000000000E+00 0.  1.
</event>
<event>
12    1  0.8633375E-002  0.2639985E+03  0.7818608E-02  0.1104828E+00
         21   -1    0    0  501  502  0.00000000000E+00  0.00000000000E+00  0.27756137354E+03  0.27756137354E+03  0.00000000000E+00 0.  1.
         21   -1    0    0  502  503 -0.00000000000E+00 -0.00000000000E+00 -0.26198691478E+03  0.26198691478E+03  0.00000000000E+00 0. -1.
         -6    2    1    2    0  503  0.23986632962E+02  0.19879038802E+03 -0.48246061005E+02  0.26794515858E+03  0.17138829795E+03 0.  0.
        -24    2    3    3    0    0  0.51045472287E+02  0.15397478841E+03  0.19980110134E+02  0.18182013793E+03  0.79658534059E+02 0.  0.
          6    2    1    2  501    0 -0.23986632962E+02 -0.19879038802E+03  0.63820519758E+02  0.27160312974E+03  0.17205296978E+03 0.  0.
         24    2    5    5    0    0 -0.72317806734E+02 -0.10738084373E+03  0.57483124958E+01  0.15291834385E+03  0.81181685232E+02 0.  0.
          5    1    5    5  501    0  0.48331173772E+02 -0.91409544288E+02  0.58072207262E+02  0.11868478589E+03  0.47000000000E+01 0. -1.
        -11    1    6    6    0    0 -0.40369233286E+02 -0.11011221941E+03  0.17881555794E+02  0.11863442121E+03  0.00000000000E+00 0.  1.
         12    1    6    6    0    0 -0.31948573448E+02  0.27313756727E+01 -0.12133243299E+02  0.34283922637E+02  0.00000000000E+00 0. -1.
         -5    1    3    3    0  503 -0.27058839325E+02  0.44815599609E+02 -0.68226171139E+02  0.86125020651E+02  0.47000000000E+01 0.  1.
         11    1    4    4    0    0  0.36806941895E+02  0.13028176739E+02  0.35157229494E+01  0.39202610483E+02  0.00000000000E+00 0. -1.
        -12    1    4    4    0    0  0.14238530392E+02  0.14094661167E+03  0.16464387185E+02  0.14261752745E+03  0.00000000000E+00 0.  1.
</event>
<event>
12    1  0.8633375E-002  0.1917629E+03  0.7818608E-02  0.1159507E+00
         21   -1    0    0  503  502  0.00000000000E+00  0.00000000000E+00  0.10751930680E+03  0.10751930680E+03  0.00000000000E+00 0.  1.
         21   -1    0    0  501  503 -0.00000000000E+00 -0.00000000000E+00 -0.10555348822E+04  0.10555348822E+04  0.00000000000E+00 0.  1.
          6    2    1    2  501    0 -0.58838942921E+02 -0.20041006989E+02 -0.96315748515E+03  0.98206178945E+03  0.18140935460E+03 0.  0.
         24    2    3    3    0    0 -0.52576647231E+01  0.56710944192E+02 -0.48420676016E+03  0.49402725958E+03  0.79768241732E+02 0.  0.
         -6    2    1    2    0  502  0.58838942921E+02  0.20041006989E+02  0.15141909771E+02  0.18099239953E+03  0.16930832257E+03 0.  0.
        -24    2    5    5    0    0 -0.24581321568E+02  0.33154561095E+02 -0.14644039300E+02  0.91325245060E+02  0.80139791656E+02 0.  0.
          5    1    3    3  501    0 -0.53581278198E+02 -0.76751951180E+02 -0.47895072498E+03  0.48803452987E+03  0.47000000000E+01 0. -1.
        -11    1    4    4    0    0  0.11921851087E+02  0.26629648930E+02 -0.42050215846E+03  0.42151314808E+03  0.00000000000E+00 0.  1.
         12    1    4    4    0    0 -0.17179515810E+02  0.30081295262E+02 -0.63704601704E+02  0.72514111498E+02  0.00000000000E+00 0. -1.
         -5    1    5    5    0  502  0.83420264490E+02 -0.13113554106E+02  0.29785949072E+02  0.89667154471E+02  0.47000000000E+01 0.  1.
         11    1    6    6    0    0  0.18062936893E+02  0.42612795683E+02 -0.10415296651E+02  0.47440472694E+02  0.00000000000E+00 0. -1.
        -12    1    6    6    0    0 -0.42644258461E+02 -0.94582345873E+01 -0.42287426488E+01  0.43884772366E+02  0.00000000000E+00 0.  1.
</event>
<event>
12    1  0.8633375E-002  0.2507185E+03  0.7818608E-02  0.1113100E+00
         21   -1    0    0  501  502  0.00000000000E+00  0.00000000000E+00  0.30918977836E+03  0.30918977836E+03  0.00000000000E+00 0. -1.
         21   -1    0    0  502  503 -0.00000000000E+00 -0.00000000000E+00 -0.22008356024E+03  0.22008356024E+03  0.00000000000E+00 0.  1.
         -6    2    1    2    0  503 -0.14721819653E+03 -0.10438062450E+03 -0.31105510632E+02  0.25264065447E+03  0.17404377420E+03 0.  0.
        -24    2    3    3    0    0 -0.87645299774E+02 -0.76895524662E+02  0.50020487560E+02  0.14819986587E+03  0.76593281569E+02 0.  0.
          6    2    1    2  501    0  0.14721819653E+03  0.10438062450E+03  0.12021172875E+03  0.27663268413E+03  0.17177389219E+03 0.  0.
         24    2    5    5    0    0  0.88904168084E+02  0.69434253432E+02 -0.64171391891E+00  0.13789040734E+03  0.79298713645E+02 0.  0.
          5    1    5    5  501    0  0.58314028442E+02  0.34946371065E+02  0.12085344267E+03  0.13874227679E+03  0.47000000000E+01 0. -1.
        -11    1    6    6    0    0  0.64332730333E+01  0.52586167518E+02  0.66828914815E+01  0.53398062275E+02  0.00000000000E+00 0.  1.
         12    1    6    6    0    0  0.82470895051E+02  0.16848085914E+02 -0.73246054004E+01  0.84492345060E+02  0.00000000000E+00 0. -1.
         -5    1    3    3    0  503 -0.59572896752E+02 -0.27485099835E+02 -0.81125998193E+02  0.10444078860E+03  0.47000000000E+01 0.  1.
         11    1    4    4    0    0 -0.20621102764E+02  0.98531507385E+01 -0.79421173874E+01  0.24194869028E+02  0.00000000000E+00 0. -1.
        -12    1    4    4    0    0 -0.67024197010E+02 -0.86748675401E+02  0.57962604948E+02  0.12400499684E+03  0.00000000000E+00 0.  1.
</event>
<event>
12    1  0.8633375E-002  0.1918786E+03  0.7818608E-02  0.1157276E+00
         21   -1    0    0  501  502  0.00000000000E+00  0.00000000000E+00  0.28543474095E+03  0.28543474095E+03  0.00000000000E+00 0.  1.
         21   -1    0    0  502  503 -0.00000000000E+00 -0.00000000000E+00 -0.23423127295E+03  0.23423127295E+03  0.00000000000E+00 0.  1.
         -6    2    1    2    0  503  0.26086585840E+02  0.77471572426E+02 -0.14971472861E+03  0.24337607093E+03  0.17359452020E+03 0.  0.
        -24    2    3    3    0    0 -0.18171987675E+02 -0.25382025555E+02 -0.64039206855E+02  0.10230846666E+03  0.73427065702E+02 0.  0.
          6    2    1    2  501    0 -0.26086585840E+02 -0.77471572426E+02  0.20091819660E+03  0.27628994297E+03  0.17113052435E+03 0.  0.
         24    2    5    5    0    0 -0.46174899793E+02 -0.85293138848E+02  0.21574990546E+03  0.24970447990E+03  0.79982902369E+02 0.  0.
          5    1    5    5  501    0  0.20088313953E+02  0.78215664228E+01 -0.14831708858E+02  0.26585463066E+02  0.47000000000E+01 0. -1.
        -11    1    6    6    0    0  0.14506639810E+01 -0.75449830457E+01  0.10919804097E+03  0.10946800147E+03  0.00000000000E+00 0.  1.
         12    1    6    6    0    0 -0.47625563774E+02 -0.77748155803E+02  0.10655186449E+03  0.14023647843E+03  0.00000000000E+00 0. -1.
         -5    1    3    3    0  503  0.44258573516E+02  0.10285359798E+03 -0.85675521756E+02  0.14106760427E+03  0.47000000000E+01 0.  1.
         11    1    4    4    0    0  0.28669494537E+02 -0.10024058098E+02 -0.21702276385E+02  0.37328413548E+02  0.00000000000E+00 0. -1.
        -12    1    4    4    0    0 -0.46841482212E+02 -0.15357967458E+02 -0.42336930471E+02  0.64980053108E+02  0.00000000000E+00 0.  1.
</event>
<event>
12    1  0.8633375E-002  0.1961480E+03  0.7818608E-02  0.1155451E+00
         21   -1    0    0  503  502  0.00000000000E+00  0.00000000000E+00  0.22071676675E+02  0.22071676675E+02  0.00000000000E+00 0.  1.
         21   -1    0    0  501  503 -0.00000000000E+00 -0.00000000000E+00 -0.22803243298E+04  0.22803243298E+04  0.00000000000E+00 0.  1.
          6    2    1    2  501    0 -0.11377723852E+02  0.66638557488E+02 -0.17119319642E+04  0.17219303803E+04  0.17251966407E+03 0.  0.
         24    2    3    3    0    0  0.48323642945E+01  0.11146613864E+03 -0.12868373870E+04  0.12941456581E+04  0.80090398202E+02 0.  0.
         -6    2    1    2    0  502  0.11377723852E+02 -0.66638557488E+02 -0.54632068890E+03  0.58046562618E+03  0.18413011192E+03 0.  0.
        -24    2    5    5    0    0  0.61062767596E+02  0.75246909924E+01 -0.20833146682E+03  0.23085499242E+03  0.78145664616E+02 0.  0.
          5    1    3    3  501    0 -0.16210088146E+02 -0.44827581147E+02 -0.42509457719E+03  0.42778472220E+03  0.47000000000E+01 0. -1.
        -11    1    4    4    0    0  0.26750925421E+02  0.90263908359E+01 -0.16210688464E+03  0.16454704430E+03  0.00000000000E+00 0.  1.
         12    1    4    4    0    0 -0.21918561127E+02  0.10243974780E+03 -0.11247305024E+04  0.11295986138E+04  0.00000000000E+00 0. -1.
         -5    1    5    5    0  502 -0.49685043744E+02 -0.74163248481E+02 -0.33798922208E+03  0.34961063376E+03  0.47000000000E+01 0.  1.
         13    1    6    6    0    0  0.24506281768E+01  0.84355747678E+01 -0.14224833811E+03  0.14251931165E+03  0.00000000000E+00 0. -1.
        -14    1    6    6    0    0  0.58612139419E+02 -0.91088377538E+00 -0.66083128716E+02  0.88335680772E+02  0.00000000000E+00 0.  1.
</event>
<event>
12    1  0.8633375E-002  0.1832706E+03  0.7818608E-02  0.1165154E+00
         21   -1    0    0  503  502  0.00000000000E+00  0.00000000000E+00  0.84426300351E+02  0.84426300351E+02  0.00000000000E+00 0.  1.
         21   -1    0    0  501  503 -0.00000000000E+00 -0.00000000000E+00 -0.39773879326E+03  0.39773879326E+03  0.00000000000E+00 0.  1.
          6    2    1    2  501    0 -0.66204709921E+01 -0.62295298873E+02 -0.13084179705E+03  0.22354633283E+03  0.17008483814E+03 0.  0.
         24    2    3    3    0    0  0.33406328542E+02 -0.93749652169E+02 -0.10471828315E+03  0.16613510569E+03  0.82036421485E+02 0.  0.
         -6    2    1    2    0  502  0.66204709921E+01  0.62295298873E+02 -0.18247069586E+03  0.25861876078E+03  0.17223116351E+03 0.  0.
        -24    2    5    5    0    0 -0.37781107788E+02  0.87545123976E+02 -0.16099220476E+03  0.20300878465E+03  0.78756052547E+02 0.  0.
          5    1    3    3  501    0 -0.40026799534E+02  0.31454353296E+02 -0.26123513906E+02  0.57411227134E+02  0.47000000000E+01 0. -1.
        -11    1    4    4    0    0  0.13835608428E+02 -0.41151405683E+02  0.41906290747E+01  0.43616781430E+02  0.00000000000E+00 0.  1.
         12    1    4    4    0    0  0.19570720114E+02 -0.52598246486E+02 -0.10890891222E+03  0.12251832426E+03  0.00000000000E+00 0. -1.
         -5    1    5    5    0  502  0.44401578780E+02 -0.25249825103E+02 -0.21478491091E+02  0.55609976132E+02  0.47000000000E+01 0.  1.
         11    1    6    6    0    0 -0.77677849340E+01  0.42098432251E+01  0.81868273339E+01  0.12045140288E+02  0.00000000000E+00 0. -1.
        -12    1    6    6    0    0 -0.30013322854E+02  0.83335280751E+02 -0.16917903210E+03  0.19096364436E+03  0.00000000000E+00 0.  1.
</event>
<event>
12    1  0.8633375E-002  0.1875648E+03  0.7818608E-02  0.1160810E+00
         21   -1    0    0  503  502  0.00000000000E+00  0.00000000000E+00  0.20370747565E+03  0.20370747565E+03  0.00000000000E+00 0. -1.
         21   -1    0    0  501  503 -0.00000000000E+00 -0.00000000000E+00 -0.18839630158E+03  0.18839630158E+03  0.00000000000E+00 0.  1.
          6    2    1    2  501    0  0.10653199254E+02  0.72091144179E+02 -0.49877263948E+02  0.19408323554E+03  0.17282921378E+03 0.  0.
         24    2    3    3    0    0  0.85764239885E+01  0.93082437084E+02 -0.88438768211E+02  0.14987885811E+03  0.76839841512E+02 0.  0.
         -6    2    1    2    0  502 -0.10653199254E+02 -0.72091144179E+02  0.65188438015E+02  0.19802054169E+03  0.17219749928E+03 0.  0.
        -24    2    5    5    0    0 -0.74948045484E+01 -0.11809644079E+03  0.54125916460E+02  0.15036624328E+03  0.75348861058E+02 0.  0.
          5    1    3    3  501    0  0.20767752657E+01 -0.20991292905E+02  0.38561504263E+02  0.44204377434E+02  0.47000000000E+01 0. -1.
        -11    1    4    4    0    0  0.13468621514E+02  0.31238702163E+02 -0.80428400750E+02  0.87326902645E+02  0.00000000000E+00 0.  1.
         12    1    4    4    0    0 -0.48921975260E+01  0.61843734921E+02 -0.80103674608E+01  0.62551955464E+02  0.00000000000E+00 0. -1.
         -5    1    5    5    0  502 -0.31583947058E+01  0.46005296616E+02  0.11062521555E+02  0.47654298411E+02  0.47000000000E+01 0.  1.
         11    1    6    6    0    0  0.28157227917E+02 -0.90396732945E+02  0.30905898056E+02  0.99597054905E+02  0.00000000000E+00 0. -1.
        -12    1    6    6    0    0 -0.35652032465E+02 -0.27699707850E+02  0.23220018405E+02  0.50769188378E+02  0.00000000000E+00 0.  1.
</event>
<event>
12    1  0.8633375E-002  0.1997850E+03  0.7818608E-02  0.1150088E+00
         21   -1    0    0  501  502  0.00000000000E+00  0.00000000000E+00  0.26348085175E+03  0.26348085175E+03  0.00000000000E+00 0.  1.
         21   -1    0    0  502  503 -0.00000000000E+00 -0.00000000000E+00 -0.16468128407E+03  0.16468128407E+03  0.00000000000E+00 0.  1.
         -6    2    1    2    0  503  0.89503713955E+02 -0.46622710358E+02 -0.12465940657E+02  0.20017349704E+03  0.17242226454E+03 0.  0.
        -24    2    3    3    0    0  0.45806169759E+02  0.39693160102E+02 -0.25060090577E+02  0.10249746378E+03  0.78765282924E+02 0.  0.
          6    2    1    2  501    0 -0.89503713955E+02  0.46622710358E+02  0.11126550833E+03  0.22798863878E+03  0.17150572625E+03 0.  0.
         24    2    5    5    0    0 -0.86291777277E+02  0.30237577684E+02  0.14590190050E+03  0.18925159227E+03  0.78538007857E+02 0.  0.
          5    1    5    5  501    0 -0.32119366778E+01  0.16385132674E+02 -0.34636392166E+02  0.38737046509E+02  0.47000000000E+01 0. -1.
        -13    1    6    6    0    0 -0.15316448944E+02  0.35975359583E+02  0.91936720698E+02  0.99905859278E+02  0.00000000000E+00 0.  1.
         14    1    6    6    0    0 -0.70975328332E+02 -0.57377818990E+01  0.53965179798E+02  0.89345732990E+02  0.00000000000E+00 0. -1.
         -5    1    3    3    0  503  0.43697544195E+02 -0.86315870459E+02  0.12594149920E+02  0.97676033263E+02  0.47000000000E+01 0.  1.
         13    1    4    4    0    0 -0.22445253366E+02  0.58272159066E+01 -0.63161191830E+01  0.24034125851E+02  0.00000000000E+00 0. -1.
        -14    1    4    4    0    0  0.68251423125E+02  0.33865944195E+02 -0.18743971394E+02  0.78463337926E+02  0.00000000000E+00 0.  1.
</event>
<event>
12    1  0.8633375E-002  0.2598681E+03  0.7818608E-02  0.1107346E+00
         21   -1    0    0  501  502  0.00000000000E+00  0.00000000000E+00  0.40659499541E+02  0.40659499541E+02  0.00000000000E+00 0. -1.
         21   -1    0    0  502  503 -0.00000000000E+00 -0.00000000000E+00 -0.16758516943E+04  0.16758516943E+04  0.00000000000E+00 0.  1.
         -6    2    1    2    0  503 -0.19280555289E+03 -0.18206100756E+02 -0.72471059223E+03  0.76989406667E+03  0.17328008561E+03 0.  0.
        -24    2    3    3    0    0 -0.70932812885E+02  0.36134643815E+02 -0.45509669327E+03  0.46902927014E+03  0.80859628960E+02 0.  0.
          6    2    1    2  501    0  0.19280555289E+03  0.18206100756E+02 -0.91048160254E+03  0.94661712718E+03  0.17205171777E+03 0.  0.
         24    2    5    5    0    0  0.10050823022E+03 -0.50914879460E+02 -0.58688043236E+03  0.60305299486E+03  0.80932338599E+02 0.  0.
          5    1    5    5  501    0  0.92297322671E+02  0.69120980215E+02 -0.32360117018E+03  0.34356413232E+03  0.47000000000E+01 0. -1.
        -11    1    6    6    0    0  0.66183022525E+02  0.50402912307E+01 -0.38751458907E+03  0.39315792469E+03  0.00000000000E+00 0.  1.
         12    1    6    6    0    0  0.34325207693E+02 -0.55955170690E+02 -0.19936584329E+03  0.20989507017E+03  0.00000000000E+00 0. -1.
         -5    1    3    3    0  503 -0.12187274000E+03 -0.54340744571E+02 -0.26961389896E+03  0.30086479653E+03  0.47000000000E+01 0.  1.
         13    1    4    4    0    0 -0.34263691280E+02  0.34807507217E+02 -0.92702922276E+02  0.10478260780E+03  0.00000000000E+00 0. -1.
        -14    1    4    4    0    0 -0.36669121605E+02  0.13271365983E+01 -0.36239377099E+03  0.36424666234E+03  0.00000000000E+00 0.  1.
</event>
<event>
12    1  0.8633375E-002  0.2279056E+03  0.7818608E-02  0.1129931E+00
         21   -1    0    0  501  502  0.00000000000E+00  0.00000000000E+00  0.63710678642E+03  0.63710678642E+03  0.00000000000E+00 0. -1.
         21   -1    0    0  502  503 -0.00000000000E+00 -0.00000000000E+00 -0.13871972559E+03  0.13871972559E+03  0.00000000000E+00 0.  1.
         -6    2    1    2    0  503  0.14549411842E+03 -0.30205790012E+02  0.50888111230E+03  0.55758491701E+03  0.17280053522E+03 0.  0.
        -24    2    3    3    0    0  0.14603054871E+03 -0.19362499131E+02  0.51688961219E+03  0.54329888240E+03  0.79366094121E+02 0.  0.
          6    2    1    2  501    0 -0.14549411842E+03  0.30205790012E+02 -0.10494051470E+02  0.21824159500E+03  0.15949401376E+03 0.  0.
         24    2    5    5    0    0 -0.90331592155E+02 -0.15402711250E+02 -0.56973534793E+02  0.13276954072E+03  0.77361018749E+02 0.  0.
          5    1    5    5  501    0 -0.55162526268E+02  0.45608501262E+02  0.46479483323E+02  0.85472054272E+02  0.47000000000E+01 0. -1.
        -13    1    6    6    0    0 -0.51965330054E+01 -0.16687039801E+02 -0.43090974358E+02  0.46500465844E+02  0.00000000000E+00 0.  1.
         14    1    6    6    0    0 -0.85135059150E+02  0.12843285512E+01 -0.13882560435E+02  0.86269074879E+02  0.00000000000E+00 0. -1.
         -5    1    3    3    0  503 -0.53643028497E+00 -0.10843290881E+02 -0.80084998864E+01  0.14286034614E+02  0.47000000000E+01 0.  1.
         13    1    4    4    0    0  0.82196027881E+02  0.22439049584E+02  0.34264144968E+03  0.35307628211E+03  0.00000000000E+00 0. -1.
        -14    1    4    4    0    0  0.63834520827E+02 -0.41801548715E+02  0.17424816250E+03  0.19022260029E+03  0.00000000000E+00 0.  1.
</event>
<event>
12    1  0.8633375E-002  0.3229538E+03  0.7818608E-02  0.1074453E+00
         21   -1    0    0  501  502  0.00000000000E+00  0.00000000000E+00  0.16568273997E+03  0.16568273997E+03  0.00000000000E+00 0.  1.
         21   -1    0    0  502  503 -0.00000000000E+00 -0.00000000000E+00 -0.12190597789E+04  0.12190597789E+04  0.00000000000E+00 0. -1.
         -6    2    1    2    0  503 -0.24323196552E+03  0.12386401458E+03 -0.10098290493E+04  0.10602140639E+04  0.17261248288E+03 0.  0.
        -24    2    3    3    0    0 -0.71635250248E+02  0.45736435089E+01 -0.23889124916E+03  0.26143824612E+03  0.78284100031E+02 0.  0.
          6    2    1    2  501    0  0.24323196552E+03 -0.12386401458E+03 -0.43547989620E+02  0.32452845500E+03  0.17005354317E+03 0.  0.
         24    2    5    5    0    0  0.18329131501E+03 -0.13058363077E+03 -0.82555438564E+02  0.25254438803E+03  0.79469973591E+02 0.  0.
          5    1    5    5  501    0  0.59940650510E+02  0.67196161887E+01  0.39007448944E+02  0.71984066976E+02  0.47000000000E+01 0. -1.
        -13    1    6    6    0    0  0.16283459286E+03 -0.74707405622E+02 -0.63074408184E+02  0.18993336214E+03  0.00000000000E+00 0.  1.
         14    1    6    6    0    0  0.20456722159E+02 -0.55876225146E+02 -0.19481030380E+02  0.62611025888E+02  0.00000000000E+00 0. -1.
         -5    1    3    3    0  503 -0.17159671528E+03  0.11929037107E+03 -0.77093780015E+03  0.79877581775E+03  0.47000000000E+01 0.  1.
         11    1    4    4    0    0 -0.22870865719E+02  0.87053854893E+00 -0.19306833787E+03  0.19442020837E+03  0.00000000000E+00 0. -1.
        -12    1    4    4    0    0 -0.48764384529E+02  0.37031049600E+01 -0.45822911293E+02  0.67018037753E+02  0.00000000000E+00 0.  1.
</event>
<event>
12    1  0.8633375E-002  0.1945054E+03  0.7818608E-02  0.1156709E+00
         21   -1    0    0  501  502  0.00000000000E+00  0.00000000000E+00  0.63880455486E+02  0.63880455486E+02  0.00000000000E+00 0. -1.
         21   -1    0    0  502  503 -0.00000000000E+00 -0.00000000000E+00 -0.81948970681E+03  0.81948970681E+03  0.00000000000E+00 0. -1.
         -6    2    1    2    0  503 -0.21854059622E+02  0.69062765586E+02 -0.63208106053E+03  0.66133109319E+03  0.18051338519E+03 0.  0.
        -24    2    3    3    0    0 -0.35250199770E+02 -0.53515115152E+01 -0.15244200994E+03  0.17574623958E+03  0.79855864363E+02 0.  0.
          6    2    1    2  501    0  0.21854059622E+02 -0.69062765586E+02 -0.12352819079E+03  0.22203906910E+03  0.16969050879E+03 0.  0.
         24    2    5    5    0    0  0.23021702664E+02  0.14971588663E+02 -0.16291945896E+02  0.85712848937E+02  0.79543181425E+02 0.  0.
          5    1    5    5  501    0 -0.11676430421E+01 -0.84034354248E+02 -0.10723624489E+03  0.13632622016E+03  0.47000000000E+01 0. -1.
        -11    1    6    6    0    0 -0.82865286514E+01  0.22049099554E+01 -0.42234282038E+02  0.43095971555E+02  0.00000000000E+00 0.  1.
         12    1    6    6    0    0  0.31308231316E+02  0.12766678707E+02  0.25942336141E+02  0.42616877382E+02  0.00000000000E+00 0. -1.
         -5    1    3    3    0  503  0.13396140147E+02  0.74414277101E+02 -0.47963905059E+03  0.48558485361E+03  0.47000000000E+01 0.  1.
         11    1    4    4    0    0 -0.57984546652E+02 -0.47400803541E-01 -0.13396025530E+03  0.14597109268E+03  0.00000000000E+00 0. -1.
        -12    1    4    4    0    0  0.22734346882E+02 -0.53041107117E+01 -0.18481754640E+02  0.29775146905E+02  0.00000000000E+00 0.  1.
</event>
<event>
12    1  0.8633375E-002  0.1895515E+03  0.7818608E-02  0.1160220E+00
         21   -1    0    0  501  502  0.00000000000E+00  0.00000000000E+00  0.77886680796E+02  0.77886680796E+02  0.00000000000E+00 0.  1.
         21   -1    0    0  502  503 -0.00000000000E+00 -0.00000000000E+00 -0.48892549905E+03  0.48892549905E+03  0.00000000000E+00 0.  1.
         -6    2    1    2    0  503 -0.63382974961E+02 -0.19761721353E+02 -0.11967742997E+03  0.21921867506E+03  0.17124897986E+03 0.  0.
        -24    2    3    3    0    0 -0.97330673545E+02 -0.16784033877E+02 -0.40268354384E+02  0.13267848701E+03  0.78911828925E+02 0.  0.
          6    2    1    2  501    0  0.63382974961E+02  0.19761721353E+02 -0.29136138828E+03  0.34759350479E+03  0.17754396313E+03 0.  0.
         24    2    5    5    0    0 -0.15690735463E+02  0.32919624261E+02 -0.22977325582E+03  0.24639582621E+03  0.81149573274E+02 0.  0.
          5    1    5    5  501    0  0.79073710424E+02 -0.13157902907E+02 -0.61588132458E+02  0.10119767857E+03  0.47000000000E+01 0. -1.
        -13    1    6    6    0    0 -0.93025854204E+01  0.29994253246E+02 -0.21625357912E+02  0.38129377494E+02  0.00000000000E+00 0.  1.
         14    1    6    6    0    0 -0.63881500425E+01  0.29253710144E+01 -0.20814789791E+03  0.20826644872E+03  0.00000000000E+00 0. -1.
         -5    1    3    3    0  503  0.33947698584E+02 -0.29776874761E+01 -0.79409075589E+02  0.86540188050E+02  0.47000000000E+01 0.  1.
         13    1    4    4    0    0 -0.42825197844E+02  0.21654332838E+01 -0.58164135106E+02  0.72261699982E+02  0.00000000000E+00 0. -1.
        -14    1    4    4    0    0 -0.54505475701E+02 -0.18949467161E+02  0.17895780721E+02  0.60416787027E+02  0.00000000000E+00 0.  1.
</event>
<event>
12    1  0.8633375E-002  0.2066243E+03  0.7818608E-02  0.1145381E+00
         21   -1    0    0  501  502  0.00000000000E+00  0.00000000000E+00  0.85142167516E+02  0.85142167516E+02  0.00000000000E+00 0. -1.
         21   -1    0    0  502  503 -0.00000000000E+00 -0.00000000000E+00 -0.53903630307E+03  0.53903630307E+03  0.00000000000E+00 0. -1.
         -6    2    1    2    0  503 -0.10854335099E+03  0.22735002597E+02 -0.13399041771E+03  0.24626614642E+03  0.17434174327E+03 0.  0.
        -24    2    3    3    0    0  0.10733804057E+02  0.16690328200E+01 -0.28703164077E+02  0.85709892801E+02  0.80026957182E+02 0.  0.
          6    2    1    2  501    0  0.10854335099E+03 -0.22735002597E+02 -0.31990371784E+03  0.37791232416E+03  0.16787136944E+03 0.  0.
         24    2    5    5    0    0  0.38226232884E+02 -0.47644812383E+02 -0.26954449168E+03  0.28778387481E+03  0.80212546271E+02 0.  0.
          5    1    5    5  501    0  0.70317118108E+02  0.24909809786E+02 -0.50359226164E+02  0.90128449351E+02  0.47000000000E+01 0. -1.
        -13    1    6    6    0    0 -0.20994548578E+01 -0.21950966645E+02 -0.10608898043E+02  0.24470418162E+02  0.00000000000E+00 0.  1.
         14    1    6    6    0    0  0.40325687742E+02 -0.25693845738E+02 -0.25893559363E+03  0.26331345665E+03  0.00000000000E+00 0. -1.
         -5    1    3    3    0  503 -0.11927715505E+03  0.21065969777E+02 -0.10528725363E+03  0.16055625362E+03  0.47000000000E+01 0.  1.
         13    1    4    4    0    0  0.54317016945E+01  0.40596136241E+02 -0.19484236517E+02  0.45356202814E+02  0.00000000000E+00 0. -1.
        -14    1    4    4    0    0  0.53021023626E+01 -0.38927103421E+02 -0.92189275596E+01  0.40353689987E+02  0.00000000000E+00 0.  1.
</event>
<event>
12    1  0.8633375E-002  0.1849199E+03  0.7818608E-02  0.1163286E+00
         21   -1    0    0  503  502  0.00000000000E+00  0.00000000000E+00  0.10356160558E+03  0.10356160558E+03  0.00000000000E+00 0.  1.
         21   -1    0    0  501  503 -0.00000000000E+00 -0.00000000000E+00 -0.87964496908E+03  0.87964496908E+03  0.00000000000E+00 0. -1.
          6    2    1    2  501    0 -0.66146412980E+02 -0.39719820297E+01 -0.77673634511E+03  0.79828547459E+03  0.17189887881E+03 0.  0.
         24    2    3    3    0    0 -0.48321524645E+01  0.27627281291E+02 -0.19822808732E+03  0.21566051261E+03  0.80177713423E+02 0.  0.
         -6    2    1    2    0  502  0.66146412980E+02  0.39719820297E+01  0.65298161404E+00  0.18492110007E+03  0.17263910992E+03 0.  0.
        -24    2    5    5    0    0 -0.13787011747E+02  0.30609167285E+02  0.25496859955E+02  0.96954058982E+02  0.87309775344E+02 0.  0.
          5    1    3    3  501    0 -0.61314260515E+02 -0.31599263321E+02 -0.57850825779E+03  0.58262496198E+03  0.47000000000E+01 0. -1.
        -11    1    4    4    0    0  0.30813349627E+02  0.63615891221E+01 -0.14385405632E+03  0.14725461572E+03  0.00000000000E+00 0.  1.
         12    1    4    4    0    0 -0.35645502091E+02  0.21265692169E+02 -0.54374031003E+02  0.68405896897E+02  0.00000000000E+00 0. -1.
         -5    1    5    5    0  502  0.79933424727E+02 -0.26637185255E+02 -0.24843878341E+02  0.87967041089E+02  0.47000000000E+01 0.  1.
         11    1    6    6    0    0 -0.10219543881E+02 -0.27250390813E+02 -0.77625709021E+01  0.30121095325E+02  0.00000000000E+00 0. -1.
        -12    1    6    6    0    0 -0.35674678665E+01  0.57859558098E+02  0.33259430857E+02  0.66832963657E+02  0.00000000000E+00 0.  1.
</event>
<event>
12    1  0.8633375E-002  0.3214174E+03  0.7818608E-02  0.1075034E+00
         21   -1    0    0  503  502  0.00000000000E+00  0.00000000000E+00  0.73261546850E+02  0.73261546850E+02  0.00000000000E+00 0. -1.
         21   -1    0    0  501  503 -0.00000000000E+00 -0.00000000000E+00 -0.14384340350E+04  0.14384340350E+04  0.00000000000E+00 0. -1.
          6    2    1    2  501    0 -0.20918112138E+03 -0.17270170907E+03 -0.79138011730E+03  0.85416135838E+03  0.17241378782E+03 0.  0.
         24    2    3    3    0    0 -0.35917821042E+02 -0.45473608851E+02 -0.16627831461E+03  0.19311558504E+03  0.79291943496E+02 0.  0.
         -6    2    1    2    0  502  0.20918112138E+03  0.17270170907E+03 -0.57379237086E+03  0.65753422348E+03  0.17184571083E+03 0.  0.
        -24    2    5    5    0    0  0.16024841307E+03  0.18988216150E+03 -0.41735659092E+03  0.49265905514E+03  0.82411355316E+02 0.  0.
          5    1    3    3  501    0 -0.17326330034E+03 -0.12722810022E+03 -0.62510180269E+03  0.66104577334E+03  0.47000000000E+01 0. -1.
        -11    1    4    4    0    0 -0.21016050743E+02 -0.37886278109E+02 -0.17045904604E+03  0.17587873900E+03  0.00000000000E+00 0.  1.
         12    1    4    4    0    0 -0.14901770299E+02 -0.75873307422E+01  0.41807314264E+01  0.17236846031E+02  0.00000000000E+00 0. -1.
         -5    1    5    5    0  502  0.48932708314E+02 -0.17180452426E+02 -0.15643577994E+03  0.16487516834E+03  0.47000000000E+01 0.  1.
         13    1    6    6    0    0  0.61153512784E+02  0.11246315972E+03 -0.27089126011E+03  0.29961606971E+03  0.00000000000E+00 0. -1.
        -14    1    6    6    0    0  0.99094900284E+02  0.77419001777E+02 -0.14646533080E+03  0.19304298544E+03  0.00000000000E+00 0.  1.
</event>
<event>
12    1  0.8633375E-002  0.1880998E+03  0.7818608E-02  0.1160579E+00
         21   -1    0    0  503  502  0.00000000000E+00  0.00000000000E+00  0.34284069934E+03  0.34284069934E+03  0.00000000000E+00 0.  1.
         21   -1    0    0  501  503 -0.00000000000E+00 -0.00000000000E+00 -0.10769803995E+03  0.10769803995E+03  0.00000000000E+00 0. -1.
          6    2    1    2  501    0  0.39237351428E+02  0.63641812760E+02  0.16867456331E+03  0.25265122147E+03  0.17260266893E+03 0.  0.
         24    2    3    3    0    0  0.27474145645E+02 -0.32666753085E+02  0.83737452622E+02  0.12361589437E+03  0.80293106390E+02 0.  0.
         -6    2    1    2    0  502 -0.39237351428E+02 -0.63641812760E+02  0.66468096078E+02  0.19788751783E+03  0.17073843105E+03 0.  0.
        -24    2    5    5    0    0 -0.29557725432E+01  0.57746162512E+01  0.85851925343E+02  0.11706167778E+03  0.79314566974E+02 0.  0.
          5    1    3    3  501    0  0.11763205784E+02  0.96308565845E+02  0.84937110691E+02  0.12903532709E+03  0.47000000000E+01 0. -1.
        -11    1    4    4    0    0  0.54968679291E+01  0.26685171852E+02  0.30648434997E+02  0.41007810494E+02  0.00000000000E+00 0.  1.
         12    1    4    4    0    0  0.21977277716E+02 -0.59351924937E+02  0.53089017626E+02  0.82608083878E+02  0.00000000000E+00 0. -1.
         -5    1    5    5    0  502 -0.36281578885E+02 -0.69416429011E+02 -0.19383829264E+02  0.80825840051E+02  0.47000000000E+01 0.  1.
         13    1    6    6    0    0 -0.22992107255E+02 -0.13122461296E+02 -0.44421304100E+00  0.26477033665E+02  0.00000000000E+00 0. -1.
        -14    1    6    6    0    0  0.20036334712E+02  0.18897077547E+02  0.86296138384E+02  0.90584644110E+02  0.00000000000E+00 0.  1.
</event>
<event>
12    1  0.8633375E-002  0.1935176E+03  0.7818608E-02  0.1155519E+00
         21   -1    0    0  501  502  0.00000000000E+00  0.00000000000E+00  0.18078658811E+02  0.18078658811E+02  0.00000000000E+00 0. -1.
         21   -1    0    0  502  503 -0.00000000000E+00 -0.00000000000E+00 -0.21365512229E+04  0.21365512229E+04  0.00000000000E+00 0. -1.
         -6    2    1    2    0  503  0.68305298051E+02  0.52664471477E+02 -0.12579880672E+04  0.12726533337E+04  0.17225960171E+03 0.  0.
        -24    2    3    3    0    0  0.10336736908E+03  0.34217921690E+02 -0.11399480912E+04  0.11480533741E+04  0.81787651049E+02 0.  0.
          6    2    1    2  501    0 -0.68305298051E+02 -0.52664471477E+02 -0.86048449685E+03  0.88197654792E+03  0.17323366149E+03 0.  0.
         24    2    5    5    0    0 -0.80387303037E+02  0.12348769191E+02 -0.37318060184E+03  0.39018403843E+03  0.79782276622E+02 0.  0.
          5    1    5    5  501    0  0.12082004986E+02 -0.65013240668E+02 -0.48730389500E+03  0.49179250949E+03  0.47000000000E+01 0. -1.
        -11    1    6    6    0    0  0.63431603568E+01  0.23441629573E+02 -0.53356241452E+02  0.58622812814E+02  0.00000000000E+00 0.  1.
         12    1    6    6    0    0 -0.86730463393E+02 -0.11092860382E+02 -0.31982436039E+03  0.33156122561E+03  0.00000000000E+00 0. -1.
         -5    1    3    3    0  503 -0.35062071030E+02  0.18446549787E+02 -0.11803997597E+03  0.12459995968E+03  0.47000000000E+01 0.  1.
         11    1    4    4    0    0  0.94053925809E+02  0.24836524650E+02 -0.11194092684E+04  0.11236280986E+04  0.00000000000E+00 0. -1.
        -12    1    4    4    0    0  0.93134432716E+01  0.93813970403E+01 -0.20538822863E+02  0.24425275445E+02  0.00000000000E+00 0.  1.
</event>
<event>
12    1  0.8633375E-002  0.2427593E+03  0.7818608E-02  0.1118776E+00
         21   -1    0    0  501  502  0.00000000000E+00  0.00000000000E+00  0.55745434018E+03  0.55745434018E+03  0.00000000000E+00 0. -1.
         21   -1    0    0  502  503 -0.00000000000E+00 -0.00000000000E+00 -0.11749494439E+03  0.11749494439E+03  0.00000000000E+00 0. -1.
         -6    2    1    2    0  503  0.16900003893E+03 -0.81153993609E+01  0.10198948268E+03  0.25882941877E+03  0.16722422247E+03 0.  0.
        -24    2    3    3    0    0  0.69004628147E+02  0.10891860382E+02 -0.89047186837E+01  0.10823070697E+03  0.82184673684E+02 0.  0.
          6    2    1    2  501    0 -0.16900003893E+03  0.81153993609E+01  0.33796991310E+03  0.41611986580E+03  0.17408390990E+03 0.  0.
         24    2    5    5    0    0 -0.90413344786E+02  0.54546718298E+02  0.27310725521E+03  0.30404404208E+03  0.81885830774E+02 0.  0.
          5    1    5    5  501    0 -0.78586694140E+02 -0.46431318937E+02  0.64862657891E+02  0.11207582372E+03  0.47000000000E+01 0. -1.
        -11    1    6    6    0    0 -0.13381825360E+02  0.54050182375E+02  0.97416133939E+02  0.11220694549E+03  0.00000000000E+00 0.  1.
         12    1    6    6    0    0 -0.77031519426E+02  0.49653592269E+00  0.17569112127E+03  0.19183709659E+03  0.00000000000E+00 0. -1.
         -5    1    3    3    0  503  0.99995410779E+02 -0.19007259743E+02  0.11089420136E+03  0.15059871180E+03  0.47000000000E+01 0.  1.
         11    1    4    4    0    0  0.71090589043E+02 -0.21078373550E+02 -0.14911819011E+02  0.75634198801E+02  0.00000000000E+00 0. -1.
        -12    1    4    4    0    0 -0.20859608965E+01  0.31970233933E+02  0.60071003271E+01  0.32596508171E+02  0.00000000000E+00 0.  1.
</event>
<event>
12    1  0.8633375E-002  0.2002759E+03  0.7818608E-02  0.1149701E+00
         21   -1    0    0  501  502  0.00000000000E+00  0.00000000000E+00  0.15535780813E+04  0.15535780813E+04  0.00000000000E+00 0. -1.
         21   -1    0    0  502  503 -0.00000000000E+00 -0.00000000000E+00 -0.28445695693E+02  0.28445695693E+02  0.00000000000E+00 0.  1.
         -6    2    1    2    0  503 -0.31205856226E+02 -0.95510217354E+02  0.51837012838E+03  0.55571396482E+03  0.17324668429E+03 0.  0.
        -24    2    3    3    0    0 -0.19567907126E+02 -0.33845000932E+02  0.10452224943E+03  0.13710890312E+03  0.79659046000E+02 0.  0.
          6    2    1    2  501    0  0.31205856226E+02  0.95510217354E+02  0.10067622573E+04  0.10263098122E+04  0.17217892120E+03 0.  0.
         24    2    5    5    0    0 -0.48481329344E+02  0.46349307422E+02  0.46117394004E+03  0.47272554175E+03  0.79305341924E+02 0.  0.
          5    1    5    5  501    0  0.79687185569E+02  0.49160909932E+02  0.54558831721E+03  0.55358427045E+03  0.47000000000E+01 0. -1.
        -11    1    6    6    0    0 -0.20437115777E+02  0.31001309751E+02  0.61965375189E+02  0.72238941229E+02  0.00000000000E+00 0.  1.
         12    1    6    6    0    0 -0.28044213567E+02  0.15347997671E+02  0.39920856485E+03  0.40048660052E+03  0.00000000000E+00 0. -1.
         -5    1    3    3    0  503 -0.11637949099E+02 -0.61665216422E+02  0.41384787894E+03  0.41860506170E+03  0.47000000000E+01 0.  1.
         13    1    4    4    0    0 -0.28882637977E+02  0.92373493336E+01  0.82376502138E+02  0.87780541715E+02  0.00000000000E+00 0. -1.
        -14    1    4    4    0    0  0.93147308511E+01 -0.43082350266E+02  0.22145747295E+02  0.49328361401E+02  0.00000000000E+00 0.  1.
</event>
<event>
12    1  0.8633375E-002  0.1787596E+03  0.7818608E-02  0.1169019E+00
         21   -1    0    0  503  502  0.00000000000E+00  0.00000000000E+00  0.22854192845E+03  0.22854192845E+03  0.00000000000E+00 0.  1.
         21   -1    0    0  501  503 -0.00000000000E+00 -0.00000000000E+00 -0.31784459347E+03  0.31784459347E+03  0.00000000000E+00 0.  1.
          6    2    1    2  501    0  0.22036187355E+02 -0.37270297354E+02 -0.24912383248E+03  0.30659953459E+03  0.17339527699E+03 0.  0.
         24    2    3    3    0    0  0.19571935057E+02 -0.90917909018E+02 -0.19970275569E+03  0.23346492166E+03  0.77301695941E+02 0.  0.
         -6    2    1    2    0  502 -0.22036187355E+02  0.37270297354E+02  0.15982116747E+03  0.23978698732E+03  0.17343680434E+03 0.  0.
        -24    2    5    5    0    0  0.10401577018E+02  0.77902243284E+02  0.57360957347E+02  0.12479416909E+03  0.78143156432E+02 0.  0.
          5    1    3    3  501    0  0.24642522985E+01  0.53647611664E+02 -0.49421076793E+02  0.73134612927E+02  0.47000000000E+01 0. -1.
        -11    1    4    4    0    0  0.12777404424E+02 -0.63571143693E+02 -0.19421996293E+03  0.20475826326E+03  0.00000000000E+00 0.  1.
         12    1    4    4    0    0  0.67945306327E+01 -0.27346765325E+02 -0.54827927642E+01  0.28706658404E+02  0.00000000000E+00 0. -1.
         -5    1    5    5    0  502 -0.32437764373E+02 -0.40631945931E+02  0.10246021012E+03  0.11499281823E+03  0.47000000000E+01 0.  1.
         11    1    6    6    0    0 -0.23520380328E+02 -0.15248327433E+01  0.60480406011E+01  0.24333355724E+02  0.00000000000E+00 0. -1.
        -12    1    6    6    0    0  0.33921957346E+02  0.79427076028E+02  0.51312916745E+02  0.10046081336E+03  0.00000000000E+00 0.  1.
</event>
<event>
12    1  0.8633375E-002  0.3632851E+03  0.7818608E-02  0.1057448E+00
         21   -1    0    0  501  502  0.00000000000E+00  0.00000000000E+00  0.54869049741E+03  0.54869049741E+03  0.00000000000E+00 0.  1.
         21   -1    0    0  502  503 -0.00000000000E+00 -0.00000000000E+00 -0.24482916946E+03  0.24482916946E+03  0.00000000000E+00 0. -1.
         -6    2    1    2    0  503 -0.18749678865E+03 -0.25921271769E+03  0.93537774714E+02  0.37513385249E+03  0.17213312646E+03 0.  0.
        -24    2    3    3    0    0 -0.86346289851E+02 -0.11564994572E+03 -0.19850115196E+02  0.16603914553E+03  0.79651610525E+02 0.  0.
          6    2    1    2  501    0  0.18749678865E+03  0.25921271769E+03  0.21032355324E+03  0.41838581438E+03  0.16871400020E+03 0.  0.
         24    2    5    5    0    0  0.17255236697E+03  0.27649937324E+03  0.20830928469E+03  0.39496976268E+03  0.79888250666E+02 0.  0.
          5    1    5    5  501    0  0.14944421681E+02 -0.17286655551E+02  0.20142685460E+01  0.23416051701E+02  0.47000000000E+01 0. -1.
        -11    1    6    6    0    0  0.22834874602E+02  0.71627443439E+02  0.16719025911E+02  0.77015894328E+02  0.00000000000E+00 0.  1.
         12    1    6    6    0    0  0.14971749237E+03  0.20487192980E+03  0.19159025878E+03  0.31795386835E+03  0.00000000000E+00 0. -1.
         -5    1    3    3    0  503 -0.10115049880E+03 -0.14356277197E+03  0.11338788991E+03  0.20909470697E+03  0.47000000000E+01 0.  1.
         11    1    4    4    0    0 -0.29826411770E+01  0.11720388634E+02 -0.50137646605E+01  0.13092039345E+02  0.00000000000E+00 0. -1.
        -12    1    4    4    0    0 -0.83363648674E+02 -0.12737033435E+03 -0.14836350535E+02  0.15294710618E+03  0.00000000000E+00 0.  1.
</event>
<event>
12    1  0.8633375E-002  0.1926961E+03  0.7818608E-02  0.1159119E+00
         21   -1    0    0  503  502  0.00000000000E+00  0.00000000000E+00  0.23273231621E+03  0.23273231621E+03  0.00000000000E+00 0.  1.
         21   -1    0    0  501  503 -0.00000000000E+00 -0.00000000000E+00 -0.58622974265E+03  0.58622974265E+03  0.00000000000E+00 0.  1.
          6    2    1    2  501    0  0.82368380912E+02  0.18655862567E+02 -0.53205364188E+03  0.56587353254E+03  0.17320272981E+03 0.  0.
         24    2    3    3    0    0  0.12927648554E+02  0.45535121660E+02 -0.42913097512E+03  0.43875282136E+03  0.78166956178E+02 0.  0.
         -6    2    1    2    0  502 -0.82368380912E+02 -0.18655862567E+02  0.17855621543E+03  0.25308852632E+03  0.15823681210E+03 0.  0.
        -24    2    5    5    0    0  0.99141760672E+01  0.12253274320E+02  0.98551709807E+02  0.12701610275E+03  0.78563459906E+02 0.  0.
          5    1    3    3  501    0  0.69440732358E+02 -0.26879259093E+02 -0.10292266675E+03  0.12712071118E+03  0.47000000000E+01 0. -1.
        -11    1    4    4    0    0  0.22036835989E+02  0.35831857954E+02 -0.42112625781E+03  0.42322200935E+03  0.00000000000E+00 0.  1.
         12    1    4    4    0    0 -0.91091874347E+01  0.97032637062E+01 -0.80047173147E+01  0.15530812006E+02  0.00000000000E+00 0. -1.
         -5    1    5    5    0  502 -0.92282556979E+02 -0.30909136887E+02  0.80004505625E+02  0.12607242357E+03  0.47000000000E+01 0.  1.
         13    1    6    6    0    0  0.11327776820E+01  0.11472606539E+02 -0.11692436484E+02  0.16420016961E+02  0.00000000000E+00 0. -1.
        -14    1    6    6    0    0  0.87813983852E+01  0.78066778075E+00  0.11024414629E+03  0.11059608579E+03  0.00000000000E+00 0.  1.
</event>
<event>
12    1  0.8633375E-002  0.1768955E+03  0.7818608E-02  0.1170988E+00
         21   -1    0    0  501  502  0.00000000000E+00  0.00000000000E+00  0.19695894714E+03  0.19695894714E+03  0.00000000000E+00 0.  1.
         21   -1    0    0  502  503 -0.00000000000E+00 -0.00000000000E+00 -0.16339557049E+03  0.16339557049E+03  0.00000000000E+00 0.  1.
         -6    2    1    2    0  503 -0.39273347948E+02 -0.12513637860E+02 -0.14865993503E+02  0.17751901094E+03  0.17202620292E+03 0.  0.
        -24    2    3    3    0    0  0.19551137642E+02 -0.57648214643E+02 -0.24294613567E+02  0.10262949897E+03  0.78974819886E+02 0.  0.
          6    2    1    2  501    0  0.39273347948E+02  0.12513637860E+02  0.48429370151E+02  0.18283550669E+03  0.17141887767E+03 0.  0.
         24    2    5    5    0    0  0.81286709582E+01 -0.54045136611E+02  0.46958557245E+02  0.10918555995E+03  0.82033092836E+02 0.  0.
          5    1    5    5  501    0  0.31144676990E+02  0.66558774471E+02  0.14708129061E+01  0.73649946738E+02  0.47000000000E+01 0. -1.
        -13    1    6    6    0    0  0.27607144090E+02  0.30749989009E+01 -0.65394007532E+01  0.28537235067E+02  0.00000000000E+00 0.  1.
         14    1    6    6    0    0 -0.19478473132E+02 -0.57120135512E+02  0.53497957998E+02  0.80648324883E+02  0.00000000000E+00 0. -1.
         -5    1    3    3    0  503 -0.58824485590E+02  0.45134576783E+02  0.94286200636E+01  0.74889511967E+02  0.47000000000E+01 0.  1.
         11    1    4    4    0    0  0.46068507184E+02 -0.38660935566E+02 -0.33366375353E+02  0.68777105908E+02  0.00000000000E+00 0. -1.
        -12    1    4    4    0    0 -0.26517369541E+02 -0.18987279077E+02  0.90717617863E+01  0.33852393062E+02  0.00000000000E+00 0.  1.
</event>
<event>
12    1  0.8633375E-002  0.1897458E+03  0.7818608E-02  0.1159173E+00
         21   -1    0    0  503  502  0.00000000000E+00  0.00000000000E+00  0.68166605761E+02  0.68166605761E+02  0.00000000000E+00 0.  1.
         21   -1    0    0  501  503 -0.00000000000E+00 -0.00000000000E+00 -0.59599478134E+03  0.59599478134E+03  0.00000000000E+00 0.  1.
          6    2    1    2  501    0 -0.71006293095E+02  0.25046109377E+02 -0.37939810529E+03  0.42325690640E+03  0.17185541964E+03 0.  0.
         24    2    3    3    0    0 -0.37790345783E+02  0.76103247796E+02 -0.18495059341E+03  0.21943822370E+03  0.82015836635E+02 0.  0.
         -6    2    1    2    0  502  0.71006293095E+02 -0.25046109377E+02 -0.14843007028E+03  0.24090448070E+03  0.17416739592E+03 0.  0.
        -24    2    5    5    0    0  0.12506130908E+02 -0.59775790255E+02 -0.29167645834E+02  0.10352167393E+03  0.78335413442E+02 0.  0.
          5    1    3    3  501    0 -0.33215947312E+02 -0.51057138419E+02 -0.19444751188E+03  0.20381868269E+03  0.47000000000E+01 0. -1.
        -11    1    4    4    0    0 -0.44237839958E+02  0.19164556616E+02 -0.13524734063E+03  0.14358311134E+03  0.00000000000E+00 0.  1.
         12    1    4    4    0    0  0.64474941745E+01  0.56938691180E+02 -0.49703252777E+02  0.75855112359E+02  0.00000000000E+00 0. -1.
         -5    1    5    5    0  502  0.58500162187E+02  0.34729680878E+02 -0.11926242445E+03  0.13738280677E+03  0.47000000000E+01 0.  1.
         11    1    6    6    0    0 -0.14301638172E+02 -0.51580374843E+02 -0.46211247140E+02  0.70714576189E+02  0.00000000000E+00 0. -1.
        -12    1    6    6    0    0  0.26807769080E+02 -0.81954154122E+01  0.17043601306E+02  0.32807097743E+02  0.00000000000E+00 0.  1.
</event>
<event>
12    1  0.8633375E-002  0.2901354E+03  0.7818608E-02  0.1090337E+00
         21   -1    0    0  503  502  0.00000000000E+00  0.00000000000E+00  0.21667291034E+03  0.21667291034E+03  0.00000000000E+00 0.  1.
         21   -1    0    0  501  503 -0.00000000000E+00 -0.00000000000E+00 -0.41553512740E+03  0.41553512740E+03  0.00000000000E+00 0. -1.
          6    2    1    2  501    0 -0.74921317840E+02  0.22128456629E+03 -0.18101762977E+03  0.34197358433E+03  0.17204210807E+03 0.  0.
         24    2    3    3    0    0 -0.75177568033E+02  0.55927404271E+02 -0.64175593405E+02  0.13944652896E+03  0.80915303662E+02 0.  0.
         -6    2    1    2    0  502  0.74921317840E+02 -0.22128456629E+03 -0.17844587293E+02  0.29023445342E+03  0.17128206419E+03 0.  0.
        -24    2    5    5    0    0 -0.30311123363E+02 -0.68684800899E+02  0.16530966392E+02  0.10164939630E+03  0.66505344479E+02 0.  0.
          5    1    3    3  501    0  0.25625019290E+00  0.16535716201E+03 -0.11684203636E+03  0.20252705536E+03  0.47000000000E+01 0. -1.
        -13    1    4    4    0    0 -0.64977222294E+02  0.27281831705E+02 -0.23077851974E+01  0.70510025038E+02  0.00000000000E+00 0.  1.
         14    1    4    4    0    0 -0.10200345739E+02  0.28645572565E+02 -0.61867808208E+02  0.68936503924E+02  0.00000000000E+00 0. -1.
         -5    1    5    5    0  502  0.10523244120E+03 -0.15259976539E+03 -0.34375553685E+02  0.18858505712E+03  0.47000000000E+01 0.  1.
         13    1    6    6    0    0 -0.95294136502E+01 -0.16763260987E+01 -0.20244547560E+02  0.22437947758E+02  0.00000000000E+00 0. -1.
        -14    1    6    6    0    0 -0.20781709712E+02 -0.67008474801E+02  0.36775513952E+02  0.79211448542E+02  0.00000000000E+00 0.  1.
</event>
<event>
12    1  0.8633375E-002  0.3644910E+03  0.7818608E-02  0.1056822E+00
         21   -1    0    0  503  502  0.00000000000E+00  0.00000000000E+00  0.70180888706E+03  0.70180888706E+03  0.00000000000E+00 0.  1.
         21   -1    0    0  501  503 -0.00000000000E+00 -0.00000000000E+00 -0.48002802243E+03  0.48002802243E+03  0.00000000000E+00 0.  1.
          6    2    1    2  501    0 -0.17964407226E+03 -0.26649938441E+03 -0.34898840663E+03  0.50462521626E+03  0.17192959701E+03 0.  0.
         24    2    3    3    0    0 -0.94005279952E+02 -0.16609507742E+03 -0.29851874735E+03  0.36325936424E+03  0.80120882302E+02 0.  0.
         -6    2    1    2    0  502  0.17964407226E+03  0.26649938441E+03  0.57076927126E+03  0.67721169323E+03  0.17188426872E+03 0.  0.
        -24    2    5    5    0    0  0.14350990259E+03  0.10422209211E+03  0.25244564803E+03  0.31805766370E+03  0.77295120194E+02 0.  0.
          5    1    3    3  501    0 -0.85638792307E+02 -0.10040430699E+03 -0.50469659279E+02  0.14136585202E+03  0.47000000000E+01 0. -1.
        -11    1    4    4    0    0 -0.91166903801E+02 -0.89005109766E+02 -0.21203013948E+03  0.24736631533E+03  0.00000000000E+00 0.  1.
         12    1    4    4    0    0 -0.28383761512E+01 -0.77089967657E+02 -0.86488607878E+02  0.11589304891E+03  0.00000000000E+00 0. -1.
         -5    1    5    5    0  502  0.36134169671E+02  0.16227729230E+03  0.31832362324E+03  0.35915402953E+03  0.47000000000E+01 0.  1.
         13    1    6    6    0    0 -0.72206980121E+01  0.17294777516E+02  0.33557129185E+02  0.38436034242E+02  0.00000000000E+00 0. -1.
        -14    1    6    6    0    0  0.15073060060E+03  0.86927314589E+02  0.21888851884E+03  0.27962162946E+03  0.00000000000E+00 0.  1.
</event>
<event>
12    1  0.8633375E-002  0.1778135E+03  0.7818608E-02  0.1170178E+00
         21   -1    0    0  503  502  0.00000000000E+00  0.00000000000E+00  0.27370928471E+02  0.27370928471E+02  0.00000000000E+00 0.  1.
         21   -1    0    0  501  503 -0.00000000000E+00 -0.00000000000E+00 -0.18268475907E+04  0.18268475907E+04  0.00000000000E+00 0.  1.
          6    2    1    2  501    0 -0.24459073364E+02 -0.35452388999E+02 -0.14661291204E+04  0.14768724539E+04  0.17251819975E+03 0.  0.
         24    2    3    3    0    0  0.44451766973E+02 -0.44113745927E+02 -0.97905760531E+03  0.98485164760E+03  0.86353871342E+02 0.  0.
         -6    2    1    2    0  502  0.24459073364E+02  0.35452388999E+02 -0.33334754185E+03  0.37734606530E+03  0.17150612578E+03 0.  0.
        -24    2    5    5    0    0  0.62010491321E+02  0.53812068630E+02 -0.30689947198E+03  0.32765927403E+03  0.80201460016E+02 0.  0.
          5    1    3    3  501    0 -0.68910840338E+02  0.86613569286E+01 -0.48707151511E+03  0.49202080632E+03  0.47000000000E+01 0. -1.
        -11    1    4    4    0    0  0.11990747568E+02 -0.45970422755E+02 -0.86352874241E+03  0.86483463550E+03  0.00000000000E+00 0.  1.
         12    1    4    4    0    0  0.32461019405E+02  0.18566768273E+01 -0.11552886290E+03  0.12001701210E+03  0.00000000000E+00 0. -1.
         -5    1    5    5    0  502 -0.37551417957E+02 -0.18359679632E+02 -0.26448069869E+02  0.49686791268E+02  0.47000000000E+01 0. -1.
         11    1    6    6    0    0  0.18605850182E+02 -0.20686904717E+02 -0.59979282891E+02  0.66118379168E+02  0.00000000000E+00 0. -1.
        -12    1    6    6    0    0  0.43404641139E+02  0.74498973348E+02 -0.24692018909E+03  0.26154089486E+03  0.00000000000E+00 0.  1.
</event>
<event>
12    1  0.8633375E-002  0.2111617E+03  0.7818608E-02  0.1140707E+00
         21   -1    0    0  501  502  0.00000000000E+00  0.00000000000E+00  0.85791865584E+03  0.85791865584E+03  0.00000000000E+00 0.  1.
         21   -1    0    0  502  503 -0.00000000000E+00 -0.00000000000E+00 -0.13698676285E+03  0.13698676285E+03  0.00000000000E+00 0.  1.
         -6    2    1    2    0  503  0.11772527437E+03 -0.33034043775E+02 -0.31678558073E+02  0.21323302008E+03  0.17179726871E+03 0.  0.
        -24    2    3    3    0    0  0.14742678069E+03 -0.55853722109E+01 -0.36731080434E+02  0.17220587016E+03  0.80869261161E+02 0.  0.
          6    2    1    2  501    0 -0.11772527437E+03  0.33034043775E+02  0.75261045106E+03  0.78167239861E+03  0.17215911079E+03 0.  0.
         24    2    5    5    0    0 -0.10217067756E+03  0.77344109731E+02  0.43858889201E+03  0.46412404485E+03  0.81424530392E+02 0.  0.
          5    1    5    5  501    0 -0.15554596817E+02 -0.44310065956E+02  0.31402155904E+03  0.31754835375E+03  0.47000000000E+01 0. -1.
        -11    1    6    6    0    0 -0.11467646265E+03  0.64996435515E+02  0.40892400476E+03  0.42964411945E+03  0.00000000000E+00 0.  1.
         12    1    6    6    0    0  0.12505785096E+02  0.12347674216E+02  0.29664887259E+02  0.34479925399E+02  0.00000000000E+00 0. -1.
         -5    1    3    3    0  503 -0.29701506320E+02 -0.27448671564E+02  0.50525223616E+01  0.41027149919E+02  0.47000000000E+01 0.  1.
         13    1    4    4    0    0  0.32030342158E+01  0.19772002556E+02  0.35245509435E+01  0.20337501631E+02  0.00000000000E+00 0. -1.
        -14    1    4    4    0    0  0.14422374648E+03 -0.25357374767E+02 -0.40255631378E+02  0.15186836853E+03  0.00000000000E+00 0.  1.
</event>
<event>
12    1  0.8633375E-002  0.3259782E+03  0.7818608E-02  0.1072943E+00
         21   -1    0    0  501  502  0.00000000000E+00  0.00000000000E+00  0.20831770175E+03  0.20831770175E+03  0.00000000000E+00 0.  1.
         21   -1    0    0  502  503 -0.00000000000E+00 -0.00000000000E+00 -0.15513568224E+04  0.15513568224E+04  0.00000000000E+00 0.  1.
         -6    2    1    2    0  503 -0.20367772586E+03  0.18779681632E+03 -0.13924365976E+04  0.14300844198E+04  0.17178332031E+03 0.  0.
        -24    2    3    3    0    0 -0.15895242152E+00  0.72686224394E+02 -0.43529758791E+03  0.44478877208E+03  0.55405317823E+02 0.  0.
          6    2    1    2  501    0  0.20367772586E+03 -0.18779681632E+03  0.49397477004E+02  0.32959010431E+03  0.17157291712E+03 0.  0.
         24    2    5    5    0    0  0.11878425639E+03 -0.31140393163E+02  0.12952633300E+02  0.14766030271E+03  0.80971418627E+02 0.  0.
          5    1    5    5  501    0  0.84893469470E+02 -0.15665642316E+03  0.36444843704E+02  0.18192980160E+03  0.47000000000E+01 0. -1.
        -11    1    6    6    0    0  0.10848358277E+03 -0.10694997843E+02 -0.16611993817E+02  0.11026798741E+03  0.00000000000E+00 0.  1.
         12    1    6    6    0    0  0.10300673623E+02 -0.20445395320E+02  0.29564627118E+02  0.37392315300E+02  0.00000000000E+00 0. -1.
         -5    1    3    3    0  503 -0.20351877344E+03  0.11511059193E+03 -0.95713900972E+03  0.98529564774E+03  0.47000000000E+01 0.  1.
         11    1    4    4    0    0  0.11763858468E+02 -0.35844631281E+01 -0.34545522042E+02  0.36669194634E+02  0.00000000000E+00 0. -1.
        -12    1    4    4    0    0 -0.11922810890E+02  0.76270687522E+02 -0.40075206587E+03  0.40811957744E+03  0.00000000000E+00 0.  1.
</event>
<event>
12    1  0.8633375E-002  0.2127736E+03  0.7818608E-02  0.1139580E+00
         21   -1    0    0  503  502  0.00000000000E+00  0.00000000000E+00  0.44817574693E+02  0.44817574693E+02  0.00000000000E+00 0. -1.
         21   -1    0    0  501  503 -0.00000000000E+00 -0.00000000000E+00 -0.16564948902E+04  0.16564948902E+04  0.00000000000E+00 0.  1.
          6    2    1    2  501    0  0.82048755037E+02 -0.90454163253E+02 -0.13402426157E+04  0.13570272116E+04  0.17423728143E+03 0.  0.
         24    2    3    3    0    0  0.40572755175E+02  0.22553523540E+02 -0.55788635596E+03  0.56545004986E+03  0.79635185899E+02 0.  0.
         -6    2    1    2    0  502 -0.82048755037E+02  0.90454163253E+02 -0.27143469973E+03  0.34428525321E+03  0.17303637048E+03 0.  0.
        -24    2    5    5    0    0 -0.81923931438E+02  0.11800878335E+03 -0.15920483099E+03  0.22862667763E+03  0.79286669895E+02 0.  0.
          5    1    3    3  501    0  0.41475999863E+02 -0.11300768679E+03 -0.78235625978E+03  0.79157716178E+03  0.47000000000E+01 0. -1.
        -13    1    4    4    0    0  0.37899140538E+02  0.13282420286E+02 -0.55331951455E+03  0.55477495683E+03  0.00000000000E+00 0.  1.
         14    1    4    4    0    0  0.26736146363E+01  0.92711032535E+01 -0.45668414105E+01  0.10675093031E+02  0.00000000000E+00 0. -1.
         -5    1    5    5    0  502 -0.12482359911E+00 -0.27554620095E+02 -0.11222986873E+03  0.11565857558E+03  0.47000000000E+01 0.  1.
         13    1    6    6    0    0  0.69236747391E+00  0.33172080963E+02 -0.40206260995E+01  0.33422025109E+02  0.00000000000E+00 0. -1.
        -14    1    6    6    0    0 -0.82616298912E+02  0.84836702385E+02 -0.15518420489E+03  0.19520465252E+03  0.00000000000E+00 0.  1.
</event>
<event>
12    1  0.8633375E-002  0.1975517E+03  0.7818608E-02  0.1152033E+00
         21   -1    0    0  503  502  0.00000000000E+00  0.00000000000E+00  0.41573964859E+02  0.41573964859E+02  0.00000000000E+00 0. -1.
         21   -1    0    0  501  503 -0.00000000000E+00 -0.00000000000E+00 -0.13165102872E+04  0.13165102872E+04  0.00000000000E+00 0. -1.
          6    2    1    2  501    0  0.32602076459E+02 -0.91471410536E+02 -0.10045940819E+04  0.10238339448E+04  0.17203709683E+03 0.  0.
         24    2    3    3    0    0  0.52982172671E+02 -0.82680986012E+01 -0.34537291728E+03  0.35905370036E+03  0.82229165612E+02 0.  0.
         -6    2    1    2    0  502 -0.32602076459E+02  0.91471410536E+02 -0.27034224040E+03  0.33425030728E+03  0.17090472970E+03 0.  0.
        -24    2    5    5    0    0 -0.74477434401E+02  0.57487571779E+02 -0.12316828724E+03  0.17743605605E+03  0.86379499074E+02 0.  0.
          5    1    3    3  501    0 -0.20380096213E+02 -0.83203311935E+02 -0.65922116464E+03  0.66478024441E+03  0.47000000000E+01 0. -1.
        -13    1    4    4    0    0 -0.16843317426E+01  0.80225956756E+01 -0.23194954958E+03  0.23209436133E+03  0.00000000000E+00 0.  1.
         14    1    4    4    0    0  0.54666504414E+02 -0.16290694277E+02 -0.11342336771E+03  0.12695933903E+03  0.00000000000E+00 0. -1.
         -5    1    5    5    0  502  0.41875357942E+02  0.33983838757E+02 -0.14717395316E+03  0.15681425123E+03  0.47000000000E+01 0.  1.
         11    1    6    6    0    0 -0.20390911651E+02  0.59789403701E+02 -0.10058988869E+03  0.11878083928E+03  0.00000000000E+00 0. -1.
        -12    1    6    6    0    0 -0.54086522750E+02 -0.23018319225E+01 -0.22578398554E+02  0.58655216772E+02  0.00000000000E+00 0.  1.
</event>
<event>
12    1  0.8633375E-002  0.1778304E+03  0.7818608E-02  0.1170153E+00
         21   -1    0    0  501  502  0.00000000000E+00  0.00000000000E+00  0.48735788476E+03  0.48735788476E+03  0.00000000000E+00 0. -1.
         21   -1    0    0  502  503 -0.00000000000E+00 -0.00000000000E+00 -0.44491576567E+03  0.44491576567E+03  0.00000000000E+00 0. -1.
         -6    2    1    2    0  503 -0.33588057314E+02 -0.41474980459E+01 -0.40977280531E+03  0.44669611046E+03  0.17458036488E+03 0.  0.
        -24    2    3    3    0    0  0.42055888106E+02  0.13832881834E+02 -0.28833111663E+03  0.30242042198E+03  0.79769871930E+02 0.  0.
          6    2    1    2  501    0  0.33588057314E+02  0.41474980459E+01  0.45221492440E+03  0.48557753997E+03  0.17361408394E+03 0.  0.
         24    2    5    5    0    0 -0.36457826962E+02 -0.34480382056E+02  0.23699939485E+03  0.25592921495E+03  0.82540777880E+02 0.  0.
          5    1    5    5  501    0  0.70045884276E+02  0.38627880102E+02  0.21521552955E+03  0.22964832502E+03  0.47000000000E+01 0. -1.
        -11    1    6    6    0    0 -0.13841575288E+02 -0.30349990621E+02  0.22925571183E+03  0.23166979204E+03  0.00000000000E+00 0.  1.
         12    1    6    6    0    0 -0.22616251674E+02 -0.41303914348E+01  0.77436830171E+01  0.24259422909E+02  0.00000000000E+00 0. -1.
         -5    1    3    3    0  503 -0.75643945420E+02 -0.17980379880E+02 -0.12144168867E+03  0.14427568848E+03  0.47000000000E+01 0.  1.
         11    1    4    4    0    0 -0.44802510349E+01  0.36986274331E+02 -0.90355803533E+02  0.97735502098E+02  0.00000000000E+00 0. -1.
        -12    1    4    4    0    0  0.46536139141E+02 -0.23153392497E+02 -0.19797531310E+03  0.20468491988E+03  0.00000000000E+00 0.  1.
</event>
<event>
12    1  0.8633375E-002  0.2092722E+03  0.7818608E-02  0.1142260E+00
         21   -1    0    0  503  502  0.00000000000E+00  0.00000000000E+00  0.60490449169E+03  0.60490449169E+03  0.00000000000E+00 0. -1.
         21   -1    0    0  501  503 -0.00000000000E+00 -0.00000000000E+00 -0.73518232761E+02  0.73518232761E+02  0.00000000000E+00 0. -1.
          6    2    1    2  501    0 -0.11588162734E+03  0.28946316975E+02  0.31150884658E+03  0.37527670324E+03  0.17183830095E+03 0.  0.
         24    2    3    3    0    0 -0.11164279987E+03  0.44401387207E+02  0.32349001562E+03  0.35472274338E+03  0.82139129029E+02 0.  0.
         -6    2    1    2    0  502  0.11588162734E+03 -0.28946316975E+02  0.21987741235E+03  0.30314602121E+03  0.17112858584E+03 0.  0.
        -24    2    5    5    0    0  0.70597446356E+02 -0.72125979008E+02  0.19234840496E+03  0.23462539287E+03  0.88684890527E+02 0.  0.
          5    1    3    3  501    0 -0.42388274763E+01 -0.15455070231E+02 -0.11981169042E+02  0.20553959858E+02  0.47000000000E+01 0. -1.
        -11    1    4    4    0    0 -0.67895685709E+02 -0.15703917122E+02  0.13112957559E+03  0.14849714727E+03  0.00000000000E+00 0.  1.
         12    1    4    4    0    0 -0.43747114159E+02  0.60105304329E+02  0.19236044003E+03  0.20622559612E+03  0.00000000000E+00 0. -1.
         -5    1    5    5    0  502  0.45284180988E+02  0.43179662033E+02  0.27529007392E+02  0.68520628347E+02  0.47000000000E+01 0.  1.
         11    1    6    6    0    0 -0.11017410450E+02 -0.35213869026E+02  0.97103277294E+02  0.10387707334E+03  0.00000000000E+00 0. -1.
        -12    1    6    6    0    0  0.81614856806E+02 -0.36912109982E+02  0.95245127665E+02  0.13074831953E+03  0.00000000000E+00 0.  1.
</event>
<event>
12    1  0.8633375E-002  0.2097849E+03  0.7818608E-02  0.1142500E+00
         21   -1    0    0  501  502  0.00000000000E+00  0.00000000000E+00  0.14245264446E+03  0.14245264446E+03  0.00000000000E+00 0. -1.
         21   -1    0    0  502  503 -0.00000000000E+00 -0.00000000000E+00 -0.41701996320E+03  0.41701996320E+03  0.00000000000E+00 0. -1.
         -6    2    1    2    0  503 -0.11335065611E+03  0.37419901314E+02 -0.28423905734E+03  0.35327260750E+03  0.17251397983E+03 0.  0.
        -24    2    3    3    0    0 -0.94679585660E+02  0.81293986079E+01 -0.29127344004E+03  0.31752187379E+03  0.83364335299E+02 0.  0.
          6    2    1    2  501    0  0.11335065611E+03 -0.37419901314E+02  0.96717385939E+01  0.20620000016E+03  0.16785790801E+03 0.  0.
         24    2    5    5    0    0  0.98008160625E+02 -0.80089069874E+02  0.39835395389E+02  0.15153752395E+03  0.73190872228E+02 0.  0.
          5    1    5    5  501    0  0.15342495487E+02  0.42669168560E+02 -0.30163656795E+02  0.54662476203E+02  0.47000000000E+01 0. -1.
        -13    1    6    6    0    0  0.80527254002E+02 -0.42051603271E+02 -0.39873650267E+01  0.90933355017E+02  0.00000000000E+00 0.  1.
         14    1    6    6    0    0  0.17480906623E+02 -0.38037466603E+02  0.43822760416E+02  0.60604168936E+02  0.00000000000E+00 0. -1.
         -5    1    3    3    0  503 -0.18671070452E+02  0.29290502706E+02  0.70343827040E+01  0.35750733707E+02  0.47000000000E+01 0.  1.
         13    1    4    4    0    0 -0.35721343949E+02  0.43414101743E+02 -0.10730779335E+03  0.12114355599E+03  0.00000000000E+00 0. -1.
        -14    1    4    4    0    0 -0.58958241711E+02 -0.35284703135E+02 -0.18396564669E+03  0.19637831780E+03  0.00000000000E+00 0.  1.
</event>
<event>
12    1  0.8633375E-002  0.1809686E+03  0.7818608E-02  0.1167228E+00
         21   -1    0    0  503  502  0.00000000000E+00  0.00000000000E+00  0.52466716792E+03  0.52466716792E+03  0.00000000000E+00 0.  1.
         21   -1    0    0  501  503 -0.00000000000E+00 -0.00000000000E+00 -0.13577680952E+03  0.13577680952E+03  0.00000000000E+00 0. -1.
          6    2    1    2  501    0  0.11292129409E+02 -0.51219436979E+02 -0.48758018845E+02  0.18742191525E+03  0.17320129042E+03 0.  0.
         24    2    3    3    0    0 -0.57625293765E+02 -0.31605863717E+02 -0.47699970558E+02  0.11560608873E+03  0.82279252899E+02 0.  0.
         -6    2    1    2    0  502 -0.11292129409E+02  0.51219436979E+02  0.43764837724E+03  0.47302206218E+03  0.17164738943E+03 0.  0.
        -24    2    5    5    0    0 -0.54332692409E+02  0.40810119012E+02  0.15757894570E+03  0.18943464983E+03  0.80230014008E+02 0.  0.
          5    1    3    3  501    0  0.68917423173E+02 -0.19613573261E+02 -0.10580482861E+01  0.71815826523E+02  0.47000000000E+01 0. -1.
        -13    1    4    4    0    0 -0.23672705599E+02  0.17970674269E+02  0.10916665061E+02  0.31662528328E+02  0.00000000000E+00 0.  1.
         14    1    4    4    0    0 -0.33952588166E+02 -0.49576537987E+02 -0.58616635619E+02  0.83943560403E+02  0.00000000000E+00 0. -1.
         -5    1    5    5    0  502  0.43040563001E+02  0.10409317966E+02  0.28006943154E+03  0.28358741235E+03  0.47000000000E+01 0.  1.
         11    1    6    6    0    0 -0.11175939662E+02  0.57663005395E+02  0.91585370516E+02  0.10880167237E+03  0.00000000000E+00 0. -1.
        -12    1    6    6    0    0 -0.43156752748E+02 -0.16852886383E+02  0.65993575188E+02  0.80632977455E+02  0.00000000000E+00 0.  1.
</event>
<event>
12    1  0.8633375E-002  0.1827477E+03  0.7818608E-02  0.1165516E+00
         21   -1    0    0  501  502  0.00000000000E+00  0.00000000000E+00  0.41211400241E+02  0.41211400241E+02  0.00000000000E+00 0.  1.
         21   -1    0    0  502  503 -0.00000000000E+00 -0.00000000000E+00 -0.80912310069E+03  0.80912310069E+03  0.00000000000E+00 0.  1.
         -6    2    1    2    0  503 -0.21973129489E+01  0.58258719267E+02 -0.35147100505E+03  0.39614213939E+03  0.17319878941E+03 0.  0.
        -24    2    3    3    0    0 -0.41443596978E+02  0.34283609278E+02 -0.10122984487E+03  0.14166659055E+03  0.83240637851E+02 0.  0.
          6    2    1    2  501    0  0.21973129489E+01 -0.58258719267E+02 -0.41644069540E+03  0.45419236154E+03  0.17166520307E+03 0.  0.
         24    2    5    5    0    0 -0.24268349362E+02 -0.98498217847E+02 -0.25892671063E+03  0.28941252683E+03  0.80160573304E+02 0.  0.
          5    1    5    5  501    0  0.26465662311E+02  0.40239498581E+02 -0.15751398477E+03  0.16477983471E+03  0.47000000000E+01 0. -1.
        -11    1    6    6    0    0 -0.28574969374E+02 -0.22906046337E+02 -0.27168231967E+02  0.45599656377E+02  0.00000000000E+00 0.  1.
         12    1    6    6    0    0  0.43066200116E+01 -0.75592171511E+02 -0.23175847866E+03  0.24381287046E+03  0.00000000000E+00 0. -1.
         -5    1    3    3    0  503  0.39246284029E+02  0.23975109989E+02 -0.25024116018E+03  0.25447554884E+03  0.47000000000E+01 0.  1.
         13    1    4    4    0    0 -0.30992815294E+02 -0.24315685781E+02 -0.44632491616E+02  0.59530382854E+02  0.00000000000E+00 0. -1.
        -14    1    4    4    0    0 -0.10450781683E+02  0.58599295059E+02 -0.56597353255E+02  0.82136207696E+02  0.00000000000E+00 0.  1.
</event>
<event>
12    1  0.8633375E-002  0.1733354E+03  0.7818608E-02  0.1174448E+00
         21   -1    0    0  503  502  0.00000000000E+00  0.00000000000E+00  0.17153570766E+03  0.17153570766E+03  0.00000000000E+00 0. -1.
         21   -1    0    0  501  503 -0.00000000000E+00 -0.00000000000E+00 -0.18253348128E+03  0.18253348128E+03  0.00000000000E+00 0. -1.
          6    2    1    2  501    0 -0.12943548068E+02  0.17869630495E+02  0.30426272097E+02  0.17585269640E+03  0.17178927110E+03 0.  0.
         24    2    3    3    0    0 -0.23755564411E+02 -0.32595027507E+02  0.62981044249E+02  0.11465233206E+03  0.86900993402E+02 0.  0.
         -6    2    1    2    0  502  0.12943548068E+02 -0.17869630495E+02 -0.41424045716E+02  0.17821649255E+03  0.17192529634E+03 0.  0.
        -24    2    5    5    0    0 -0.47925872102E+02 -0.14677279768E+02 -0.60222343192E+02  0.11425757290E+03  0.83160991977E+02 0.  0.
          5    1    3    3  501    0  0.10812016342E+02  0.50464658002E+02 -0.32554772152E+02  0.61200364333E+02  0.47000000000E+01 0. -1.
        -13    1    4    4    0    0 -0.47354625612E+02  0.85278040231E+01  0.36063305741E+02  0.60131073741E+02  0.00000000000E+00 0.  1.
         14    1    4    4    0    0  0.23599061201E+02 -0.41122831531E+02  0.26917738507E+02  0.54521258322E+02  0.00000000000E+00 0. -1.
         -5    1    5    5    0  502  0.60869420170E+02 -0.31923507264E+01  0.18798297477E+02  0.63958919652E+02  0.47000000000E+01 0.  1.
         13    1    6    6    0    0 -0.35204889812E+02 -0.72859925364E+00  0.13834331084E+02  0.37832576440E+02  0.00000000000E+00 0. -1.
        -14    1    6    6    0    0 -0.12720982290E+02 -0.13948680515E+02 -0.74056674277E+02  0.76424996457E+02  0.00000000000E+00 0.  1.
</event>
<event>
12    1  0.8633375E-002  0.2585939E+03  0.7818608E-02  0.1108022E+00
         21   -1    0    0  503  502  0.00000000000E+00  0.00000000000E+00  0.23093065729E+04  0.23093065729E+04  0.00000000000E+00 0. -1.
         21   -1    0    0  501  503 -0.00000000000E+00 -0.00000000000E+00 -0.72388235300E+02  0.72388235300E+02  0.00000000000E+00 0. -1.
          6    2    1    2  501    0  0.10354829454E+03 -0.16291749246E+03  0.19563429549E+03  0.32409637075E+03  0.17175948681E+03 0.  0.
         24    2    3    3    0    0  0.12340023096E+03 -0.11789197583E+03  0.19991070664E+03  0.27448010104E+03  0.79049985902E+02 0.  0.
         -6    2    1    2    0  502 -0.10354829454E+03  0.16291749246E+03  0.20412840421E+04  0.20575984374E+04  0.17206519277E+03 0.  0.
        -24    2    5    5    0    0  0.88926938242E+01  0.10259463494E+03  0.10318087680E+04  0.10400797683E+04  0.80819871353E+02 0.  0.
          5    1    3    3  501    0 -0.19851936419E+02 -0.45025516639E+02 -0.42764111467E+01  0.49616269716E+02  0.47000000000E+01 0. -1.
        -13    1    4    4    0    0  0.69830377192E+02 -0.14928850602E+02  0.65580333257E+02  0.96953247852E+02  0.00000000000E+00 0.  1.
         14    1    4    4    0    0  0.53569853770E+02 -0.10296312522E+03  0.13433037338E+03  0.17752685319E+03  0.00000000000E+00 0. -1.
         -5    1    5    5    0  502 -0.11244098837E+03  0.60322857526E+02  0.10094752741E+04  0.10175186691E+04  0.47000000000E+01 0.  1.
         11    1    6    6    0    0  0.28729121093E+02  0.34340594424E+02  0.66135551610E+03  0.66286933667E+03  0.00000000000E+00 0. -1.
        -12    1    6    6    0    0 -0.19836427269E+02  0.68254040515E+02  0.37045325188E+03  0.37721043162E+03  0.00000000000E+00 0.  1.
</event>
<event>
12    1  0.8633375E-002  0.1938812E+03  0.7818608E-02  0.1156424E+00
         21   -1    0    0  501  502  0.00000000000E+00  0.00000000000E+00  0.49526656240E+02  0.49526656240E+02  0.00000000000E+00 0.  1.
         21   -1    0    0  502  503 -0.00000000000E+00 -0.00000000000E+00 -0.86687778987E+03  0.86687778987E+03  0.00000000000E+00 0.  1.
         -6    2    1    2    0  503 -0.38542584313E+02 -0.58203204611E+02 -0.58204654723E+03  0.61151399865E+03  0.17406333207E+03 0.  0.
        -24    2    3    3    0    0  0.26751509522E+02  0.38493633528E+01 -0.17425078688E+03  0.19386185627E+03  0.80551981518E+02 0.  0.
          6    2    1    2  501    0  0.38542584313E+02  0.58203204611E+02 -0.23530458640E+03  0.30489044746E+03  0.18087783927E+03 0.  0.
         24    2    5    5    0    0 -0.10782148233E+02  0.16462413208E+02 -0.29160185007E+02  0.88805216280E+02  0.81540077752E+02 0.  0.
          5    1    5    5  501    0  0.49324732546E+02  0.41740791403E+02 -0.20614440139E+03  0.21608523118E+03  0.47000000000E+01 0. -1.
        -13    1    6    6    0    0 -0.74460146654E+01  0.48932074917E+02 -0.26275420880E+02  0.56037387809E+02  0.00000000000E+00 0.  1.
         14    1    6    6    0    0 -0.33361335679E+01 -0.32469661709E+02 -0.28847641274E+01  0.32767828471E+02  0.00000000000E+00 0. -1.
         -5    1    3    3    0  503 -0.65294093835E+02 -0.62052567964E+02 -0.40779576035E+03  0.41765214238E+03  0.47000000000E+01 0.  1.
         11    1    4    4    0    0  0.50465021698E+02 -0.17121854394E+02 -0.10735549769E+03  0.11985440834E+03  0.00000000000E+00 0. -1.
        -12    1    4    4    0    0 -0.23713512176E+02  0.20971217747E+02 -0.66895289189E+02  0.74007447930E+02  0.00000000000E+00 0.  1.
</event>
<event>
12    1  0.8633375E-002  0.1836235E+03  0.7818608E-02  0.1164688E+00
         21   -1    0    0  501  502  0.00000000000E+00  0.00000000000E+00  0.41278707961E+02  0.41278707961E+02  0.00000000000E+00 0. -1.
         21   -1    0    0  502  503 -0.00000000000E+00 -0.00000000000E+00 -0.81232695676E+03  0.81232695676E+03  0.00000000000E+00 0.  1.
         -6    2    1    2    0  503  0.62356890002E+02 -0.20078195743E+02 -0.36594545251E+03  0.40943091326E+03  0.17154032425E+03 0.  0.
        -24    2    3    3    0    0  0.76827017570E+02  0.37200342737E+02 -0.28782394513E+03  0.31137340218E+03  0.82610629289E+02 0.  0.
          6    2    1    2  501    0 -0.62356890002E+02  0.20078195743E+02 -0.40510279629E+03  0.44417475147E+03  0.16997475871E+03 0.  0.
         24    2    5    5    0    0 -0.18385269648E+02 -0.47115116810E+02 -0.14931519750E+03  0.17603704367E+03  0.78333646449E+02 0.  0.
          5    1    5    5  501    0 -0.43971620354E+02  0.67193312553E+02 -0.25578759879E+03  0.26813770780E+03  0.47000000000E+01 0. -1.
        -13    1    6    6    0    0 -0.48431775180E+02 -0.38435933365E+02 -0.10358815571E+03  0.12063773798E+03  0.00000000000E+00 0.  1.
         14    1    6    6    0    0  0.30046505532E+02 -0.86791834446E+01 -0.45727041793E+02  0.55399305691E+02  0.00000000000E+00 0. -1.
         -5    1    3    3    0  503 -0.14470127568E+02 -0.57278538481E+02 -0.78121507383E+02  0.98057511074E+02  0.47000000000E+01 0.  1.
         13    1    4    4    0    0  0.21113036027E+02  0.30888630753E+02 -0.31263102712E+02  0.48757044530E+02  0.00000000000E+00 0. -1.
        -14    1    4    4    0    0  0.55713981543E+02  0.63117119839E+01 -0.25656084241E+03  0.26261635765E+03  0.00000000000E+00 0.  1.
</event>
<event>
12    1  0.8633375E-002  0.1786591E+03  0.7818608E-02  0.1169428E+00
         21   -1    0    0  501  502  0.00000000000E+00  0.00000000000E+00  0.12710216741E+04  0.12710216741E+04  0.00000000000E+00 0.  1.
         21   -1    0    0  502  503 -0.00000000000E+00 -0.00000000000E+00 -0.27604616184E+02  0.27604616184E+02  0.00000000000E+00 0.  1.
         -6    2    1    2    0  503  0.28681613422E+02  0.36879780990E+02  0.41751391640E+03  0.45362033644E+03  0.17108707155E+03 0.  0.
        -24    2    3    3    0    0  0.56310365015E+02 -0.20322224520E+02  0.33375125938E+03  0.34838873444E+03  0.80005981823E+02 0.  0.
          6    2    1    2  501    0 -0.28681613422E+02 -0.36879780990E+02  0.82590314153E+03  0.84500595386E+03  0.17244219226E+03 0.  0.
         24    2    5    5    0    0 -0.71862059225E+02  0.25507611216E+01  0.35921585867E+03  0.37464606129E+03  0.78440908863E+02 0.  0.
          5    1    5    5  501    0  0.43180445802E+02 -0.39430542111E+02  0.46668728286E+03  0.47035989257E+03  0.47000000000E+01 0. -1.
        -13    1    6    6    0    0  0.10362914857E+02  0.39995346328E+01  0.14118647808E+03  0.14162276609E+03  0.00000000000E+00 0.  1.
         14    1    6    6    0    0 -0.82224974082E+02 -0.14487735113E+01  0.21802938059E+03  0.23302329520E+03  0.00000000000E+00 0. -1.
         -5    1    3    3    0  503 -0.27628751593E+02  0.57202005510E+02  0.83762657015E+02  0.10523160200E+03  0.47000000000E+01 0.  1.
         13    1    4    4    0    0 -0.10246371861E+02 -0.61914315585E+01  0.17827107052E+03  0.17867259596E+03  0.00000000000E+00 0. -1.
        -14    1    4    4    0    0  0.66556736876E+02 -0.14130792962E+02  0.15548018886E+03  0.16971613848E+03  0.00000000000E+00 0.  1.
</event>
<event>
12    1  0.8633375E-002  0.3076999E+03  0.7818608E-02  0.1081602E+00
         21   -1    0    0  501  502  0.00000000000E+00  0.00000000000E+00  0.16990195900E+03  0.16990195900E+03  0.00000000000E+00 0.  1.
         21   -1    0    0  502  503 -0.00000000000E+00 -0.00000000000E+00 -0.68615662743E+03  0.68615662743E+03  0.00000000000E+00 0.  1.
         -6    2    1    2    0  503 -0.25481194854E+03 -0.14629693352E+02 -0.44564714280E+03  0.54155385760E+03  0.17186054738E+03 0.  0.
        -24    2    3    3    0    0 -0.12650017686E+03 -0.31908834343E+02 -0.34440201532E+03  0.37713018136E+03  0.81203183976E+02 0.  0.
          6    2    1    2  501    0  0.25481194854E+03  0.14629693352E+02 -0.70607525631E+02  0.31450472883E+03  0.16966038056E+03 0.  0.
         24    2    5    5    0    0  0.64035205369E+02  0.36118460168E+02  0.28223793530E+01  0.10890420893E+03  0.80293898935E+02 0.  0.
          5    1    5    5  501    0  0.19077674317E+03 -0.21488766816E+02 -0.73429904984E+02  0.20560051989E+03  0.47000000000E+01 0. -1.
        -11    1    6    6    0    0  0.66263070203E+02  0.57260754377E+02  0.33190343218E+01  0.87639057808E+02  0.00000000000E+00 0.  1.
         12    1    6    6    0    0 -0.22278648342E+01 -0.21142294209E+02 -0.49665496885E+00  0.21265151124E+02  0.00000000000E+00 0. -1.
         -5    1    3    3    0  503 -0.12831177169E+03  0.17279140991E+02 -0.10124512748E+03  0.16442367623E+03  0.47000000000E+01 0.  1.
         13    1    4    4    0    0  0.91793025284E+01  0.73808604846E+01 -0.36956255511E+02  0.38787904272E+02  0.00000000000E+00 0. -1.
        -14    1    4    4    0    0 -0.13567947938E+03 -0.39289694827E+02 -0.30744575981E+03  0.33834227709E+03  0.00000000000E+00 0.  1.
</event>
<event>
12    1  0.8633375E-002  0.2021383E+03  0.7818608E-02  0.1148697E+00
         21   -1    0    0  503  502  0.00000000000E+00  0.00000000000E+00  0.55135864413E+03  0.55135864413E+03  0.00000000000E+00 0. -1.
         21   -1    0    0  501  503 -0.00000000000E+00 -0.00000000000E+00 -0.27112209161E+03  0.27112209161E+03  0.00000000000E+00 0. -1.
          6    2    1    2  501    0  0.63555806135E+02 -0.83347080692E+02 -0.21125995969E+03  0.29238786693E+03  0.17284044031E+03 0.  0.
         24    2    3    3    0    0 -0.17982939136E+02 -0.33414867623E+01 -0.60610880070E+02  0.10326701342E+03  0.81583366225E+02 0.  0.
         -6    2    1    2    0  502 -0.63555806135E+02  0.83347080692E+02  0.49149651221E+03  0.53009286881E+03  0.16865216186E+03 0.  0.
        -24    2    5    5    0    0 -0.54116111020E+02 -0.81387881458E+01  0.32969404706E+03  0.34391848881E+03  0.81160143757E+02 0.  0.
          5    1    3    3  501    0  0.81538745271E+02 -0.80005593929E+02 -0.15064907962E+03  0.18912085350E+03  0.47000000000E+01 0. -1.
        -11    1    4    4    0    0 -0.55907524102E+01 -0.15968348751E+02  0.16810266727E+02  0.23850151819E+02  0.00000000000E+00 0.  1.
         12    1    4    4    0    0 -0.12392186726E+02  0.12626861989E+02 -0.77421146797E+02  0.79416861604E+02  0.00000000000E+00 0. -1.
         -5    1    5    5    0  502 -0.94396951145E+01  0.91485868838E+02  0.16180246515E+03  0.18617438000E+03  0.47000000000E+01 0.  1.
         13    1    6    6    0    0 -0.39008097708E+02  0.29814478009E+02  0.24520857157E+03  0.25007554530E+03  0.00000000000E+00 0. -1.
        -14    1    6    6    0    0 -0.15108013312E+02 -0.37953266154E+02  0.84485475494E+02  0.93842943514E+02  0.00000000000E+00 0.  1.
</event>
<event>
12    1  0.8633375E-002  0.2068030E+03  0.7818608E-02  0.1144441E+00
         21   -1    0    0  503  502  0.00000000000E+00  0.00000000000E+00  0.13841424149E+02  0.13841424149E+02  0.00000000000E+00 0.  1.
         21   -1    0    0  501  503 -0.00000000000E+00 -0.00000000000E+00 -0.33166644805E+04  0.33166644805E+04  0.00000000000E+00 0.  1.
          6    2    1    2  501    0 -0.92462963426E+02  0.64124902874E+02 -0.11998004045E+04  0.12174926990E+04  0.17351097575E+03 0.  0.
         24    2    3    3    0    0 -0.12361475029E+03  0.13929680900E+02 -0.80669532378E+03  0.81994560918E+03  0.77966750040E+02 0.  0.
         -6    2    1    2    0  502  0.92462963426E+02 -0.64124902874E+02 -0.21030226519E+04  0.21130132057E+04  0.17163662277E+03 0.  0.
        -24    2    5    5    0    0  0.10665655817E+03 -0.27370188622E+02 -0.19503573859E+04  0.19552756369E+04  0.84167304168E+02 0.  0.
          5    1    3    3  501    0  0.31151786860E+02  0.50195221973E+02 -0.39310508071E+03  0.39754708981E+03  0.47000000000E+01 0. -1.
        -11    1    4    4    0    0 -0.32330535862E+02  0.33414262984E+02 -0.39910166849E+03  0.40180084409E+03  0.00000000000E+00 0.  1.
         12    1    4    4    0    0 -0.91284214425E+02 -0.19484582084E+02 -0.40759365529E+03  0.41814476509E+03  0.00000000000E+00 0. -1.
         -5    1    5    5    0  502 -0.14193594743E+02 -0.36754714251E+02 -0.15266526597E+03  0.15773756871E+03  0.47000000000E+01 0.  1.
         11    1    6    6    0    0 -0.73584493230E+01  0.14615354839E+02 -0.17390776474E+03  0.17467588846E+03  0.00000000000E+00 0. -1.
        -12    1    6    6    0    0  0.11401500749E+03 -0.41985543461E+02 -0.17764496212E+04  0.17805997485E+04  0.00000000000E+00 0.  1.
</event>
<event>
12    1  0.8633375E-002  0.1924152E+03  0.7818608E-02  0.1156409E+00
         21   -1    0    0  501  502  0.00000000000E+00  0.00000000000E+00  0.70353212452E+03  0.70353212452E+03  0.00000000000E+00 0.  1.
         21   -1    0    0  502  503 -0.00000000000E+00 -0.00000000000E+00 -0.57693898535E+02  0.57693898535E+02  0.00000000000E+00 0.  1.
         -6    2    1    2    0  503  0.80442499416E+02 -0.21691517762E+02  0.43682993548E+03  0.47713438326E+03  0.17290260119E+03 0.  0.
        -24    2    3    3    0    0  0.35021623315E+01  0.38576331408E+02  0.26258404527E+03  0.27729507438E+03  0.80260693756E+02 0.  0.
          6    2    1    2  501    0 -0.80442499416E+02  0.21691517762E+02  0.20900829050E+03  0.28409163980E+03  0.17344185380E+03 0.  0.
         24    2    5    5    0    0  0.25910562335E+02  0.17931151330E+02  0.90855053742E+02  0.12500866944E+03  0.79872668776E+02 0.  0.
          5    1    5    5  501    0 -0.10635306175E+03  0.37603664316E+01  0.11815323676E+03  0.15908297035E+03  0.47000000000E+01 0. -1.
        -13    1    6    6    0    0 -0.29148408889E+01  0.16186694748E+02  0.94482741075E+02  0.95903564821E+02  0.00000000000E+00 0.  1.
         14    1    6    6    0    0  0.28825403224E+02  0.17444565820E+01 -0.36276873332E+01  0.29105104624E+02  0.00000000000E+00 0. -1.
         -5    1    3    3    0  503  0.76940337084E+02 -0.60267849169E+02  0.17424589022E+03  0.19983930887E+03  0.47000000000E+01 0.  1.
         13    1    4    4    0    0  0.46984265472E+01  0.50412171429E+02  0.82354117856E+02  0.96672969170E+02  0.00000000000E+00 0. -1.
        -14    1    4    4    0    0 -0.11962642157E+01 -0.11835840021E+02  0.18022992741E+03  0.18062210521E+03  0.00000000000E+00 0.  1.
</event>
<event>
12    1  0.8633375E-002  0.1935174E+03  0.7818608E-02  0.1157556E+00
         21   -1    0    0  501  502  0.00000000000E+00  0.00000000000E+00  0.64521484866E+03  0.64521484866E+03  0.00000000000E+00 0. -1.
         21   -1    0    0  502  503 -0.00000000000E+00 -0.00000000000E+00 -0.76549891773E+02  0.76549891773E+02  0.00000000000E+00 0.  1.
         -6    2    1    2    0  503 -0.34719589113E+02 -0.76175001432E+02  0.98805231276E+02  0.21728199111E+03  0.17447323354E+03 0.  0.
        -24    2    3    3    0    0 -0.47310061180E+02  0.65274310527E+01  0.81478495077E+01  0.93835390532E+02  0.80360710671E+02 0.  0.
          6    2    1    2  501    0  0.34719589113E+02  0.76175001432E+02  0.46985972561E+03  0.50448274932E+03  0.16348272661E+03 0.  0.
         24    2    5    5    0    0  0.41689729965E+02  0.97479662185E+02  0.22077237308E+03  0.25434464622E+03  0.68632646895E+02 0.  0.
          5    1    5    5  501    0 -0.69701408529E+01 -0.21304660753E+02  0.24908735253E+03  0.25013810310E+03  0.47000000000E+01 0. -1.
        -13    1    6    6    0    0 -0.39315777327E+01  0.14379963518E+02  0.93335931015E+00  0.14936927858E+02  0.00000000000E+00 0.  1.
         14    1    6    6    0    0  0.45621307698E+02  0.83099698667E+02  0.21983901377E+03  0.23940771836E+03  0.00000000000E+00 0. -1.
         -5    1    3    3    0  503  0.12590472068E+02 -0.82702432485E+02  0.90657381768E+02  0.12344660058E+03  0.47000000000E+01 0.  1.
         13    1    4    4    0    0  0.22819573868E+02  0.46191858371E+01  0.32630989481E+01  0.23509947768E+02  0.00000000000E+00 0. -1.
        -14    1    4    4    0    0 -0.70129635048E+02  0.19082452156E+01  0.48847505596E+01  0.70325442763E+02  0.00000000000E+00 0.  1.
</event>
<event>
12    1  0.8633375E-002  0.2225195E+03  0.7818608E-02  0.1132161E+00
         21   -1    0    0  503  502  0.00000000000E+00  0.00000000000E+00  0.13423814117E+04  0.13423814117E+04  0.00000000000E+00 0. -1.
         21   -1    0    0  501  503 -0.00000000000E+00 -0.00000000000E+00 -0.11627584194E+03  0.11627584194E+03  0.00000000000E+00 0.  1.
          6    2    1    2  501    0 -0.89114790834E+02 -0.10920913437E+03  0.10260062554E+02  0.22275592162E+03  0.17218260875E+03 0.  0.
         24    2    3    3    0    0 -0.67840021263E+02 -0.13132746163E+03 -0.31819752878E+02  0.17046216398E+03  0.78712654712E+02 0.  0.
         -6    2    1    2    0  502  0.89114790834E+02  0.10920913437E+03  0.12158455072E+04  0.12359013320E+04  0.17118330568E+03 0.  0.
        -24    2    5    5    0    0 -0.43742432741E+01  0.79430486224E+02  0.83221167299E+03  0.83989126128E+03  0.80701461930E+02 0.  0.
          5    1    3    3  501    0 -0.21274769571E+02  0.22118327262E+02  0.42079815432E+02  0.52293757638E+02  0.47000000000E+01 0. -1.
        -11    1    4    4    0    0 -0.18699597416E+02 -0.10085731213E+03  0.36286399011E+01  0.10264033993E+03  0.00000000000E+00 0.  1.
         12    1    4    4    0    0 -0.49140423847E+02 -0.30470149501E+02 -0.35448392779E+02  0.67821824047E+02  0.00000000000E+00 0. -1.
         -5    1    5    5    0  502  0.93489034108E+02  0.29778648149E+02  0.38363383419E+03  0.39601007073E+03  0.47000000000E+01 0.  1.
         13    1    6    6    0    0  0.36316408652E+02  0.53193763219E+02  0.51335370559E+03  0.51737847368E+03  0.00000000000E+00 0. -1.
        -14    1    6    6    0    0 -0.40690651926E+02  0.26236723005E+02  0.31885796740E+03  0.32251278760E+03  0.00000000000E+00 0.  1.
</event>
<event>
12    1  0.8633375E-002  0.2585457E+03  0.7818608E-02  0.1108063E+00
         21   -1    0    0  501  502  0.00000000000E+00  0.00000000000E+00  0.84497481588E+03  0.84497481588E+03  0.00000000000E+00 0. -1.
         21   -1    0    0  502  503 -0.00000000000E+00 -0.00000000000E+00 -0.79851203247E+02  0.79851203247E+02  0.00000000000E+00 0.  1.
         -6    2    1    2    0  503  0.84916417297E+02  0.17250132875E+03  0.42945275003E+03  0.50112705157E+03  0.17242723381E+03 0.  0.
        -24    2    3    3    0    0  0.42996604202E+02  0.16465350273E+03  0.22963679172E+03  0.29675639247E+03  0.79823658324E+02 0.  0.
          6    2    1    2  501    0 -0.84916417297E+02 -0.17250132875E+03  0.33567086260E+03  0.42369896756E+03  0.17285363972E+03 0.  0.
         24    2    5    5    0    0 -0.26357270242E+02 -0.61868231306E+02  0.58276454924E+02  0.11933306381E+03  0.79510069677E+02 0.  0.
          5    1    5    5  501    0 -0.58559147055E+02 -0.11063309744E+03  0.27739440768E+03  0.30436590375E+03  0.47000000000E+01 0. -1.
        -11    1    6    6    0    0  0.37620572296E+01 -0.68361249544E+02  0.55978119744E+02  0.88436210931E+02  0.00000000000E+00 0.  1.
         12    1    6    6    0    0 -0.30119327472E+02  0.64930182376E+01  0.22983351803E+01  0.30896852878E+02  0.00000000000E+00 0. -1.
         -5    1    3    3    0  503  0.41919813096E+02  0.78478260196E+01  0.19981595832E+03  0.20437065910E+03  0.47000000000E+01 0.  1.
         13    1    4    4    0    0  0.52706136655E+02  0.85604676309E+02  0.16907036112E+03  0.19669998591E+03  0.00000000000E+00 0. -1.
        -14    1    4    4    0    0 -0.97095324533E+01  0.79048826421E+02  0.60566430597E+02  0.10005640656E+03  0.00000000000E+00 0.  1.
</event>
<event>
12    1  0.8633375E-002  0.2106731E+03  0.7818608E-02  0.1141108E+00
         21   -1    0    0  501  502  0.00000000000E+00  0.00000000000E+00  0.71052008537E+02  0.71052008537E+02  0.00000000000E+00 0. -1.
         21   -1    0    0  502  503 -0.00000000000E+00 -0.00000000000E+00 -0.73092451916E+03  0.73092451916E+03  0.00000000000E+00 0. -1.
         -6    2    1    2    0  503  0.11458719377E+03 -0.42678780980E+02 -0.17599535655E+03  0.27422634665E+03  0.17109652347E+03 0.  0.
        -24    2    3    3    0    0  0.11342368198E+03 -0.81078422319E+00 -0.60059104538E+02  0.15086676070E+03  0.79297505905E+02 0.  0.
          6    2    1    2  501    0 -0.11458719377E+03  0.42678780980E+02 -0.48387715407E+03  0.52775018105E+03  0.17155596768E+03 0.  0.
         24    2    5    5    0    0 -0.68752908329E+02 -0.39423002588E+02 -0.31223709011E+03  0.33198530641E+03  0.80256511854E+02 0.  0.
          5    1    5    5  501    0 -0.45834285444E+02  0.82101783569E+02 -0.17164006396E+03  0.19576487464E+03  0.47000000000E+01 0. -1.
        -13    1    6    6    0    0 -0.29848220490E+02 -0.55004199237E+02 -0.24407487279E+03  0.25197008101E+03  0.00000000000E+00 0.  1.
         14    1    6    6    0    0 -0.38904687839E+02  0.15581196648E+02 -0.68162217325E+02  0.80015225398E+02  0.00000000000E+00 0. -1.
         -5    1    3    3    0  503  0.11635117934E+01 -0.41867996757E+02 -0.11593625202E+03  0.12335958594E+03  0.47000000000E+01 0.  1.
         13    1    4    4    0    0  0.58264828733E+02 -0.29769094815E+02 -0.59692421465E+02  0.88567344172E+02  0.00000000000E+00 0. -1.
        -14    1    4    4    0    0  0.55158853247E+02  0.28958310592E+02 -0.36668307316E+00  0.62299416533E+02  0.00000000000E+00 0.  1.
</event>
<event>
12    1  0.8633375E-002  0.1785955E+03  0.7818608E-02  0.1170670E+00
         21   -1    0    0  501  502  0.00000000000E+00  0.00000000000E+00  0.11604954451E+03  0.11604954451E+03  0.00000000000E+00 0. -1.
         21   -1    0    0  502  503 -0.00000000000E+00 -0.00000000000E+00 -0.71863646263E+03  0.71863646263E+03  0.00000000000E+00 0. -1.
         -6    2    1    2    0  503  0.33144058435E+02 -0.15313996480E+01 -0.63070761170E+03  0.65389018125E+03  0.16934994505E+03 0.  0.
        -24    2    3    3    0    0 -0.35776230264E+02  0.44797894474E+01 -0.19230574607E+03  0.21003837447E+03  0.76384629453E+02 0.  0.
          6    2    1    2  501    0 -0.33144058435E+02  0.15313996480E+01  0.28120693573E+02  0.18079582589E+03  0.17548641958E+03 0.  0.
         24    2    5    5    0    0 -0.84441331606E+02 -0.26810861184E+02  0.92423524863E+01  0.11904490893E+03  0.78975366419E+02 0.  0.
          5    1    5    5  501    0  0.51297273171E+02  0.28342260832E+02  0.18878341087E+02  0.61750916966E+02  0.47000000000E+01 0. -1.
        -11    1    6    6    0    0 -0.63461364547E+02  0.10903083042E+02 -0.19397850053E+02  0.67249524880E+02  0.00000000000E+00 0.  1.
         12    1    6    6    0    0 -0.20979967059E+02 -0.37713944227E+02  0.28640202539E+02  0.51795384046E+02  0.00000000000E+00 0. -1.
         -5    1    3    3    0  503  0.68920288698E+02 -0.60111890954E+01 -0.43840186563E+03  0.44385180677E+03  0.47000000000E+01 0.  1.
         11    1    4    4    0    0 -0.47506541448E+02  0.78195950547E+01 -0.19188680361E+03  0.19783468590E+03  0.00000000000E+00 0. -1.
        -12    1    4    4    0    0  0.11730311184E+02 -0.33398056073E+01 -0.41894245681E+00  0.12203688571E+02  0.00000000000E+00 0.  1.
</event>
<event>
12    1  0.8633375E-002  0.1973308E+03  0.7818608E-02  0.1152328E+00
         21   -1    0    0  503  502  0.00000000000E+00  0.00000000000E+00  0.44518341204E+02  0.44518341204E+02  0.00000000000E+00 0. -1.
         21   -1    0    0  501  503 -0.00000000000E+00 -0.00000000000E+00 -0.13121750276E+04  0.13121750276E+04  0.00000000000E+00 0. -1.
          6    2    1    2  501    0 -0.73276449064E+01 -0.95565198256E+02 -0.10299839066E+04  0.10487165019E+04  0.17249072988E+03 0.  0.
         24    2    3    3    0    0 -0.35992924358E+02 -0.55149846157E+02 -0.31141855881E+03  0.32842951184E+03  0.80916187129E+02 0.  0.
         -6    2    1    2    0  502  0.73276449064E+01  0.95565198256E+02 -0.23767277973E+03  0.30797686689E+03  0.17080690507E+03 0.  0.
        -24    2    5    5    0    0 -0.52027283256E+02  0.13226548759E+02 -0.91117901736E+02  0.12964267790E+03  0.74986479597E+02 0.  0.
          5    1    3    3  501    0  0.28665279451E+02 -0.40415352099E+02 -0.71856534782E+03  0.72028699004E+03  0.47000000000E+01 0. -1.
        -11    1    4    4    0    0 -0.42951754002E+02  0.50423935200E+01 -0.14559391494E+03  0.15188109485E+03  0.00000000000E+00 0.  1.
         12    1    4    4    0    0  0.69588296446E+01 -0.60192239677E+02 -0.16582464387E+03  0.17654841699E+03  0.00000000000E+00 0. -1.
         -5    1    5    5    0  502  0.59354928163E+02  0.82338649497E+02 -0.14655487799E+03  0.17833418899E+03  0.47000000000E+01 0.  1.
         11    1    6    6    0    0 -0.26785409808E+02  0.33300441647E+01  0.69696744905E+01  0.27876939130E+02  0.00000000000E+00 0. -1.
        -12    1    6    6    0    0 -0.25241873448E+02  0.98965045944E+01 -0.98087576226E+02  0.10176573877E+03  0.00000000000E+00 0.  1.
</event>
<event>
12    1  0.8633375E-002  0.3468693E+03  0.7818608E-02  0.1063923E+00
         21   -1    0    0  503  502  0.00000000000E+00  0.00000000000E+00  0.13643622565E+03  0.13643622565E+03  0.00000000000E+00 0. -1.
         21   -1    0    0  501  503 -0.00000000000E+00 -0.00000000000E+00 -0.88151089249E+03  0.88151089249E+03  0.00000000000E+00 0.  1.
          6    2    1    2  501    0  0.23260886858E+03 -0.19101054443E+03 -0.37494185190E+03  0.51078339511E+03  0.17241337123E+03 0.  0.
         24    2    3    3    0    0  0.38278345512E+02 -0.33607019838E+02 -0.11784164526E+03  0.15208738452E+03  0.81542968157E+02 0.  0.
         -6    2    1    2    0  502 -0.23260886858E+03  0.19101054443E+03 -0.37013281493E+03  0.50716372303E+03  0.17211864351E+03 0.  0.
        -24    2    5    5    0    0 -0.54501654705E+02  0.74278371949E+02 -0.69365798418E+02  0.13861051391E+03  0.76899633760E+02 0.  0.
          5    1    3    3  501    0  0.19433052307E+03 -0.15740352459E+03 -0.25710020664E+03  0.35869601058E+03  0.47000000000E+01 0. -1.
        -11    1    4    4    0    0 -0.24010811000E+02 -0.39026252510E+01 -0.16177998303E+02  0.29214331377E+02  0.00000000000E+00 0.  1.
         12    1    4    4    0    0  0.62289156512E+02 -0.29704394587E+02 -0.10166364696E+03  0.12287305315E+03  0.00000000000E+00 0. -1.
         -5    1    5    5    0  502 -0.17810721388E+03  0.11673217248E+03 -0.30076701651E+03  0.36855320912E+03  0.47000000000E+01 0.  1.
         11    1    6    6    0    0 -0.57355691633E+02  0.48552084044E+02 -0.80773744513E+02  0.11032396852E+03  0.00000000000E+00 0. -1.
        -12    1    6    6    0    0  0.28540369276E+01  0.25726287905E+02  0.11407946095E+02  0.28286545393E+02  0.00000000000E+00 0.  1.
</event>
<event>
12    1  0.8633375E-002  0.2183839E+03  0.7818608E-02  0.1136192E+00
         21   -1    0    0  501  502  0.00000000000E+00  0.00000000000E+00  0.28218646093E+03  0.28218646093E+03  0.00000000000E+00 0. -1.
         21   -1    0    0  502  503 -0.00000000000E+00 -0.00000000000E+00 -0.18766057305E+03  0.18766057305E+03  0.00000000000E+00 0. -1.
         -6    2    1    2    0  503  0.11947315262E+03 -0.61267965889E+02 -0.35667319912E+02  0.21559954893E+03  0.16487392137E+03 0.  0.
        -24    2    3    3    0    0  0.27769216285E+02 -0.37530734006E+02  0.33430033258E+02  0.98255600080E+02  0.79730235515E+02 0.  0.
          6    2    1    2  501    0 -0.11947315262E+03  0.61267965889E+02  0.13019320780E+03  0.25424748505E+03  0.17223215280E+03 0.  0.
         24    2    5    5    0    0 -0.14691261283E+03  0.43603339299E+02  0.71047511213E+02  0.18653288963E+03  0.79134082782E+02 0.  0.
          5    1    5    5  501    0  0.27439460210E+02  0.17664626590E+02  0.59145696582E+02  0.67714595423E+02  0.47000000000E+01 0. -1.
        -13    1    6    6    0    0 -0.96329917523E+02 -0.12183331169E+02  0.42660379917E+02  0.10605562023E+03  0.00000000000E+00 0.  1.
         14    1    6    6    0    0 -0.50582695305E+02  0.55786670468E+02  0.28387131297E+02  0.80477269396E+02  0.00000000000E+00 0. -1.
         -5    1    3    3    0  503  0.91703936333E+02 -0.23737231883E+02 -0.69097353170E+02  0.11734394885E+03  0.47000000000E+01 0.  1.
         13    1    4    4    0    0  0.26773327286E+02  0.20498963202E+02  0.17896237492E+02  0.38174518499E+02  0.00000000000E+00 0. -1.
        -14    1    4    4    0    0  0.99588899959E+00 -0.58029697208E+02  0.15533795766E+02  0.60081081580E+02  0.00000000000E+00 0.  1.
</event>
<event>
12    1  0.8633375E-002  0.2225811E+03  0.7818608E-02  0.1132038E+00
         21   -1    0    0  503  502  0.00000000000E+00  0.00000000000E+00  0.11322291618E+04  0.11322291618E+04  0.00000000000E+00 0.  1.
         21   -1    0    0  501  503 -0.00000000000E+00 -0.00000000000E+00 -0.44143619070E+02  0.44143619070E+02  0.00000000000E+00 0.  1.
          6    2    1    2  501    0  0.12092136670E+03  0.71245894467E+02  0.60344992117E+03  0.64306797947E+03  0.17229818474E+03 0.  0.
         24    2    3    3    0    0  0.13083544678E+03  0.34995062904E+01  0.41829881744E+03  0.44560688633E+03  0.80383056637E+02 0.  0.
         -6    2    1    2    0  502 -0.12092136670E+03 -0.71245894467E+02  0.48463562161E+03  0.53330480144E+03  0.17275523467E+03 0.  0.
        -24    2    5    5    0    0 -0.49031055704E+02  0.47479579638E+01  0.23783889907E+03  0.26521154402E+03  0.10650461792E+03 0.  0.
          5    1    3    3  501    0 -0.99140800773E+01  0.67746388176E+02  0.18515110372E+03  0.19746109314E+03  0.47000000000E+01 0. -1.
        -13    1    4    4    0    0  0.86084523000E+02  0.40685176019E+02  0.24857273938E+03  0.26618458898E+03  0.00000000000E+00 0.  1.
         14    1    4    4    0    0  0.44750923776E+02 -0.37185669729E+02  0.16972607806E+03  0.17942229735E+03  0.00000000000E+00 0. -1.
         -5    1    5    5    0  502 -0.71890310995E+02 -0.75993852431E+02  0.24679672253E+03  0.26809325742E+03  0.47000000000E+01 0.  1.
         11    1    6    6    0    0  0.20975728878E+02  0.25002162724E+02  0.27741175158E+02  0.42832956261E+02  0.00000000000E+00 0. -1.
        -12    1    6    6    0    0 -0.70006784582E+02 -0.20254204761E+02  0.21009772392E+03  0.22237858776E+03  0.00000000000E+00 0.  1.
</event>
<event>
12    1  0.8633375E-002  0.1764226E+03  0.7818608E-02  0.1171415E+00
         21   -1    0    0  503  502  0.00000000000E+00  0.00000000000E+00  0.21811549536E+02  0.21811549536E+02  0.00000000000E+00 0.  1.
         21   -1    0    0  501  503 -0.00000000000E+00 -0.00000000000E+00 -0.18576838331E+04  0.18576838331E+04  0.00000000000E+00 0.  1.
          6    2    1    2  501    0 -0.36752290310E+02  0.34550701858E+01 -0.13730251542E+04  0.13843131845E+04  0.17251739160E+03 0.  0.
         24    2    3    3    0    0  0.24358268660E+02  0.40039332960E+02 -0.10248174860E+04  0.10288647650E+04  0.78200714406E+02 0.  0.
         -6    2    1    2    0  502  0.36752290310E+02 -0.34550701858E+01 -0.46284712944E+03  0.49518219820E+03  0.17209089408E+03 0.  0.
        -24    2    5    5    0    0  0.11396639129E+02 -0.66702446644E+02 -0.33533974812E+03  0.35053309876E+03  0.76430405516E+02 0.  0.
          5    1    3    3  501    0 -0.61110558971E+02 -0.36584262774E+02 -0.34820766820E+03  0.35544841945E+03  0.47000000000E+01 0. -1.
        -11    1    4    4    0    0 -0.22423921394E+02 -0.79366235262E+01 -0.31139070114E+03  0.31229792026E+03  0.00000000000E+00 0.  1.
         12    1    4    4    0    0  0.46782190054E+02  0.47975956486E+02 -0.71342678484E+03  0.71656684477E+03  0.00000000000E+00 0. -1.
         -5    1    5    5    0  502  0.25355651181E+02  0.63247376459E+02 -0.12750738133E+03  0.14464909944E+03  0.47000000000E+01 0.  1.
         11    1    6    6    0    0 -0.14347854515E+02 -0.73913200723E+02 -0.24238424618E+03  0.25380926887E+03  0.00000000000E+00 0. -1.
        -12    1    6    6    0    0  0.25744493644E+02  0.72107540786E+01 -0.92955501943E+02  0.96723829891E+02  0.00000000000E+00 0.  1.
</event>
<event>
12    1  0.8633375E-002  0.1847142E+03  0.7818608E-02  0.1163474E+00
         21   -1    0    0  503  502  0.00000000000E+00  0.00000000000E+00  0.49024675705E+03  0.49024675705E+03  0.00000000000E+00 0. -1.
         21   -1    0    0  501  503 -0.00000000000E+00 -0.00000000000E+00 -0.70546247297E+02  0.70546247297E+02  0.00000000000E+00 0. -1.
          6    2    1    2  501    0  0.62955886553E+02  0.23402447843E+02  0.24607109246E+03  0.30728458742E+03  0.17135260987E+03 0.  0.
         24    2    3    3    0    0  0.70076023121E+02  0.74473700015E+02  0.15161552001E+03  0.19956776278E+03  0.79893961135E+02 0.  0.
         -6    2    1    2    0  502 -0.62955886553E+02 -0.23402447843E+02  0.17362941730E+03  0.25350841693E+03  0.17207040618E+03 0.  0.
        -24    2    5    5    0    0 -0.76833228826E+02  0.70614364681E+01  0.18680836456E+03  0.21722614127E+03  0.79602904736E+02 0.  0.
          5    1    3    3  501    0 -0.71201365681E+01 -0.51071252172E+02  0.94455572451E+02  0.10771682464E+03  0.47000000000E+01 0. -1.
        -11    1    4    4    0    0  0.48021567738E+02  0.55096037027E+02  0.15364222735E+03  0.17013987860E+03  0.00000000000E+00 0.  1.
         12    1    4    4    0    0  0.22054455383E+02  0.19377662988E+02 -0.20267073434E+01  0.29427884188E+02  0.00000000000E+00 0. -1.
         -5    1    5    5    0  502  0.13877342273E+02 -0.30463884311E+02 -0.13178947266E+02  0.36282275657E+02  0.47000000000E+01 0.  1.
         13    1    6    6    0    0 -0.49808407127E+02  0.39345939790E+02  0.78045772332E+02  0.10059882195E+03  0.00000000000E+00 0. -1.
        -14    1    6    6    0    0 -0.27024821698E+02 -0.32284503322E+02  0.10876259223E+03  0.11662731932E+03  0.00000000000E+00 0.  1.
</event>
<event>
12    1  0.8633375E-002  0.2026945E+03  0.7818608E-02  0.1147542E+00
         21   -1    0    0  501  502  0.00000000000E+00  0.00000000000E+00  0.29481429971E+03  0.29481429971E+03  0.00000000000E+00 0.  1.
         21   -1    0    0  502  503 -0.00000000000E+00 -0.00000000000E+00 -0.20734793451E+03  0.20734793451E+03  0.00000000000E+00 0.  1.
         -6    2    1    2    0  503  0.17145028943E+02  0.10562496073E+03 -0.10025992967E+03  0.22589024977E+03  0.17182481513E+03 0.  0.
        -24    2    3    3    0    0  0.63698180172E+02  0.51681639408E+02 -0.17547016914E+02  0.11661722592E+03  0.81013761605E+02 0.  0.
          6    2    1    2  501    0 -0.17145028943E+02 -0.10562496073E+03  0.18772629487E+03  0.27627198445E+03  0.17214663301E+03 0.  0.
         24    2    5    5    0    0  0.51889799322E+02 -0.42056611979E+02  0.70900363540E+02  0.12634823480E+03  0.80471765247E+02 0.  0.
          5    1    5    5  501    0 -0.69034828265E+02 -0.63568348755E+02  0.11682593133E+03  0.14992374965E+03  0.47000000000E+01 0. -1.
        -11    1    6    6    0    0 -0.13963061581E+02 -0.33367915091E+02  0.37116471242E+02  0.51826800825E+02  0.00000000000E+00 0.  1.
         12    1    6    6    0    0  0.65852860904E+02 -0.86886968871E+01  0.33783892298E+02  0.74521433974E+02  0.00000000000E+00 0. -1.
         -5    1    3    3    0  503 -0.46553151229E+02  0.53943321325E+02 -0.82712912753E+02  0.10927302385E+03  0.47000000000E+01 0.  1.
         13    1    4    4    0    0  0.47844866227E+02  0.31078011296E+02  0.28472416314E+02  0.63762469378E+02  0.00000000000E+00 0. -1.
        -14    1    4    4    0    0  0.15853313946E+02  0.20603628112E+02 -0.46019433228E+02  0.52854756542E+02  0.00000000000E+00 0.  1.
</event>
<event>
12    1  0.8633375E-002  0.2241742E+03  0.7818608E-02  0.1131283E+00
         21   -1    0    0  503  502  0.00000000000E+00  0.00000000000E+00  0.20731289930E+03  0.20731289930E+03  0.00000000000E+00 0. -1.
         21   -1    0    0  501  503 -0.00000000000E+00 -0.00000000000E+00 -0.43910260141E+03  0.43910260141E+03  0.00000000000E+00 0.  1.
          6    2    1    2  501    0 -0.10757848660E+03  0.89002996930E+02 -0.33411114426E+03  0.40234853842E+03  0.17538365205E+03 0.  0.
         24    2    3    3    0    0 -0.10964033076E+03  0.12578688172E+03 -0.24964671952E+03  0.31007918041E+03  0.77345147289E+02 0.  0.
         -6    2    1    2    0  502  0.10757848660E+03 -0.89002996930E+02  0.10232144216E+03  0.24406696229E+03  0.17205911867E+03 0.  0.
        -24    2    5    5    0    0  0.10753134797E+03 -0.65435299842E+02  0.89517503640E+01  0.14765416276E+03  0.76660607121E+02 0.  0.
          5    1    3    3  501    0  0.20618441616E+01 -0.36783884794E+02 -0.84464424738E+02  0.92269358013E+02  0.47000000000E+01 0. -1.
        -13    1    4    4    0    0 -0.40980901353E+02  0.95392226954E+02 -0.10830079070E+03  0.15002723921E+03  0.00000000000E+00 0.  1.
         14    1    4    4    0    0 -0.68659429410E+02  0.30394654770E+02 -0.14134592883E+03  0.16005194120E+03  0.00000000000E+00 0. -1.
         -5    1    5    5    0  502  0.47138627528E-01 -0.23567697088E+02  0.93369691791E+02  0.96412799531E+02  0.47000000000E+01 0.  1.
         11    1    6    6    0    0  0.53651552309E+02 -0.23564566265E+02  0.41744555363E+02  0.71947103839E+02  0.00000000000E+00 0. -1.
        -12    1    6    6    0    0  0.53879795665E+02 -0.41870733577E+02 -0.32792804999E+02  0.75707058924E+02  0.00000000000E+00 0.  1.
</event>
<event>
12    1  0.8633375E-002  0.3088145E+03  0.7818608E-02  0.1080984E+00
         21   -1    0    0  501  502  0.00000000000E+00  0.00000000000E+00  0.17014122327E+03  0.17014122327E+03  0.00000000000E+00 0. -1.
         21   -1    0    0  502  503 -0.00000000000E+00 -0.00000000000E+00 -0.65122913647E+03  0.65122913647E+03  0.00000000000E+00 0. -1.
         -6    2    1    2    0  503 -0.24554007250E+03 -0.74302463219E+02 -0.39449905901E+03  0.50064612287E+03  0.17089836024E+03 0.  0.
        -24    2    3    3    0    0 -0.16877305074E+03  0.69165674896E+01 -0.18436952567E+03  0.26259945231E+03  0.80213270698E+02 0.  0.
          6    2    1    2  501    0  0.24554007250E+03  0.74302463219E+02 -0.86588854180E+02  0.32072423687E+03  0.17191748952E+03 0.  0.
         24    2    5    5    0    0  0.11708680740E+03 -0.24332539256E+02 -0.63405122570E+02  0.15705175770E+03  0.79647046984E+02 0.  0.
          5    1    5    5  501    0  0.12845326510E+03  0.98635002474E+02 -0.23183731610E+02  0.16367247918E+03  0.47000000000E+01 0. -1.
        -13    1    6    6    0    0  0.79783068339E+00  0.16501802546E+02  0.33904569592E+01  0.16865385245E+02  0.00000000000E+00 0.  1.
         14    1    6    6    0    0  0.11628897672E+03 -0.40834341802E+02 -0.66795579529E+02  0.14018637245E+03  0.00000000000E+00 0. -1.
         -5    1    3    3    0  503 -0.76767021768E+02 -0.81219030708E+02 -0.21012953335E+03  0.23804667056E+03  0.47000000000E+01 0.  1.
         11    1    4    4    0    0 -0.10076196384E+03 -0.70499099893E+01 -0.15961036318E+03  0.18888658666E+03  0.00000000000E+00 0. -1.
        -12    1    4    4    0    0 -0.68011086897E+02  0.13966477479E+02 -0.24759162490E+02  0.73712865643E+02  0.00000000000E+00 0.  1.
</event>
<event>
12    1  0.8633375E-002  0.2537008E+03  0.7818608E-02  0.1111033E+00
         21   -1    0    0  501  502  0.00000000000E+00  0.00000000000E+00  0.27767331050E+03  0.27767331050E+03  0.00000000000E+00 0.  1.
         21   -1    0    0  502  503 -0.00000000000E+00 -0.00000000000E+00 -0.25266590619E+03  0.25266590619E+03  0.00000000000E+00 0. -1.
         -6    2    1    2    0  503 -0.52018867985E+02  0.17783730489E+03  0.89202035111E+02  0.26892579140E+03  0.17329745693E+03 0.  0.
        -24    2    3    3    0    0  0.29357170101E+02  0.10570054440E+03  0.13675488003E+02  0.13644137305E+03  0.79967373253E+02 0.  0.
          6    2    1    2  501    0  0.52018867985E+02 -0.17783730489E+03 -0.64194630808E+02  0.26141342529E+03  0.17286977371E+03 0.  0.
         24    2    5    5    0    0  0.95354132684E+02 -0.16635974119E+03 -0.51928961749E+02  0.21469922753E+03  0.81431978512E+02 0.  0.
          5    1    5    5  501    0 -0.43335264699E+02 -0.11477563697E+02 -0.12265669059E+02  0.46714197761E+02  0.47000000000E+01 0. -1.
        -13    1    6    6    0    0  0.29484778686E+02 -0.21387437690E+02  0.18184454827E+02  0.40711780389E+02  0.00000000000E+00 0.  1.
         14    1    6    6    0    0  0.65869353998E+02 -0.14497230350E+03 -0.70113416576E+02  0.17398744714E+03  0.00000000000E+00 0. -1.
         -5    1    3    3    0  503 -0.81376038086E+02  0.72136760489E+02  0.75526547108E+02  0.13248441835E+03  0.47000000000E+01 0.  1.
         13    1    4    4    0    0  0.41531784059E+02  0.89084503278E+02  0.37271152965E+02  0.10511934482E+03  0.00000000000E+00 0. -1.
        -14    1    4    4    0    0 -0.12174613958E+02  0.16616041118E+02 -0.23595664962E+02  0.31322028230E+02  0.00000000000E+00 0.  1.
</event>
<event>
12    1  0.8633375E-002  0.2086372E+03  0.7818608E-02  0.1142837E+00
         21   -1    0    0  503  502  0.00000000000E+00  0.00000000000E+00  0.95073964259E+03  0.95073964259E+03  0.00000000000E+00 0. -1.
         21   -1    0    0  501  503 -0.00000000000E+00 -0.00000000000E+00 -0.70613356520E+02  0.70613356520E+02  0.00000000000E+00 0. -1.
          6    2    1    2  501    0  0.11613619320E+03  0.13523496139E+02  0.13663955566E+03  0.24939897858E+03  0.17279751743E+03 0.  0.
         24    2    3    3    0    0  0.92681225724E+02 -0.24730869698E+02  0.29159159619E+02  0.13283287057E+03  0.87137187212E+02 0.  0.
         -6    2    1    2    0  502 -0.11613619320E+03 -0.13523496139E+02  0.74348673041E+03  0.77195402053E+03  0.17166825915E+03 0.  0.
        -24    2    5    5    0    0 -0.69524607776E+02 -0.75106424564E+02  0.50629501686E+03  0.52246034136E+03  0.78457109939E+02 0.  0.
          5    1    3    3  501    0  0.23454967471E+02  0.38254365837E+02  0.10748039604E+03  0.11656610802E+03  0.47000000000E+01 0. -1.
        -11    1    4    4    0    0  0.67058178421E+02  0.21865511331E+02  0.36049631031E+02  0.79211588649E+02  0.00000000000E+00 0.  1.
         12    1    4    4    0    0  0.25623047303E+02 -0.46596381029E+02 -0.68904714121E+01  0.53621281916E+02  0.00000000000E+00 0. -1.
         -5    1    5    5    0  502 -0.46611585419E+02  0.61582928426E+02  0.23719171355E+03  0.24949367917E+03  0.47000000000E+01 0.  1.
         11    1    6    6    0    0 -0.56948488530E+02 -0.35246940102E+02  0.43246690910E+03  0.43762210251E+03  0.00000000000E+00 0. -1.
        -12    1    6    6    0    0 -0.12576119246E+02 -0.39859484463E+02  0.73828107753E+02  0.84838238851E+02  0.00000000000E+00 0.  1.
</event>
<event>
12    1  0.8633375E-002  0.1901430E+03  0.7818608E-02  0.1159295E+00
         21   -1    0    0  501  502  0.00000000000E+00  0.00000000000E+00  0.24232407819E+02  0.24232407819E+02  0.00000000000E+00 0.  1.
         21   -1    0    0  502  503 -0.00000000000E+00 -0.00000000000E+00 -0.14635442748E+04  0.14635442748E+04  0.00000000000E+00 0. -1.
         -6    2    1    2    0  503 -0.65485396839E+02  0.34363294376E+02 -0.75281005505E+03  0.77542909253E+03  0.17058172632E+03 0.  0.
        -24    2    3    3    0    0 -0.77505117004E+02  0.14975495383E+01 -0.27764146876E+03  0.29895044006E+03  0.79229379799E+02 0.  0.
          6    2    1    2  501    0  0.65485396839E+02 -0.34363294376E+02 -0.68650181197E+03  0.71234759013E+03  0.17517185312E+03 0.  0.
         24    2    5    5    0    0 -0.21340630535E+02 -0.25759382426E+02 -0.48320801090E+03  0.49107118858E+03  0.80882397079E+02 0.  0.
          5    1    5    5  501    0  0.86826027375E+02 -0.86039119495E+01 -0.20329380107E+03  0.22127640155E+03  0.47000000000E+01 0. -1.
        -11    1    6    6    0    0 -0.77802793040E+01 -0.54358432315E+02 -0.34012815997E+03  0.34453234553E+03  0.00000000000E+00 0.  1.
         12    1    6    6    0    0 -0.13560351231E+02  0.28599049889E+02 -0.14307985093E+03  0.14653884305E+03  0.00000000000E+00 0. -1.
         -5    1    3    3    0  503  0.12019720164E+02  0.32865744838E+02 -0.47516858629E+03  0.47647865247E+03  0.47000000000E+01 0.  1.
         13    1    4    4    0    0  0.12055424964E+00 -0.18168576744E+02 -0.12750756401E+03  0.12879553795E+03  0.00000000000E+00 0. -1.
        -14    1    4    4    0    0 -0.77625671253E+02  0.19666126283E+02 -0.15013390475E+03  0.17015490212E+03  0.00000000000E+00 0.  1.
</event>
<event>
12    1  0.8633375E-002  0.2728878E+03  0.7818608E-02  0.1099867E+00
         21   -1    0    0  501  502  0.00000000000E+00  0.00000000000E+00  0.15176753566E+03  0.15176753566E+03  0.00000000000E+00 0. -1.
         21   -1    0    0  502  503 -0.00000000000E+00 -0.00000000000E+00 -0.85072711818E+03  0.85072711818E+03  0.00000000000E+00 0. -1.
         -6    2    1    2    0  503 -0.20557584124E+03 -0.51003515220E+02 -0.67747967514E+03  0.73037417925E+03  0.17206087995E+03 0.  0.
        -24    2    3    3    0    0 -0.79144380409E+02 -0.19639611608E+02 -0.16107803549E+03  0.19777550090E+03  0.80743222282E+02 0.  0.
          6    2    1    2  501    0  0.20557584124E+03  0.51003515220E+02 -0.21479907381E+02  0.27212047460E+03  0.16948563717E+03 0.  0.
         24    2    5    5    0    0  0.16503698487E+03 -0.56635625373E+01 -0.59125956659E+02  0.19278654992E+03  0.80009329246E+02 0.  0.
          5    1    5    5  501    0  0.40538856375E+02  0.56667077757E+02  0.37646049278E+02  0.79333924673E+02  0.47000000000E+01 0. -1.
        -13    1    6    6    0    0  0.38037362421E+02  0.30181184526E+02 -0.31750234626E+02  0.58015706823E+02  0.00000000000E+00 0.  1.
         14    1    6    6    0    0  0.12699962245E+03 -0.35844747064E+02 -0.27375722033E+02  0.13477084310E+03  0.00000000000E+00 0. -1.
         -5    1    3    3    0  503 -0.12643146083E+03 -0.31363903611E+02 -0.51640163965E+03  0.53259867835E+03  0.47000000000E+01 0.  1.
         11    1    4    4    0    0 -0.71613572351E+02  0.16067920359E+02 -0.13232458739E+03  0.15131582282E+03  0.00000000000E+00 0. -1.
        -12    1    4    4    0    0 -0.75308080583E+01 -0.35707531967E+02 -0.28753448103E+02  0.46459678077E+02  0.00000000000E+00 0.  1.
</event>
<event>
12    1  0.8633375E-002  0.2476021E+03  0.7818608E-02  0.1115026E+00
         21   -1    0    0  503  502  0.00000000000E+00  0.00000000000E+00  0.11616845816E+03  0.11616845816E+03  0.00000000000E+00 0.  1.
         21   -1    0    0  501  503 -0.00000000000E+00 -0.00000000000E+00 -0.57433926746E+03  0.57433926746E+03  0.00000000000E+00 0. -1.
          6    2    1    2  501    0 -0.44010683010E+02 -0.17090339292E+03 -0.32962340504E+03  0.41152519816E+03  0.17192000943E+03 0.  0.
         24    2    3    3    0    0 -0.37255720907E+01 -0.13302697425E+02 -0.13521652732E+03  0.15799611997E+03  0.80550748102E+02 0.  0.
         -6    2    1    2    0  502  0.44010683010E+02  0.17090339292E+03 -0.12854740426E+03  0.27898252745E+03  0.17367183292E+03 0.  0.
        -24    2    5    5    0    0 -0.27525291335E+02  0.31828451783E+02 -0.55903406813E+02  0.10647607759E+03  0.80257536719E+02 0.  0.
          5    1    3    3  501    0 -0.40285110919E+02 -0.15760069550E+03 -0.19440687772E+03  0.25352907819E+03  0.47000000000E+01 0. -1.
        -13    1    4    4    0    0  0.28846970321E+02 -0.34443391790E+01 -0.14297687955E+02  0.32379546784E+02  0.00000000000E+00 0.  1.
         14    1    4    4    0    0 -0.32572542411E+02 -0.98583582457E+01 -0.12091883936E+03  0.12561657319E+03  0.00000000000E+00 0. -1.
         -5    1    5    5    0  502  0.71535974345E+02  0.13907494114E+03 -0.72643997448E+02  0.17250644986E+03  0.47000000000E+01 0.  1.
         11    1    6    6    0    0  0.16972821586E+02 -0.16364295933E+02 -0.23599105435E+02  0.33358426691E+02  0.00000000000E+00 0. -1.
        -12    1    6    6    0    0 -0.44498112921E+02  0.48192747716E+02 -0.32304301378E+02  0.73117650902E+02  0.00000000000E+00 0.  1.
</event>
<event>
12    1  0.8633375E-002  0.2881681E+03  0.7818608E-02  0.1091365E+00
         21   -1    0    0  501  502  0.00000000000E+00  0.00000000000E+00  0.43214061553E+03  0.43214061553E+03  0.00000000000E+00 0.  1.
         21   -1    0    0  502  503 -0.00000000000E+00 -0.00000000000E+00 -0.28482852038E+03  0.28482852038E+03  0.00000000000E+00 0. -1.
         -6    2    1    2    0  503 -0.20366662527E+03  0.10938438624E+03 -0.13109065939E+03  0.31658433226E+03  0.17203441589E+03 0.  0.
        -24    2    3    3    0    0 -0.18622301160E+03  0.13767311626E+03 -0.13966641135E+03  0.28194092848E+03  0.79693686723E+02 0.  0.
          6    2    1    2  501    0  0.20366662527E+03 -0.10938438624E+03  0.27840275453E+03  0.40038480365E+03  0.17133259777E+03 0.  0.
         24    2    5    5    0    0  0.67064467776E+02 -0.69401250189E+02  0.15374740585E+03  0.21112348548E+03  0.10779928083E+03 0.  0.
          5    1    5    5  501    0  0.13660215749E+03 -0.39983136054E+02  0.12465534868E+03  0.18926131817E+03  0.47000000000E+01 0. -1.
        -11    1    6    6    0    0  0.56672857882E+02 -0.72691490666E+02  0.16892595823E+03  0.19243659994E+03  0.00000000000E+00 0.  1.
         12    1    6    6    0    0  0.10391609894E+02  0.32902404777E+01 -0.15178552377E+02  0.18686885531E+02  0.00000000000E+00 0. -1.
         -5    1    3    3    0  503 -0.17443613669E+02 -0.28288730016E+02  0.85757519613E+01  0.34643403780E+02  0.47000000000E+01 0.  1.
         13    1    4    4    0    0 -0.42032242021E+02  0.13340819589E+02 -0.62529479280E+02  0.76515505721E+02  0.00000000000E+00 0. -1.
        -14    1    4    4    0    0 -0.14419076958E+03  0.12433229667E+03 -0.77136932067E+02  0.20542542276E+03  0.00000000000E+00 0.  1.
</event>
<event>
12    1  0.8633375E-002  0.1749772E+03  0.7818608E-02  0.1173416E+00
         21   -1    0    0  503  502  0.00000000000E+00  0.00000000000E+00  0.42987420413E+02  0.42987420413E+02  0.00000000000E+00 0. -1.
         21   -1    0    0  501  503 -0.00000000000E+00 -0.00000000000E+00 -0.82378878116E+03  0.82378878116E+03  0.00000000000E+00 0. -1.
          6    2    1    2  501    0  0.20376766031E+02 -0.22005333856E+02 -0.55478418364E+03  0.58094269401E+03  0.16973354412E+03 0.  0.
         24    2    3    3    0    0  0.65401865614E+02 -0.17019112592E+02 -0.23119547775E+03  0.25416469204E+03  0.81125134996E+02 0.  0.
         -6    2    1    2    0  502 -0.20376766031E+02  0.22005333856E+02 -0.22601717711E+03  0.28583350756E+03  0.17238788352E+03 0.  0.
        -24    2    5    5    0    0 -0.24527926691E+02  0.38408241415E+02 -0.24387088517E+03  0.26079089582E+03  0.80387004644E+02 0.  0.
          5    1    3    3  501    0 -0.45025099583E+02 -0.49862212643E+01 -0.32358870588E+03  0.32677800197E+03  0.47000000000E+01 0. -1.
        -11    1    4    4    0    0  0.48261485793E+02  0.23749500935E+02 -0.17238029991E+03  0.18057734521E+03  0.00000000000E+00 0.  1.
         12    1    4    4    0    0  0.17140379820E+02 -0.40768613526E+02 -0.58815177845E+02  0.73587346835E+02  0.00000000000E+00 0. -1.
         -5    1    5    5    0  502  0.41511606607E+01 -0.16402907559E+02  0.17853708059E+02  0.25042611738E+02  0.47000000000E+01 0.  1.
         11    1    6    6    0    0  0.27745619603E+02  0.11622856763E+01 -0.62296810148E+02  0.68206032503E+02  0.00000000000E+00 0. -1.
        -12    1    6    6    0    0 -0.52273546294E+02  0.37245955738E+02 -0.18157407502E+03  0.19258486332E+03  0.00000000000E+00 0.  1.
</event>
<event>
12    1  0.8633375E-002  0.2427744E+03  0.7818608E-02  0.1118209E+00
         21   -1    0    0  501  502  0.00000000000E+00  0.00000000000E+00  0.14770639822E+04  0.14770639822E+04  0.00000000000E+00 0. -1.
         21   -1    0    0  502  503 -0.00000000000E+00 -0.00000000000E+00 -0.84370421586E+02  0.84370421586E+02  0.00000000000E+00 0.  1.
         -6    2    1    2    0  503  0.17038090876E+03 -0.14258611366E+02  0.12694443629E+03  0.27261313460E+03  0.17020596106E+03 0.  0.
        -24    2    3    3    0    0  0.43987728066E+02 -0.17280456987E+02  0.13336871891E+01  0.94331004345E+02  0.81627355985E+02 0.  0.
          6    2    1    2  501    0 -0.17038090876E+03  0.14258611366E+02  0.12657491244E+04  0.12888212692E+04  0.17235560948E+03 0.  0.
         24    2    5    5    0    0 -0.16651429378E+03  0.46107274189E+02  0.81195134817E+03  0.83386654652E+03  0.78838663405E+02 0.  0.
          5    1    5    5  501    0 -0.38666149882E+01 -0.31848662823E+02  0.45379777618E+03  0.45495472269E+03  0.47000000000E+01 0. -1.
        -13    1    6    6    0    0 -0.55825603797E+02  0.53024758477E+01  0.12698770915E+03  0.13881819969E+03  0.00000000000E+00 0.  1.
         14    1    6    6    0    0 -0.11068868998E+03  0.40804798342E+02  0.68496363902E+03  0.69504834683E+03  0.00000000000E+00 0. -1.
         -5    1    3    3    0  503  0.12639318070E+03  0.30218456210E+01  0.12561074910E+03  0.17828213025E+03  0.47000000000E+01 0.  1.
         13    1    4    4    0    0 -0.20761082536E+02  0.72853462822E+01 -0.99812617551E+01  0.24160389168E+02  0.00000000000E+00 0. -1.
        -14    1    4    4    0    0  0.64748810603E+02 -0.24565803270E+02  0.11314948944E+02  0.70170615177E+02  0.00000000000E+00 0.  1.
</event>
<event>
12    1  0.8633375E-002  0.1958286E+03  0.7818608E-02  0.1153467E+00
         21   -1    0    0  503  502  0.00000000000E+00  0.00000000000E+00  0.11880268317E+03  0.11880268317E+03  0.00000000000E+00 0. -1.
         21   -1    0    0  501  503 -0.00000000000E+00 -0.00000000000E+00 -0.45237101935E+03  0.45237101935E+03  0.00000000000E+00 0. -1.
          6    2    1    2  501    0  0.53308725844E+02 -0.76301071041E+02 -0.32012102798E+03  0.37488392291E+03  0.17145497779E+03 0.  0.
         24    2    3    3    0    0  0.10153382759E+03 -0.68464931275E+02 -0.24099038671E+03  0.28176671767E+03  0.79495608316E+02 0.  0.
         -6    2    1    2    0  502 -0.53308725844E+02  0.76301071041E+02 -0.13447308207E+02  0.19628977961E+03  0.17229385883E+03 0.  0.
        -24    2    5    5    0    0 -0.21670773186E+02  0.79913510812E+02 -0.67081698831E+02  0.13373782020E+03  0.80808778063E+02 0.  0.
          5    1    3    3  501    0 -0.48225101742E+02 -0.78361397663E+01 -0.79130641267E+02  0.93117205240E+02  0.47000000000E+01 0. -1.
        -11    1    4    4    0    0 -0.93333624062E+01 -0.16945975001E+02 -0.13772234806E+02  0.23747677236E+02  0.00000000000E+00 0.  1.
         12    1    4    4    0    0  0.11086718999E+03 -0.51518956274E+02 -0.22721815190E+03  0.25801904043E+03  0.00000000000E+00 0. -1.
         -5    1    5    5    0  502 -0.31637952658E+02 -0.36124397709E+01  0.53634390624E+02  0.62551959418E+02  0.47000000000E+01 0.  1.
         11    1    6    6    0    0 -0.14881874235E+02 -0.23349756760E+00  0.13346288899E+02  0.19991201295E+02  0.00000000000E+00 0. -1.
        -12    1    6    6    0    0 -0.67888989514E+01  0.80147008380E+02 -0.80427987730E+02  0.11374661890E+03  0.00000000000E+00 0.  1.
</event>
<event>
12    1  0.8633375E-002  0.1826164E+03  0.7818608E-02  0.1165375E+00
         21   -1    0    0  501  502  0.00000000000E+00  0.00000000000E+00  0.23092918626E+03  0.23092918626E+03  0.00000000000E+00 0. -1.
         21   -1    0    0  502  503 -0.00000000000E+00 -0.00000000000E+00 -0.17557083666E+03  0.17557083666E+03  0.00000000000E+00 0. -1.
         -6    2    1    2    0  503  0.28005297870E+02 -0.55272400864E+02 -0.58333330270E+02  0.19138479666E+03  0.17142353388E+03 0.  0.
        -24    2    3    3    0    0  0.35541239708E+02 -0.17391997358E+02  0.32728315607E+02  0.92359402247E+02  0.76768842956E+02 0.  0.
          6    2    1    2  501    0 -0.28005297870E+02  0.55272400864E+02  0.11369167987E+03  0.21511522625E+03  0.17178308266E+03 0.  0.
         24    2    5    5    0    0  0.43395093518E+02 -0.49783258869E+01  0.48332530849E+02  0.10100092248E+03  0.77183125963E+02 0.  0.
          5    1    5    5  501    0 -0.71400391388E+02  0.60250726751E+02  0.65359149021E+02  0.11411430377E+03  0.47000000000E+01 0. -1.
        -13    1    6    6    0    0  0.35815005151E+02 -0.37925296088E+02  0.16884988281E+02  0.54828327592E+02  0.00000000000E+00 0.  1.
         14    1    6    6    0    0  0.75800883663E+01  0.32946970201E+02  0.31447542568E+02  0.46172594888E+02  0.00000000000E+00 0. -1.
         -5    1    3    3    0  503 -0.75359418376E+01 -0.37880403506E+02 -0.91061645877E+02  0.99025394415E+02  0.47000000000E+01 0.  1.
         13    1    4    4    0    0  0.36319615421E+02 -0.32424636976E+02 -0.76332584087E+01  0.49282229873E+02  0.00000000000E+00 0. -1.
        -14    1    4    4    0    0 -0.77837571293E+00  0.15032639618E+02  0.40361574016E+02  0.43077172373E+02  0.00000000000E+00 0.  1.
</event>
<event>
12    1  0.8633375E-002  0.1999185E+03  0.7818608E-02  0.1152510E+00
         21   -1    0    0  503  502  0.00000000000E+00  0.00000000000E+00  0.32235732734E+03  0.32235732734E+03  0.00000000000E+00 0.  1.
         21   -1    0    0  501  503 -0.00000000000E+00 -0.00000000000E+00 -0.19109571809E+03  0.19109571809E+03  0.00000000000E+00 0.  1.
          6    2    1    2  501    0 -0.77079608697E+02  0.19105065709E+01 -0.93517664856E+02  0.22071008312E+03  0.18445181224E+03 0.  0.
         24    2    3    3    0    0 -0.11295479823E+03  0.22799520623E+01 -0.11352798971E+03  0.17936194150E+03  0.80734856081E+02 0.  0.
         -6    2    1    2    0  502  0.77079608697E+02 -0.19105065709E+01  0.22477927411E+03  0.29274296231E+03  0.17096141027E+03 0.  0.
        -24    2    5    5    0    0  0.72164641855E+02 -0.41580674815E+02  0.82015079435E+02  0.14441365156E+03  0.84806494147E+02 0.  0.
          5    1    3    3  501    0  0.35875189536E+02 -0.36944549140E+00  0.20010324854E+02  0.41348141614E+02  0.47000000000E+01 0. -1.
        -13    1    4    4    0    0 -0.56949605363E+02  0.40966028502E+02 -0.66206830064E+02  0.96461481377E+02  0.00000000000E+00 0.  1.
         14    1    4    4    0    0 -0.56005192870E+02 -0.38686076440E+02 -0.47321159646E+02  0.82900460125E+02  0.00000000000E+00 0. -1.
         -5    1    5    5    0  502  0.49149668416E+01  0.39670168245E+02  0.14276419468E+03  0.14832931075E+03  0.47000000000E+01 0.  1.
         13    1    6    6    0    0 -0.15266135106E+02  0.47403514718E+00  0.31554005800E+02  0.35056167395E+02  0.00000000000E+00 0. -1.
        -14    1    6    6    0    0  0.87430776962E+02 -0.42054709963E+02  0.50461073635E+02  0.10935748416E+03  0.00000000000E+00 0.  1.
</event>
<event>
12    1  0.8633375E-002  0.2175199E+03  0.7818608E-02  0.1136128E+00
         21   -1    0    0  503  502  0.00000000000E+00  0.00000000000E+00  0.23137473740E+02  0.23137473740E+02  0.00000000000E+00 0. -1.
         21   -1    0    0  501  503 -0.00000000000E+00 -0.00000000000E+00 -0.20271005749E+04  0.20271005749E+04  0.00000000000E+00 0. -1.
          6    2    1    2  501    0  0.62536537458E+02  0.11616295255E+03 -0.10201176781E+04  0.10426335905E+04  0.17041149250E+03 0.  0.
         24    2    3    3    0    0  0.39660399897E+02  0.11802063138E+03 -0.49345624987E+03  0.51545134626E+03  0.81787548412E+02 0.  0.
         -6    2    1    2    0  502 -0.62536537458E+02 -0.11616295255E+03 -0.98384542307E+03  0.10076044582E+04  0.17294588043E+03 0.  0.
        -24    2    5    5    0    0 -0.75999070270E+02 -0.31566780371E+02 -0.36655402400E+03  0.38438016989E+03  0.81326146995E+02 0.  0.
          5    1    3    3  501    0  0.22876137560E+02 -0.18576788325E+01 -0.52666142826E+03  0.52718224426E+03  0.47000000000E+01 0. -1.
        -11    1    4    4    0    0 -0.90343749181E+01  0.58549517225E+02 -0.11604249056E+03  0.13029015892E+03  0.00000000000E+00 0.  1.
         12    1    4    4    0    0  0.48694774815E+02  0.59471114155E+02 -0.37741375931E+03  0.38516118734E+03  0.00000000000E+00 0. -1.
         -5    1    5    5    0  502  0.13462532813E+02 -0.84596172176E+02 -0.61729139906E+03  0.62322428827E+03  0.47000000000E+01 0.  1.
         11    1    6    6    0    0  0.46854053847E+01 -0.31595194581E+02 -0.68203707480E+02  0.75312383167E+02  0.00000000000E+00 0. -1.
        -12    1    6    6    0    0 -0.80684475655E+02  0.28414210183E-01 -0.29835031653E+03  0.30906778672E+03  0.00000000000E+00 0.  1.
</event>
<event>
12    1  0.8633375E-002  0.1947529E+03  0.7818608E-02  0.1154541E+00
         21   -1    0    0  501  502  0.00000000000E+00  0.00000000000E+00  0.39487934757E+02  0.39487934757E+02  0.00000000000E+00 0.  1.
         21   -1    0    0  502  503 -0.00000000000E+00 -0.00000000000E+00 -0.10142565698E+04  0.10142565698E+04  0.00000000000E+00 0. -1.
         -6    2    1    2    0  503  0.53834318217E+02  0.72624486757E+02 -0.61439016092E+03  0.64410890302E+03  0.17096361959E+03 0.  0.
        -24    2    3    3    0    0 -0.12142822400E+02  0.42163138633E+02 -0.50125304264E+03  0.50956160894E+03  0.80456461208E+02 0.  0.
          6    2    1    2  501    0 -0.53834318217E+02 -0.72624486757E+02 -0.36037847415E+03  0.40963560156E+03  0.17249994650E+03 0.  0.
         24    2    5    5    0    0 -0.87185342908E+02 -0.76229919013E+02 -0.26899525379E+03  0.31217651808E+03  0.10808999634E+03 0.  0.
          5    1    5    5  501    0  0.33351024691E+02  0.36054322559E+01 -0.91383220359E+02  0.97459083481E+02  0.47000000000E+01 0. -1.
        -13    1    6    6    0    0 -0.26720482933E+02  0.21677932085E+02 -0.25396937458E+02  0.42765890379E+02  0.00000000000E+00 0.  1.
         14    1    6    6    0    0 -0.60464859975E+02 -0.97907851098E+02 -0.24359831633E+03  0.26941062770E+03  0.00000000000E+00 0. -1.
         -5    1    3    3    0  503  0.65977140617E+02  0.30461348124E+02 -0.11313711828E+03  0.13454729409E+03  0.47000000000E+01 0.  1.
         13    1    4    4    0    0 -0.21908492114E+02  0.12095760268E+02 -0.43926782338E+03  0.43998012466E+03  0.00000000000E+00 0. -1.
        -14    1    4    4    0    0  0.97656697139E+01  0.30067378365E+02 -0.61985219267E+02  0.69581484277E+02  0.00000000000E+00 0.  1.
</event>
<event>
12    1  0.8633375E-002  0.2232662E+03  0.7818608E-02  0.1131779E+00
         21   -1    0    0  503  502  0.00000000000E+00  0.00000000000E+00  0.66780942956E+03  0.66780942956E+03  0.00000000000E+00 0. -1.
         21   -1    0    0  501  503 -0.00000000000E+00 -0.00000000000E+00 -0.14530633221E+03  0.14530633221E+03  0.00000000000E+00 0.  1.
          6    2    1    2  501    0 -0.73155130504E+01 -0.14049180609E+03 -0.23884535410E+02  0.22287237154E+03  0.17120209886E+03 0.  0.
         24    2    3    3    0    0  0.62005678545E+02 -0.84070852461E+02 -0.16712914806E+01  0.13065377353E+03  0.78453826661E+02 0.  0.
         -6    2    1    2    0  502  0.73155130504E+01  0.14049180609E+03  0.54638763276E+03  0.59024339024E+03  0.17336767339E+03 0.  0.
        -24    2    5    5    0    0  0.71280774632E+01  0.10684536914E+03  0.53928878375E+03  0.55553602058E+03  0.79505568912E+02 0.  0.
          5    1    3    3  501    0 -0.69321191595E+02 -0.56420953625E+02 -0.22213243930E+02  0.92218598005E+02  0.47000000000E+01 0. -1.
        -11    1    4    4    0    0  0.31357882945E+02 -0.33603979663E+02 -0.39439036144E+02  0.60563865828E+02  0.00000000000E+00 0.  1.
         12    1    4    4    0    0  0.30647795600E+02 -0.50466872797E+02  0.37767744664E+02  0.70089907705E+02  0.00000000000E+00 0. -1.
         -5    1    5    5    0  502  0.18743558721E+00  0.33646436945E+02  0.70988490108E+01  0.34707369656E+02  0.47000000000E+01 0.  1.
         13    1    6    6    0    0  0.41757089968E+02  0.68666236834E+02  0.36730703857E+03  0.37599623300E+03  0.00000000000E+00 0. -1.
        -14    1    6    6    0    0 -0.34629012505E+02  0.38179132306E+02  0.17198174518E+03  0.17953978758E+03  0.00000000000E+00 0.  1.
</event>
<event>
12    1  0.8633375E-002  0.2270427E+03  0.7818608E-02  0.1128771E+00
         21   -1    0    0  503  502  0.00000000000E+00  0.00000000000E+00  0.69202287366E+02  0.69202287366E+02  0.00000000000E+00 0.  1.
         21   -1    0    0  501  503 -0.00000000000E+00 -0.00000000000E+00 -0.74439644460E+03  0.74439644460E+03  0.00000000000E+00 0.  1.
          6    2    1    2  501    0 -0.64492331164E+02 -0.13346974706E+03 -0.33308003812E+03  0.40300102901E+03  0.17173841571E+03 0.  0.
         24    2    3    3    0    0 -0.25839753091E+02 -0.15664151302E+03 -0.26261051650E+03  0.31922158042E+03  0.87942467499E+02 0.  0.
         -6    2    1    2    0  502  0.64492331164E+02  0.13346974706E+03 -0.34211411911E+03  0.41059770295E+03  0.17197374513E+03 0.  0.
        -24    2    5    5    0    0  0.18790912085E+02 -0.53763876878E+01 -0.12944455317E+03  0.15249442301E+03  0.78209032605E+02 0.  0.
          5    1    3    3  501    0 -0.38652578073E+02  0.23171765953E+02 -0.70469521612E+02  0.83779448585E+02  0.47000000000E+01 0. -1.
        -11    1    4    4    0    0  0.21527645462E+02 -0.93951928759E+02 -0.18595227148E+03  0.20944844641E+03  0.00000000000E+00 0.  1.
         12    1    4    4    0    0 -0.47367398554E+02 -0.62689584256E+02 -0.76658245023E+02  0.10977313401E+03  0.00000000000E+00 0. -1.
         -5    1    5    5    0  502  0.45701419079E+02  0.13884613475E+03 -0.21266956594E+03  0.25810327994E+03  0.47000000000E+01 0.  1.
         13    1    6    6    0    0  0.11695224285E+02 -0.68351589590E+00 -0.13911912565E+03  0.13961152025E+03  0.00000000000E+00 0. -1.
        -14    1    6    6    0    0  0.70956878002E+01 -0.46928717919E+01  0.96745724736E+01  0.12882902761E+02  0.00000000000E+00 0.  1.
</event>
<event>
12    1  0.8633375E-002  0.1915479E+03  0.7818608E-02  0.1161015E+00
         21   -1    0    0  503  502  0.00000000000E+00  0.00000000000E+00  0.89632047442E+02  0.89632047442E+02  0.00000000000E+00 0. -1.
         21   -1    0    0  501  503 -0.00000000000E+00 -0.00000000000E+00 -0.56759393385E+03  0.56759393385E+03  0.00000000000E+00 0. -1.
          6    2    1    2  501    0  0.79594528158E+02 -0.17415115251E+02 -0.42343584436E+03  0.45806853000E+03  0.15456483669E+03 0.  0.
         24    2    3    3    0    0  0.43165159806E+02  0.46249682571E+01 -0.11523498153E+03  0.14690502635E+03  0.80108454273E+02 0.  0.
         -6    2    1    2    0  502 -0.79594528158E+02  0.17415115251E+02 -0.54526042057E+02  0.19915745129E+03  0.17335520180E+03 0.  0.
        -24    2    5    5    0    0 -0.32653829183E+02  0.68305455394E+02  0.37836313802E+00  0.11067107014E+03  0.80721959900E+02 0.  0.
          5    1    3    3  501    0  0.36429368352E+02 -0.22040083509E+02 -0.30820086283E+03  0.31116350365E+03  0.47000000000E+01 0. -1.
        -11    1    4    4    0    0  0.14015433546E+02  0.26153211500E+02 -0.10519867454E+03  0.10930317458E+03  0.00000000000E+00 0.  1.
         12    1    4    4    0    0  0.29149726260E+02 -0.21528243243E+02 -0.10036306990E+02  0.37601851765E+02  0.00000000000E+00 0. -1.
         -5    1    5    5    0  502 -0.46940698974E+02 -0.50890340143E+02 -0.54904405195E+02  0.88486381154E+02  0.47000000000E+01 0.  1.
         13    1    6    6    0    0 -0.38708273496E+02  0.34962413508E+02 -0.34107092499E+02  0.62321702111E+02  0.00000000000E+00 0. -1.
        -14    1    6    6    0    0  0.60544443124E+01  0.33343041886E+02  0.34485455637E+02  0.48349368028E+02  0.00000000000E+00 0.  1.
</event>
<event>
12    1  0.8633375E-002  0.1930793E+03  0.7818608E-02  0.1157033E+00
         21   -1    0    0  501  502  0.00000000000E+00  0.00000000000E+00  0.46249700566E+03  0.46249700566E+03  0.00000000000E+00 0.  1.
         21   -1    0    0  502  503 -0.00000000000E+00 -0.00000000000E+00 -0.78186591583E+02  0.78186591583E+02  0.00000000000E+00 0.  1.
         -6    2    1    2    0  503  0.77371443412E+02  0.38448517027E+02  0.18517237649E+03  0.26331098512E+03  0.16606997668E+03 0.  0.
        -24    2    3    3    0    0  0.16693388553E+02  0.37106519180E+02  0.18131928200E+03  0.20231456197E+03  0.79993355804E+02 0.  0.
          6    2    1    2  501    0 -0.77371443412E+02 -0.38448517027E+02  0.19913803759E+03  0.27737261212E+03  0.17267014572E+03 0.  0.
         24    2    5    5    0    0  0.16015694131E+02  0.11113009058E+02  0.61061803823E+02  0.10340526272E+03  0.81142486057E+02 0.  0.
          5    1    5    5  501    0 -0.93387137543E+02 -0.49561526085E+02  0.13807623376E+03  0.17396734940E+03  0.47000000000E+01 0. -1.
        -13    1    6    6    0    0 -0.18209183999E+02 -0.10922889686E+02  0.58935943634E+02  0.62644467857E+02  0.00000000000E+00 0.  1.
         14    1    6    6    0    0  0.34224878130E+02  0.22035898745E+02  0.21258601888E+01  0.40760794865E+02  0.00000000000E+00 0. -1.
         -5    1    3    3    0  503  0.60678054859E+02  0.13419978468E+01  0.38530944833E+01  0.60996423148E+02  0.47000000000E+01 0.  1.
         13    1    4    4    0    0 -0.20644379626E+02 -0.35626133877E+00  0.98569503185E+01  0.22879615422E+02  0.00000000000E+00 0. -1.
        -14    1    4    4    0    0  0.37337768179E+02  0.37462780519E+02  0.17146233169E+03  0.17943494655E+03  0.00000000000E+00 0.  1.
</event>
<event>
12    1  0.8633375E-002  0.1786536E+03  0.7818608E-02  0.1169791E+00
         21   -1    0    0  501  502  0.00000000000E+00  0.00000000000E+00  0.90674150141E+03  0.90674150141E+03  0.00000000000E+00 0.  1.
         21   -1    0    0  502  503 -0.00000000000E+00 -0.00000000000E+00 -0.66421843736E+03  0.66421843736E+03  0.00000000000E+00 0.  1.
         -6    2    1    2    0  503  0.13095919648E+02 -0.28081910403E+02 -0.64349854081E+03  0.66710630544E+03  0.17314835817E+03 0.  0.
        -24    2    3    3    0    0  0.71251217985E+02  0.16425908509E+02 -0.36629259137E+03  0.38035168373E+03  0.71767640966E+02 0.  0.
          6    2    1    2  501    0 -0.13095919648E+02  0.28081910403E+02  0.88602160486E+03  0.90385363333E+03  0.17594604117E+03 0.  0.
         24    2    5    5    0    0 -0.14465441148E+02 -0.30599646352E+02  0.24234686436E+03  0.25749099344E+03  0.80149994956E+02 0.  0.
          5    1    5    5  501    0  0.13695215003E+01  0.58681556755E+02  0.64367474049E+03  0.64636263989E+03  0.47000000000E+01 0. -1.
        -13    1    6    6    0    0 -0.47336870367E+02 -0.10821953069E+02  0.14093532986E+03  0.14906596247E+03  0.00000000000E+00 0.  1.
         14    1    6    6    0    0  0.32871429219E+02 -0.19777693283E+02  0.10141153450E+03  0.10842503097E+03  0.00000000000E+00 0. -1.
         -5    1    3    3    0  503 -0.58155298337E+02 -0.44507818912E+02 -0.27720594944E+03  0.28675462171E+03  0.47000000000E+01 0.  1.
         13    1    4    4    0    0  0.28621193367E+02 -0.27930350196E+02 -0.11983508201E+03  0.12633180143E+03  0.00000000000E+00 0. -1.
        -14    1    4    4    0    0  0.42630024618E+02  0.44356258705E+02 -0.24645750935E+03  0.25401988230E+03  0.00000000000E+00 0.  1.
</event>
<event>
12    1  0.8633375E-002  0.1871756E+03  0.7818608E-02  0.1161127E+00
         21   -1    0    0  503  502  0.00000000000E+00  0.00000000000E+00  0.37692076863E+03  0.37692076863E+03  0.00000000000E+00 0. -1.
         21   -1    0    0  501  503 -0.00000000000E+00 -0.00000000000E+00 -0.18751834515E+03  0.18751834515E+03  0.00000000000E+00 0. -1.
          6    2    1    2  501    0  0.22382121172E+02 -0.69455378194E+02 -0.10598138553E+03  0.21474450821E+03  0.17192481153E+03 0.  0.
         24    2    3    3    0    0 -0.21532518147E+02 -0.20568643732E+02  0.43811491461E+01  0.86212849026E+02  0.80788256736E+02 0.  0.
         -6    2    1    2    0  502 -0.22382121172E+02  0.69455378194E+02  0.29538380901E+03  0.34969460557E+03  0.17236505919E+03 0.  0.
        -24    2    5    5    0    0  0.15019351693E+02 -0.14942247529E+02  0.20398105869E+03  0.21970082816E+03  0.78811990838E+02 0.  0.
          5    1    3    3  501    0  0.43914639319E+02 -0.48886734462E+02 -0.11036253468E+03  0.12853165919E+03  0.47000000000E+01 0. -1.
        -13    1    4    4    0    0  0.22515557909E+02  0.15766206102E+02  0.90082610608E+01  0.28925289456E+02  0.00000000000E+00 0.  1.
         14    1    4    4    0    0 -0.44048076056E+02 -0.36334849834E+02 -0.46271119147E+01  0.57287559569E+02  0.00000000000E+00 0. -1.
         -5    1    5    5    0  502 -0.37401472865E+02  0.84397625723E+02  0.91402750315E+02  0.12999377741E+03  0.47000000000E+01 0.  1.
         11    1    6    6    0    0  0.71723414529E+01  0.32421059015E+02  0.94209291160E+02  0.99889729654E+02  0.00000000000E+00 0. -1.
        -12    1    6    6    0    0  0.78470102401E+01 -0.47363306544E+02  0.10977176753E+03  0.11981109850E+03  0.00000000000E+00 0.  1.
</event>
<event>
12    1  0.8633375E-002  0.3350133E+03  0.7818608E-02  0.1069192E+00
         21   -1    0    0  501  502  0.00000000000E+00  0.00000000000E+00  0.11160957709E+03  0.11160957709E+03  0.00000000000E+00 0. -1.
         21   -1    0    0  502  503 -0.00000000000E+00 -0.00000000000E+00 -0.10276494482E+04  0.10276494482E+04  0.00000000000E+00 0. -1.
         -6    2    1    2    0  503 -0.48197302048E+01 -0.28589611039E+03 -0.55217064956E+03  0.64465340408E+03  0.17007577552E+03 0.  0.
        -24    2    3    3    0    0 -0.26185202050E+02 -0.24648943222E+03 -0.53947916271E+03  0.59782890718E+03  0.70135085784E+02 0.  0.
          6    2    1    2  501    0  0.48197302048E+01  0.28589611039E+03 -0.36386922155E+03  0.49460562122E+03  0.17456830874E+03 0.  0.
         24    2    5    5    0    0 -0.29768077711E+02  0.27920989183E+03 -0.28309058597E+03  0.40635427595E+03  0.78353146526E+02 0.  0.
          5    1    5    5  501    0  0.34587807916E+02  0.66862185533E+01 -0.80778635586E+02  0.88251345271E+02  0.47000000000E+01 0. -1.
        -11    1    6    6    0    0 -0.40902281006E+02  0.88440100151E+02 -0.12399875699E+03  0.15770332793E+03  0.00000000000E+00 0.  1.
         12    1    6    6    0    0  0.11134203295E+02  0.19076979168E+03 -0.15909182897E+03  0.24865094801E+03  0.00000000000E+00 0. -1.
         -5    1    3    3    0  503  0.21365471845E+02 -0.39406678169E+02 -0.12691486851E+02  0.46824496900E+02  0.47000000000E+01 0.  1.
         11    1    4    4    0    0 -0.23467417565E+01 -0.21721131345E+03 -0.42519111721E+03  0.47746596533E+03  0.00000000000E+00 0. -1.
        -12    1    4    4    0    0 -0.23838460293E+02 -0.29278118766E+02 -0.11428804550E+03  0.12036294185E+03  0.00000000000E+00 0.  1.
</event>
<event>
12    1  0.8633375E-002  0.2669422E+03  0.7818608E-02  0.1103273E+00
         21   -1    0    0  501  502  0.00000000000E+00  0.00000000000E+00  0.11969700025E+03  0.11969700025E+03  0.00000000000E+00 0. -1.
         21   -1    0    0  502  503 -0.00000000000E+00 -0.00000000000E+00 -0.64323913175E+03  0.64323913175E+03  0.00000000000E+00 0. -1.
         -6    2    1    2    0  503  0.10214173039E+03 -0.17414162418E+03 -0.36892648694E+03  0.45444929720E+03  0.17221838635E+03 0.  0.
        -24    2    3    3    0    0  0.10567650039E+03 -0.11467862282E+03 -0.35076886795E+03  0.39199825832E+03  0.79404826874E+02 0.  0.
          6    2    1    2  501    0 -0.10214173039E+03  0.17414162418E+03 -0.15461564456E+03  0.30848683480E+03  0.17464218089E+03 0.  0.
         24    2    5    5    0    0 -0.87339017566E+02  0.11046096717E+03 -0.17655573378E+03  0.23936517467E+03  0.79334925854E+02 0.  0.
          5    1    5    5  501    0 -0.14802712821E+02  0.63680657012E+02  0.21940089217E+02  0.69121660130E+02  0.47000000000E+01 0. -1.
        -11    1    6    6    0    0 -0.12140499143E+02 -0.49459348446E+01 -0.52098743297E+02  0.53722742336E+02  0.00000000000E+00 0.  1.
         12    1    6    6    0    0 -0.75198518423E+02  0.11540690201E+03 -0.12445699048E+03  0.18564243234E+03  0.00000000000E+00 0. -1.
         -5    1    3    3    0  503 -0.35347700042E+01 -0.59463001363E+02 -0.18157618985E+02  0.62451038880E+02  0.47000000000E+01 0.  1.
         13    1    4    4    0    0  0.68225329532E+02 -0.84117336051E+02 -0.14709781789E+03  0.18266961937E+03  0.00000000000E+00 0. -1.
        -14    1    4    4    0    0  0.37451170859E+02 -0.30561286769E+02 -0.20367105006E+03  0.20932863894E+03  0.00000000000E+00 0.  1.
</event>
<event>
12    1  0.8633375E-002  0.2091497E+03  0.7818608E-02  0.1143230E+00
         21   -1    0    0  503  502  0.00000000000E+00  0.00000000000E+00  0.17405483981E+03  0.17405483981E+03  0.00000000000E+00 0. -1.
         21   -1    0    0  501  503 -0.00000000000E+00 -0.00000000000E+00 -0.33804317501E+03  0.33804317501E+03  0.00000000000E+00 0. -1.
          6    2    1    2  501    0 -0.73476924751E+02 -0.73384393109E+02 -0.21527923813E+03  0.29675092278E+03  0.17587447847E+03 0.  0.
         24    2    3    3    0    0 -0.54146149895E+02  0.24309059879E+02 -0.76532893868E+02  0.12589915176E+03  0.80439894517E+02 0.  0.
         -6    2    1    2    0  502  0.73476924751E+02  0.73384393109E+02  0.51290902926E+02  0.21534709205E+03  0.18154747508E+03 0.  0.
        -24    2    5    5    0    0 -0.45686053454E+01  0.97182505399E+02  0.20862857604E+02  0.12813808530E+03  0.80739077067E+02 0.  0.
          5    1    3    3  501    0 -0.19330774857E+02 -0.97693452989E+02 -0.13874634426E+03  0.17085177102E+03  0.47000000000E+01 0. -1.
        -13    1    4    4    0    0  0.62891216334E+01  0.12523638125E+02 -0.60735405295E+02  0.62331244325E+02  0.00000000000E+00 0.  1.
         14    1    4    4    0    0 -0.60435271528E+02  0.11785421755E+02 -0.15797488573E+02  0.63567907436E+02  0.00000000000E+00 0. -1.
         -5    1    5    5    0  502  0.78045530097E+02 -0.23798112290E+02  0.30428045321E+02  0.87209006752E+02  0.47000000000E+01 0.  1.
         11    1    6    6    0    0  0.21931387568E+02  0.90423515944E+02 -0.11169245582E+01  0.93051843167E+02  0.00000000000E+00 0. -1.
        -12    1    6    6    0    0 -0.26499992914E+02  0.67589894556E+01  0.21979782162E+02  0.35086242130E+02  0.00000000000E+00 0.  1.
</event>
<event>
12    1  0.8633375E-002  0.2235133E+03  0.7818608E-02  0.1131543E+00
         21   -1    0    0  503  502  0.00000000000E+00  0.00000000000E+00  0.11387541316E+04  0.11387541316E+04  0.00000000000E+00 0.  1.
         21   -1    0    0  501  503 -0.00000000000E+00 -0.00000000000E+00 -0.74443444847E+02  0.74443444847E+02  0.00000000000E+00 0. -1.
          6    2    1    2  501    0 -0.86723793980E+01 -0.13976620579E+03  0.14074838768E+03  0.26297364133E+03  0.17243904708E+03 0.  0.
         24    2    3    3    0    0 -0.61099887425E+01 -0.86837997148E+02  0.15176065877E+02  0.12659747362E+03  0.90655599060E+02 0.  0.
         -6    2    1    2    0  502  0.86723793980E+01  0.13976620579E+03  0.92356229904E+03  0.95022393508E+03  0.17420793367E+03 0.  0.
        -24    2    5    5    0    0  0.60034202597E+02  0.33118046190E+02  0.45635653345E+03  0.46823308016E+03  0.79246585232E+02 0.  0.
          5    1    3    3  501    0 -0.25623906555E+01 -0.52928208640E+02  0.12557232181E+03  0.13637616771E+03  0.47000000000E+01 0. -1.
        -13    1    4    4    0    0 -0.85567945209E+01 -0.18221034913E+02  0.46843719533E+02  0.50985869665E+02  0.00000000000E+00 0.  1.
         14    1    4    4    0    0  0.24468057784E+01 -0.68616962235E+02 -0.31667653657E+02  0.75611603957E+02  0.00000000000E+00 0. -1.
         -5    1    5    5    0  502 -0.51361823199E+02  0.10664815960E+03  0.46720576559E+03  0.48199085492E+03  0.47000000000E+01 0.  1.
         13    1    6    6    0    0  0.58375317786E+02  0.19980807630E+02  0.15855046604E+03  0.17013277368E+03  0.00000000000E+00 0. -1.
        -14    1    6    6    0    0  0.16588848103E+01  0.13137238560E+02  0.29780606741E+03  0.29810030647E+03  0.00000000000E+00 0.  1.
</event>
<event>
12    1  0.8633375E-002  0.1772668E+03  0.7818608E-02  0.1171562E+00
         21   -1    0    0  501  502  0.00000000000E+00  0.00000000000E+00  0.52672686598E+02  0.52672686598E+02  0.00000000000E+00 0. -1.
         21   -1    0    0  502  503 -0.00000000000E+00 -0.00000000000E+00 -0.58212413524E+03  0.58212413524E+03  0.00000000000E+00 0. -1.
         -6    2    1    2    0  503 -0.96489433998E+01 -0.20970794262E+02 -0.26436337039E+03  0.31829467159E+03  0.17575730436E+03 0.  0.
        -24    2    3    3    0    0 -0.30699090065E+01 -0.52093645228E+02 -0.67018550738E+02  0.11834722002E+03  0.82409988040E+02 0.  0.
          6    2    1    2  501    0  0.96489433998E+01  0.20970794262E+02 -0.26508807825E+03  0.31650215025E+03  0.17137399325E+03 0.  0.
         24    2    5    5    0    0  0.44497924301E+02  0.51138873376E+02 -0.94516607472E+02  0.13975011742E+03  0.77469068616E+02 0.  0.
          5    1    5    5  501    0 -0.34848980901E+02 -0.30168079114E+02 -0.17057147078E+03  0.17675203284E+03  0.47000000000E+01 0. -1.
        -13    1    6    6    0    0 -0.20364463922E+02  0.13898250574E+02 -0.92608065648E+01  0.26336956887E+02  0.00000000000E+00 0.  1.
         14    1    6    6    0    0  0.64862388223E+02  0.37240622802E+02 -0.85255800907E+02  0.11341316053E+03  0.00000000000E+00 0. -1.
         -5    1    3    3    0  503 -0.65790343933E+01  0.31122850965E+02 -0.19734481965E+03  0.19994745157E+03  0.47000000000E+01 0.  1.
         11    1    4    4    0    0 -0.30587284144E+02 -0.17817669074E+01 -0.66377754092E+00  0.30646325151E+02  0.00000000000E+00 0. -1.
        -12    1    4    4    0    0  0.27517375138E+02 -0.50311878320E+02 -0.66354773197E+02  0.87700894867E+02  0.00000000000E+00 0.  1.
</event>
<event>
12    1  0.8633375E-002  0.1984682E+03  0.7818608E-02  0.1151322E+00
         21   -1    0    0  503  502  0.00000000000E+00  0.00000000000E+00  0.13609088855E+04  0.13609088855E+04  0.00000000000E+00 0. -1.
         21   -1    0    0  501  503 -0.00000000000E+00 -0.00000000000E+00 -0.31127730279E+02  0.31127730279E+02  0.00000000000E+00 0. -1.
          6    2    1    2  501    0  0.21823248573E+02  0.95522270990E+02  0.85929614227E+03  0.88191807608E+03  0.17259453749E+03 0.  0.
         24    2    3    3    0    0  0.32403268202E+02  0.33388166661E+02  0.75162922999E+03  0.75707081846E+03  0.77749490851E+02 0.  0.
         -6    2    1    2    0  502 -0.21823248573E+02 -0.95522270990E+02  0.47048501299E+03  0.51011853973E+03  0.17106729289E+03 0.  0.
        -24    2    5    5    0    0  0.36527309069E+02 -0.79143882961E+02  0.39955771438E+03  0.41670649094E+03  0.79999587205E+02 0.  0.
          5    1    3    3  501    0 -0.10580019629E+02  0.62134104329E+02  0.10766691229E+03  0.12484725763E+03  0.47000000000E+01 0. -1.
        -13    1    4    4    0    0 -0.21628971145E+02  0.29142140722E+02  0.28277192140E+03  0.28509127712E+03  0.00000000000E+00 0.  1.
         14    1    4    4    0    0  0.54032239347E+02  0.42460259391E+01  0.46885730859E+03  0.47197954134E+03  0.00000000000E+00 0. -1.
         -5    1    5    5    0  502 -0.58350557642E+02 -0.16378388028E+02  0.70927298607E+02  0.93412048790E+02  0.47000000000E+01 0.  1.
         11    1    6    6    0    0 -0.80183375785E+01 -0.21124361150E+01  0.17448530793E+03  0.17468222235E+03  0.00000000000E+00 0. -1.
        -12    1    6    6    0    0  0.44545646648E+02 -0.77031446846E+02  0.22507240646E+03  0.24202426859E+03  0.00000000000E+00 0.  1.
</event>
<event>
12    1  0.8633375E-002  0.1872804E+03  0.7818608E-02  0.1161555E+00
         21   -1    0    0  501  502  0.00000000000E+00  0.00000000000E+00  0.12855292410E+03  0.12855292410E+03  0.00000000000E+00 0.  1.
         21   -1    0    0  502  503 -0.00000000000E+00 -0.00000000000E+00 -0.32025891330E+03  0.32025891330E+03  0.00000000000E+00 0.  1.
         -6    2    1    2    0  503 -0.80972990178E+01  0.69989567826E+02 -0.18623584926E+03  0.26411691319E+03  0.17352189034E+03 0.  0.
        -24    2    3    3    0    0 -0.43029510750E+02  0.10359796989E+03 -0.12383355010E+03  0.18495934219E+03  0.79316656344E+02 0.  0.
          6    2    1    2  501    0  0.80972990178E+01 -0.69989567826E+02 -0.54701399418E+01  0.18469492421E+03  0.17064051905E+03 0.  0.
         24    2    5    5    0    0 -0.47527929644E+02 -0.70069939081E+02 -0.35547298458E+02  0.12128437313E+03  0.79231232981E+02 0.  0.
          5    1    5    5  501    0  0.55625228662E+02  0.80371255411E-01  0.30077158517E+02  0.63410551075E+02  0.47000000000E+01 0. -1.
        -11    1    6    6    0    0  0.69010957719E+01 -0.73125723656E+01  0.19284107472E+02  0.21748003091E+02  0.00000000000E+00 0.  1.
         12    1    6    6    0    0 -0.54429025416E+02 -0.62757366716E+02 -0.54831405931E+02  0.99536370042E+02  0.00000000000E+00 0. -1.
         -5    1    3    3    0  503  0.34932211732E+02 -0.33608402061E+02 -0.62402299159E+02  0.79157570995E+02  0.47000000000E+01 0.  1.
         11    1    4    4    0    0 -0.32991275842E+02  0.49750304561E+02 -0.12657954885E+02  0.61022462319E+02  0.00000000000E+00 0. -1.
        -12    1    4    4    0    0 -0.10038234908E+02  0.53847665325E+02 -0.11117559522E+03  0.12393687987E+03  0.00000000000E+00 0.  1.
</event>
<event>
12    1  0.8633375E-002  0.2010865E+03  0.7818608E-02  0.1148860E+00
         21   -1    0    0  503  502  0.00000000000E+00  0.00000000000E+00  0.14368248612E+04  0.14368248612E+04  0.00000000000E+00 0.  1.
         21   -1    0    0  501  503 -0.00000000000E+00 -0.00000000000E+00 -0.29307977284E+02  0.29307977284E+02  0.00000000000E+00 0.  1.
          6    2    1    2  501    0 -0.83331172036E+02 -0.62388530463E+02  0.55583364425E+03  0.59103276560E+03  0.17184957656E+03 0.  0.
         24    2    3    3    0    0 -0.77133905138E+02 -0.10680384579E+03  0.47200775980E+03  0.49584875824E+03  0.75617226470E+02 0.  0.
         -6    2    1    2    0  502  0.83331172036E+02  0.62388530463E+02  0.85168323965E+03  0.87510007287E+03  0.17204471474E+03 0.  0.
        -24    2    5    5    0    0  0.34066920241E+02 -0.33416995627E+02  0.40629914697E+03  0.41684823671E+03  0.80038771640E+02 0.  0.
          5    1    3    3  501    0 -0.61972668980E+01  0.44415315330E+02  0.83825884443E+02  0.95184007352E+02  0.47000000000E+01 0. -1.
        -11    1    4    4    0    0 -0.18744344100E+02 -0.86041359543E+02  0.23780092293E+03  0.25358183085E+03  0.00000000000E+00 0.  1.
         12    1    4    4    0    0 -0.58389561039E+02 -0.20762486250E+02  0.23420683687E+03  0.24226692740E+03  0.00000000000E+00 0. -1.
         -5    1    5    5    0  502  0.49264251795E+02  0.95805526090E+02  0.44538409268E+03  0.45825183617E+03  0.47000000000E+01 0.  1.
         13    1    6    6    0    0 -0.11669119358E+02  0.61738966448E+01  0.23153635422E+03  0.23191241595E+03  0.00000000000E+00 0. -1.
        -14    1    6    6    0    0  0.45736039600E+02 -0.39590892272E+02  0.17476279275E+03  0.18493582076E+03  0.00000000000E+00 0.  1.
</event>
<event>
12    1  0.8633375E-002  0.1739455E+03  0.7818608E-02  0.1174061E+00
         21   -1    0    0  503  502  0.00000000000E+00  0.00000000000E+00  0.75379117359E+02  0.75379117359E+02  0.00000000000E+00 0. -1.
         21   -1    0    0  501  503 -0.00000000000E+00 -0.00000000000E+00 -0.55240498150E+03  0.55240498150E+03  0.00000000000E+00 0. -1.
          6    2    1    2  501    0  0.21996574967E+02  0.74679038104E+01 -0.40341480048E+03  0.43890413315E+03  0.17132926765E+03 0.  0.
         24    2    3    3    0    0 -0.24296932551E+02 -0.25065042044E+02 -0.35095754678E+03  0.36160384292E+03  0.79796881562E+02 0.  0.
         -6    2    1    2    0  502 -0.21996574967E+02 -0.74679038104E+01 -0.73611063660E+02  0.18887996571E+03  0.17238745272E+03 0.  0.
        -24    2    5    5    0    0 -0.32951686460E+02  0.59541395562E+02 -0.56709860969E+02  0.11875150271E+03  0.79088049909E+02 0.  0.
          5    1    3    3  501    0  0.46293507517E+02  0.32532945854E+02 -0.52457253699E+02  0.77300290231E+02  0.47000000000E+01 0. -1.
        -11    1    4    4    0    0 -0.67763003711E-01 -0.43049079700E+02 -0.10045582874E+03  0.10929136005E+03  0.00000000000E+00 0.  1.
         12    1    4    4    0    0 -0.24229169547E+02  0.17984037656E+02 -0.25050171804E+03  0.25231248287E+03  0.00000000000E+00 0. -1.
         -5    1    5    5    0  502  0.10955111493E+02 -0.67009299373E+02 -0.16901202691E+02  0.70128462999E+02  0.47000000000E+01 0.  1.
         11    1    6    6    0    0 -0.12275315226E+02  0.30825900820E+02  0.16783449923E+02  0.37183379574E+02  0.00000000000E+00 0. -1.
        -12    1    6    6    0    0 -0.20676371235E+02  0.28715494743E+02 -0.73493310893E+02  0.81568123135E+02  0.00000000000E+00 0.  1.
</event>
<event>
12    1  0.8633375E-002  0.2200435E+03  0.7818608E-02  0.1133975E+00
         21   -1    0    0  503  502  0.00000000000E+00  0.00000000000E+00  0.69774032083E+02  0.69774032083E+02  0.00000000000E+00 0.  1.
         21   -1    0    0  501  503 -0.00000000000E+00 -0.00000000000E+00 -0.71993412519E+03  0.71993412519E+03  0.00000000000E+00 0.  1.
          6    2    1    2  501    0  0.78594331922E+01 -0.13643267601E+03 -0.40259548013E+03  0.45848710757E+03  0.17161486359E+03 0.  0.
         24    2    3    3    0    0  0.48786724890E+02 -0.11287131578E+03 -0.18670273237E+03  0.23743971572E+03  0.79997686705E+02 0.  0.
         -6    2    1    2    0  502 -0.78594331922E+01  0.13643267601E+03 -0.24756461297E+03  0.33122104970E+03  0.17246304067E+03 0.  0.
        -24    2    5    5    0    0 -0.40466177903E+02  0.33539520105E+02 -0.60604498913E+02  0.11528963563E+03  0.82803283952E+02 0.  0.
          5    1    3    3  501    0 -0.40927291698E+02 -0.23561360232E+02 -0.21589274777E+03  0.22104739184E+03  0.47000000000E+01 0. -1.
        -11    1    4    4    0    0  0.70484381800E+02 -0.93770655204E+02 -0.15709166498E+03  0.19605809104E+03  0.00000000000E+00 0.  1.
         12    1    4    4    0    0 -0.21697656910E+02 -0.19100660577E+02 -0.29611067383E+02  0.41381624683E+02  0.00000000000E+00 0. -1.
         -5    1    5    5    0  502  0.32606744710E+02  0.10289315591E+03 -0.18696011406E+03  0.21593141407E+03  0.47000000000E+01 0.  1.
         13    1    6    6    0    0 -0.18667711624E+02  0.61512692010E+01 -0.74931900716E+02  0.77466840099E+02  0.00000000000E+00 0. -1.
        -14    1    6    6    0    0 -0.21798466279E+02  0.27388250904E+02  0.14327401803E+02  0.37822795535E+02  0.00000000000E+00 0.  1.
</event>
<event>
12    1  0.8633375E-002  0.2328631E+03  0.7818608E-02  0.1124934E+00
         21   -1    0    0  501  502  0.00000000000E+00  0.00000000000E+00  0.22392031858E+03  0.22392031858E+03  0.00000000000E+00 0. -1.
         21   -1    0    0  502  503 -0.00000000000E+00 -0.00000000000E+00 -0.24563152686E+03  0.24563152686E+03  0.00000000000E+00 0.  1.
         -6    2    1    2    0  503 -0.14908507520E+03 -0.44096332939E+02  0.23400090380E+02  0.23235937738E+03  0.17109199221E+03 0.  0.
        -24    2    3    3    0    0 -0.15456321720E+02  0.21750305948E+02  0.10932698350E+02  0.82793507362E+02  0.77609711236E+02 0.  0.
          6    2    1    2  501    0  0.14908507520E+03  0.44096332939E+02 -0.45111298666E+02  0.23719246806E+03  0.17336202414E+03 0.  0.
         24    2    5    5    0    0  0.19233919958E+02  0.46726440552E+02  0.12720223904E+02  0.94943338061E+02  0.79367055018E+02 0.  0.
          5    1    5    5  501    0  0.12985115524E+03 -0.26301076129E+01 -0.57831522570E+02  0.14224913000E+03  0.47000000000E+01 0. -1.
        -13    1    6    6    0    0  0.45830440020E+02  0.42988065336E+02 -0.45681819177E+01  0.63002152978E+02  0.00000000000E+00 0.  1.
         14    1    6    6    0    0 -0.26596520062E+02  0.37383752164E+01  0.17288405822E+02  0.31941185083E+02  0.00000000000E+00 0. -1.
         -5    1    3    3    0  503 -0.13362875348E+03 -0.65846638887E+02  0.12467392030E+02  0.14956587002E+03  0.47000000000E+01 0.  1.
         11    1    4    4    0    0 -0.43655003809E+02  0.87984743196E+01  0.22226416070E+02  0.49771337929E+02  0.00000000000E+00 0. -1.
        -12    1    4    4    0    0  0.28198682089E+02  0.12951831628E+02 -0.11293717720E+02  0.33022169432E+02  0.00000000000E+00 0.  1.
</event>
<event>
12    1  0.8633375E-002  0.1750681E+03  0.7818608E-02  0.1174276E+00
         21   -1    0    0  501  502  0.00000000000E+00  0.00000000000E+00  0.70490554139E+03  0.70490554139E+03  0.00000000000E+00 0. -1.
         21   -1    0    0  502  503 -0.00000000000E+00 -0.00000000000E+00 -0.55056416970E+02  0.55056416970E+02  0.00000000000E+00 0. -1.
         -6    2    1    2    0  503 -0.13563892154E+02  0.29682595454E+02  0.14393416203E+03  0.22664039933E+03  0.17199939525E+03 0.  0.
        -24    2    3    3    0    0 -0.18882973235E+02 -0.38911863912E+02  0.33795169028E+02  0.96693563056E+02  0.79604220086E+02 0.  0.
          6    2    1    2  501    0  0.13563892154E+02 -0.29682595454E+02  0.50591496240E+03  0.53332155903E+03  0.16558049556E+03 0.  0.
         24    2    5    5    0    0 -0.48696029857E+02 -0.45578053530E+02  0.31008049335E+03  0.32716095964E+03  0.80222932301E+02 0.  0.
          5    1    5    5  501    0  0.62259922011E+02  0.15895458076E+02  0.19583446905E+03  0.20616059940E+03  0.47000000000E+01 0. -1.
        -13    1    6    6    0    0 -0.53988667654E+02 -0.25104367981E+02  0.10274544423E+03  0.11875029195E+03  0.00000000000E+00 0.  1.
         14    1    6    6    0    0  0.52926377966E+01 -0.20473685549E+02  0.20733504912E+03  0.20841066769E+03  0.00000000000E+00 0. -1.
         -5    1    3    3    0  503  0.53190810810E+01  0.68594459367E+02  0.11013899300E+03  0.12994683628E+03  0.47000000000E+01 0.  1.
         11    1    4    4    0    0 -0.46756849453E+02 -0.11334078304E+02  0.31314483744E+02  0.57404365635E+02  0.00000000000E+00 0. -1.
        -12    1    4    4    0    0  0.27873876218E+02 -0.27577785608E+02  0.24806852836E+01  0.39289197421E+02  0.00000000000E+00 0.  1.
</event>
<event>
12    1  0.8633375E-002  0.1752952E+03  0.7818608E-02  0.1172851E+00
         21   -1    0    0  501  502  0.00000000000E+00  0.00000000000E+00  0.40260591120E+03  0.40260591120E+03  0.00000000000E+00 0. -1.
         21   -1    0    0  502  503 -0.00000000000E+00 -0.00000000000E+00 -0.97195236194E+02  0.97195236194E+02  0.00000000000E+00 0. -1.
         -6    2    1    2    0  503  0.20766882107E+02  0.22710826076E+02  0.35494835414E+02  0.17885267181E+03  0.17257273788E+03 0.  0.
        -24    2    3    3    0    0 -0.26602819100E+02  0.15759165489E+02  0.77009075484E+02  0.11530948723E+03  0.80061344342E+02 0.  0.
          6    2    1    2  501    0 -0.20766882107E+02 -0.22710826076E+02  0.26991583959E+03  0.32094847558E+03  0.17089856203E+03 0.  0.
         24    2    5    5    0    0 -0.78378252594E+01 -0.45887101947E+02  0.57694803961E+02  0.10702288516E+03  0.77189053073E+02 0.  0.
          5    1    5    5  501    0 -0.12929056848E+02  0.23176275871E+02  0.21222103563E+03  0.21392559042E+03  0.47000000000E+01 0. -1.
        -13    1    6    6    0    0 -0.16975004657E+02 -0.16432221698E+01 -0.14146010243E+02  0.22157630018E+02  0.00000000000E+00 0.  1.
         14    1    6    6    0    0  0.91371793979E+01 -0.44243879777E+02  0.71840814204E+02  0.84865255144E+02  0.00000000000E+00 0. -1.
         -5    1    3    3    0  503  0.47369701207E+02  0.69516605869E+01 -0.41514240071E+02  0.63543184575E+02  0.47000000000E+01 0.  1.
         11    1    4    4    0    0  0.16593135521E+02  0.28893295885E+02  0.10519858091E+02  0.34940264849E+02  0.00000000000E+00 0. -1.
        -12    1    4    4    0    0 -0.43195954621E+02 -0.13134130396E+02  0.66489217393E+02  0.80369222383E+02  0.00000000000E+00 0.  1.
</event>
<event>
12    1  0.8633375E-002  0.2883376E+03  0.7818608E-02  0.1091316E+00
         21   -1    0    0  503  502  0.00000000000E+00  0.00000000000E+00  0.23583103316E+03  0.23583103316E+03  0.00000000000E+00 0. -1.
         21   -1    0    0  501  503 -0.00000000000E+00 -0.00000000000E+00 -0.47455527058E+03  0.47455527058E+03  0.00000000000E+00 0.  1.
          6    2    1    2  501    0  0.23000888190E+03  0.43174670811E+01 -0.30023670656E+03  0.41626990131E+03  0.17382699588E+03 0.  0.
         24    2    3    3    0    0  0.11507713365E+03 -0.22248093643E+02 -0.25124679365E+03  0.28845308966E+03  0.79639872282E+02 0.  0.
         -6    2    1    2    0  502 -0.23000888190E+03 -0.43174670811E+01  0.61512469147E+02  0.29411640243E+03  0.17262082158E+03 0.  0.
        -24    2    5    5    0    0 -0.36471144962E+02  0.18504597871E+02  0.39349708859E+02  0.97925219625E+02  0.79802158455E+02 0.  0.
          5    1    3    3  501    0  0.11493174825E+03  0.26565560724E+02 -0.48989912909E+02  0.12781681164E+03  0.47000000000E+01 0. -1.
        -11    1    4    4    0    0 -0.90672548783E+01 -0.11659595045E+02 -0.46361656282E+02  0.48657624694E+02  0.00000000000E+00 0.  1.
         12    1    4    4    0    0  0.12414438853E+03 -0.10588498597E+02 -0.20488513737E+03  0.23979546497E+03  0.00000000000E+00 0. -1.
         -5    1    5    5    0  502 -0.19353773694E+03 -0.22822064953E+02  0.22162760288E+02  0.19619118281E+03  0.47000000000E+01 0.  1.
         11    1    6    6    0    0 -0.21303663132E+02 -0.28165458082E+02  0.33196649570E+02  0.48468099143E+02  0.00000000000E+00 0. -1.
        -12    1    6    6    0    0 -0.15167481829E+02  0.46670055954E+02  0.61530592893E+01  0.49457120482E+02  0.00000000000E+00 0.  1.
</event>
<event>
12    1  0.8633375E-002  0.1736277E+03  0.7818608E-02  0.1174323E+00
         21   -1    0    0  501  502  0.00000000000E+00  0.00000000000E+00  0.47288017859E+02  0.47288017859E+02  0.00000000000E+00 0. -1.
         21   -1    0    0  502  503 -0.00000000000E+00 -0.00000000000E+00 -0.66951221805E+03  0.66951221805E+03  0.00000000000E+00 0. -1.
         -6    2    1    2    0  503  0.16613325648E+02 -0.22043359458E+02 -0.22988513140E+03  0.28808636888E+03  0.17141957301E+03 0.  0.
        -24    2    3    3    0    0  0.13751773318E+02 -0.46868537842E+02 -0.24265259805E+03  0.25963331688E+03  0.78379874895E+02 0.  0.
          6    2    1    2  501    0 -0.16613325648E+02  0.22043359458E+02 -0.39233906878E+03  0.42871386702E+03  0.17059813188E+03 0.  0.
         24    2    5    5    0    0  0.38786555792E+02  0.94814819465E+01 -0.34609593094E+03  0.35531451125E+03  0.69797658142E+02 0.  0.
          5    1    5    5  501    0 -0.55399881441E+02  0.12561877512E+02 -0.46243137843E+02  0.73399355773E+02  0.47000000000E+01 0. -1.
        -11    1    6    6    0    0 -0.16028797459E+02 -0.11334258145E+02 -0.12700043823E+03  0.12850875094E+03  0.00000000000E+00 0.  1.
         12    1    6    6    0    0  0.54815353252E+02  0.20815740091E+02 -0.21909549271E+03  0.22680576032E+03  0.00000000000E+00 0. -1.
         -5    1    3    3    0  503  0.28615523300E+01  0.24825178384E+02  0.12767466643E+02  0.28453051998E+02  0.47000000000E+01 0.  1.
         11    1    4    4    0    0 -0.13385491611E+02 -0.44816637988E+02 -0.65979503603E+02  0.80876432426E+02  0.00000000000E+00 0. -1.
        -12    1    4    4    0    0  0.27137264929E+02 -0.20518998538E+01 -0.17667309444E+03  0.17875688446E+03  0.00000000000E+00 0.  1.
</event>
<event>
12    1  0.8633375E-002  0.2182486E+03  0.7818608E-02  0.1135538E+00
         21   -1    0    0  503  502  0.00000000000E+00  0.00000000000E+00  0.37229116066E+02  0.37229116066E+02  0.00000000000E+00 0. -1.
         21   -1    0    0  501  503 -0.00000000000E+00 -0.00000000000E+00 -0.13295427843E+04  0.13295427843E+04  0.00000000000E+00 0. -1.
          6    2    1    2  501    0  0.12334502178E+03  0.45679440959E+02 -0.79473715414E+03  0.82415992815E+03  0.17416037800E+03 0.  0.
         24    2    3    3    0    0  0.15162567628E+03  0.58727638668E+02 -0.59671378702E+03  0.62364709861E+03  0.80181536141E+02 0.  0.
         -6    2    1    2    0  502 -0.12334502178E+03 -0.45679440959E+02 -0.49757651409E+03  0.54261197221E+03  0.17188589032E+03 0.  0.
        -24    2    5    5    0    0 -0.13492227232E+03 -0.56606332990E+02 -0.49865090623E+03  0.52597845130E+03  0.81193032021E+02 0.  0.
          5    1    3    3  501    0 -0.28280654494E+02 -0.13048197710E+02 -0.19802336712E+03  0.20051282953E+03  0.47000000000E+01 0. -1.
        -13    1    4    4    0    0 -0.67145720101E+01 -0.29585910725E+01 -0.78103119640E+01  0.10716329194E+02  0.00000000000E+00 0.  1.
         14    1    4    4    0    0  0.15834024829E+03  0.61686229741E+02 -0.58890347506E+03  0.61293076942E+03  0.00000000000E+00 0. -1.
         -5    1    5    5    0  502  0.11577250531E+02  0.10926892032E+02  0.10743921451E+01  0.16633520908E+02  0.47000000000E+01 0.  1.
         11    1    6    6    0    0 -0.86923848492E+02 -0.52424103922E+02 -0.20898920635E+03  0.23233710526E+03  0.00000000000E+00 0. -1.
        -12    1    6    6    0    0 -0.47998423823E+02 -0.41822290685E+01 -0.28966169988E+03  0.29364134604E+03  0.00000000000E+00 0.  1.
</event>
<event>
12    1  0.8633375E-002  0.1853402E+03  0.7818608E-02  0.1162749E+00
         21   -1    0    0  503  502  0.00000000000E+00  0.00000000000E+00  0.67099406019E+02  0.67099406019E+02  0.00000000000E+00 0. -1.
         21   -1    0    0  501  503 -0.00000000000E+00 -0.00000000000E+00 -0.61480006138E+03  0.61480006138E+03  0.00000000000E+00 0. -1.
          6    2    1    2  501    0  0.40879686049E+02  0.58309328434E+02 -0.41348088932E+03  0.45311966910E+03  0.17111359439E+03 0.  0.
         24    2    3    3    0    0 -0.37794352231E+02  0.33846801242E+02 -0.14423463718E+03  0.17151062481E+03  0.77706144201E+02 0.  0.
         -6    2    1    2    0  502 -0.40879686049E+02 -0.58309328434E+02 -0.13421976604E+03  0.22877979830E+03  0.17103836996E+03 0.  0.
        -24    2    5    5    0    0 -0.25028342699E+02 -0.10484215767E+03 -0.85258311701E+02  0.15923928281E+03  0.80435523955E+02 0.  0.
          5    1    3    3  501    0  0.78674038280E+02  0.24462527192E+02 -0.26924625214E+03  0.28160904429E+03  0.47000000000E+01 0. -1.
        -11    1    4    4    0    0 -0.60356009740E+02  0.14406304576E+02 -0.10852053685E+03  0.12500838548E+03  0.00000000000E+00 0.  1.
         12    1    4    4    0    0  0.22561657509E+02  0.19440496666E+02 -0.35714100329E+02  0.46502239328E+02  0.00000000000E+00 0. -1.
         -5    1    5    5    0  502 -0.15851343350E+02  0.46532829233E+02 -0.48961454343E+02  0.69540515484E+02  0.47000000000E+01 0.  1.
         13    1    6    6    0    0 -0.70724735741E+01 -0.10536022316E+03 -0.44296781744E+02  0.11451201412E+03  0.00000000000E+00 0. -1.
        -14    1    6    6    0    0 -0.17955869125E+02  0.51806548908E+00 -0.40961529956E+02  0.44727268687E+02  0.00000000000E+00 0.  1.
</event>
<event>
12    1  0.8633375E-002  0.2378435E+03  0.7818608E-02  0.1121283E+00
         21   -1    0    0  501  502  0.00000000000E+00  0.00000000000E+00  0.22335195886E+03  0.22335195886E+03  0.00000000000E+00 0.  1.
         21   -1    0    0  502  503 -0.00000000000E+00 -0.00000000000E+00 -0.25301668993E+03  0.25301668993E+03  0.00000000000E+00 0. -1.
         -6    2    1    2    0  503 -0.15719032650E+03  0.43978565694E+02 -0.17237752076E+02  0.23846732218E+03  0.17299309426E+03 0.  0.
        -24    2    3    3    0    0 -0.12406497814E+03  0.57680803043E+02 -0.72275832183E+02  0.17261657978E+03  0.76508129347E+02 0.  0.
          6    2    1    2  501    0  0.15719032650E+03 -0.43978565694E+02 -0.12426978998E+02  0.23790132661E+03  0.17262589148E+03 0.  0.
         24    2    5    5    0    0  0.12887160457E+03 -0.94973238723E+02 -0.16719595226E+01  0.17840202298E+03  0.78718992725E+02 0.  0.
          5    1    5    5  501    0  0.28318721934E+02  0.50994673028E+02 -0.10755019476E+02  0.59499303636E+02  0.47000000000E+01 0. -1.
        -11    1    6    6    0    0 -0.49716685417E+01 -0.13901328666E+02  0.14984706372E+02  0.21035823060E+02  0.00000000000E+00 0.  1.
         12    1    6    6    0    0  0.13384327311E+03 -0.81071910056E+02 -0.16656665894E+02  0.15736619992E+03  0.00000000000E+00 0. -1.
         -5    1    3    3    0  503 -0.33125348363E+02 -0.13702237348E+02  0.55038080107E+02  0.65850742398E+02  0.47000000000E+01 0.  1.
         11    1    4    4    0    0 -0.13279053023E+03  0.46954433802E+02 -0.56815693592E+02  0.15187516851E+03  0.00000000000E+00 0. -1.
        -12    1    4    4    0    0  0.87255520839E+01  0.10726369241E+02 -0.15460138591E+02  0.20741411271E+02  0.00000000000E+00 0.  1.
</event>
<event>
12    1  0.8633375E-002  0.1969115E+03  0.7818608E-02  0.1152899E+00
         21   -1    0    0  501  502  0.00000000000E+00  0.00000000000E+00  0.21069852444E+03  0.21069852444E+03  0.00000000000E+00 0. -1.
         21   -1    0    0  502  503 -0.00000000000E+00 -0.00000000000E+00 -0.26911352683E+03  0.26911352683E+03  0.00000000000E+00 0.  1.
         -6    2    1    2    0  503 -0.83362581483E+02 -0.39794449035E+02 -0.16601241338E+03  0.25755435662E+03  0.17389999153E+03 0.  0.
        -24    2    3    3    0    0 -0.43546500519E+02  0.25533249544E+02 -0.27671002948E+02  0.99397901345E+02  0.81030943768E+02 0.  0.
          6    2    1    2  501    0  0.83362581483E+02  0.39794449035E+02  0.10759741099E+03  0.22225769464E+03  0.17113842879E+03 0.  0.
         24    2    5    5    0    0  0.58569597942E+02  0.91274111838E+02  0.85527626915E+02  0.16082469793E+03  0.82390819907E+02 0.  0.
          5    1    5    5  501    0  0.24792983541E+02 -0.51479662803E+02  0.22069784078E+02  0.61432996707E+02  0.47000000000E+01 0. -1.
        -11    1    6    6    0    0 -0.41947208185E+01 -0.83079563375E+01 -0.65479539233E+01  0.11379522039E+02  0.00000000000E+00 0.  1.
         12    1    6    6    0    0  0.62764318761E+02  0.99582068176E+02  0.92075580838E+02  0.14944517590E+03  0.00000000000E+00 0. -1.
         -5    1    3    3    0  503 -0.39816080964E+02 -0.65327698579E+02 -0.13834141043E+03  0.15815645528E+03  0.47000000000E+01 0.  1.
         13    1    4    4    0    0  0.24010855687E+02  0.10763645583E+02 -0.73018730500E+01  0.27307409381E+02  0.00000000000E+00 0. -1.
        -14    1    4    4    0    0 -0.67557356206E+02  0.14769603961E+02 -0.20369129898E+02  0.72090491964E+02  0.00000000000E+00 0.  1.
</event>
<event>
12    1  0.8633375E-002  0.2036842E+03  0.7818608E-02  0.1149114E+00
         21   -1    0    0  501  502  0.00000000000E+00  0.00000000000E+00  0.64748709473E+02  0.64748709473E+02  0.00000000000E+00 0. -1.
         21   -1    0    0  502  503 -0.00000000000E+00 -0.00000000000E+00 -0.64612514194E+03  0.64612514194E+03  0.00000000000E+00 0.  1.
         -6    2    1    2    0  503  0.58905855204E+02 -0.92237147002E+02 -0.37236835228E+03  0.41903205841E+03  0.15796229023E+03 0.  0.
        -24    2    3    3    0    0 -0.18725036326E+02 -0.41757707080E+02 -0.24297043997E+03  0.25984462523E+03  0.79939111045E+02 0.  0.
          6    2    1    2  501    0 -0.58905855204E+02  0.92237147002E+02 -0.20900808019E+03  0.29184179300E+03  0.17178376959E+03 0.  0.
         24    2    5    5    0    0 -0.89364418083E+02  0.13343253981E+02 -0.12413142413E+03  0.17193304790E+03  0.77384241654E+02 0.  0.
          5    1    5    5  501    0  0.30458562879E+02  0.78893893022E+02 -0.84876656057E+02  0.11990874510E+03  0.47000000000E+01 0. -1.
        -13    1    6    6    0    0 -0.59416256120E+02  0.40868350948E+02 -0.51255555319E+02  0.88473982342E+02  0.00000000000E+00 0.  1.
         14    1    6    6    0    0 -0.29948161962E+02 -0.27525096967E+02 -0.72875868816E+02  0.83459065557E+02  0.00000000000E+00 0. -1.
         -5    1    3    3    0  503  0.77630891530E+02 -0.50479439923E+02 -0.12939791231E+03  0.15918743319E+03  0.47000000000E+01 0.  1.
         11    1    4    4    0    0  0.15000860660E+02  0.68283119563E+01 -0.95521148894E+01  0.19049791694E+02  0.00000000000E+00 0. -1.
        -12    1    4    4    0    0 -0.33725896986E+02 -0.48586019036E+02 -0.23341832508E+03  0.24079483353E+03  0.00000000000E+00 0.  1.
</event>
<event>
12    1  0.8633375E-002  0.1854187E+03  0.7818608E-02  0.1162875E+00
         21   -1    0    0  501  502  0.00000000000E+00  0.00000000000E+00  0.23292532235E+03  0.23292532235E+03  0.00000000000E+00 0.  1.
         21   -1    0    0  502  503 -0.00000000000E+00 -0.00000000000E+00 -0.18144351454E+03  0.18144351454E+03  0.00000000000E+00 0.  1.
         -6    2    1    2    0  503  0.10177038722E+02  0.68220564556E+02 -0.64651630210E+02  0.19636680934E+03  0.17211180371E+03 0.  0.
        -24    2    3    3    0    0  0.42795717554E+02  0.52437740148E+02  0.17079337175E+02  0.10683962472E+03  0.80881466479E+02 0.  0.
          6    2    1    2  501    0 -0.10177038722E+02 -0.68220564556E+02  0.11613343802E+03  0.21800202756E+03  0.17111484754E+03 0.  0.
         24    2    5    5    0    0 -0.16686443611E+02 -0.42807337345E+02 -0.66206776500E+01  0.92388065821E+02  0.79880008780E+02 0.  0.
          5    1    5    5  501    0  0.65094048888E+01 -0.25413227211E+02  0.12275411567E+03  0.12561396174E+03  0.47000000000E+01 0. -1.
        -11    1    6    6    0    0 -0.89570448660E+01 -0.67636145804E+01  0.35020060475E+02  0.36774716459E+02  0.00000000000E+00 0.  1.
         12    1    6    6    0    0 -0.77293987447E+01 -0.36043722764E+02 -0.41640738125E+02  0.55613349362E+02  0.00000000000E+00 0. -1.
         -5    1    3    3    0  503 -0.32618678832E+02  0.15782824408E+02 -0.81730967385E+02  0.89527184613E+02  0.47000000000E+01 0.  1.
         11    1    4    4    0    0  0.21250711137E+02  0.71998000024E+02  0.19733836160E+02  0.77619127932E+02  0.00000000000E+00 0. -1.
        -12    1    4    4    0    0  0.21545006417E+02 -0.19560259876E+02 -0.26544989850E+01  0.29220496792E+02  0.00000000000E+00 0.  1.
</event>
<event>
12    1  0.8633375E-002  0.3156801E+03  0.7818608E-02  0.1077746E+00
         21   -1    0    0  503  502  0.00000000000E+00  0.00000000000E+00  0.11214028215E+04  0.11214028215E+04  0.00000000000E+00 0.  1.
         21   -1    0    0  501  503 -0.00000000000E+00 -0.00000000000E+00 -0.10117484899E+03  0.10117484899E+03  0.00000000000E+00 0. -1.
          6    2    1    2  501    0 -0.26408697171E+03  0.16890687355E+02  0.29445004924E+03  0.43111857234E+03  0.17069026911E+03 0.  0.
         24    2    3    3    0    0 -0.46585607747E+02  0.16336403159E+02  0.11311411670E+03  0.14790141009E+03  0.81504152005E+02 0.  0.
         -6    2    1    2    0  502  0.26408697171E+03 -0.16890687355E+02  0.72577792325E+03  0.79145909812E+03  0.17212404301E+03 0.  0.
        -24    2    5    5    0    0  0.22455445976E+03 -0.63825203506E+02  0.50430689950E+03  0.56159571986E+03  0.81030498447E+02 0.  0.
          5    1    3    3  501    0 -0.21750136396E+03  0.55428419621E+00  0.18133593254E+03  0.28321716224E+03  0.47000000000E+01 0. -1.
        -13    1    4    4    0    0 -0.99653462282E+01 -0.26798928686E+02  0.73398864978E+02  0.78771086601E+02  0.00000000000E+00 0.  1.
         14    1    4    4    0    0 -0.36620261519E+02  0.43135331845E+02  0.39715251720E+02  0.69130323493E+02  0.00000000000E+00 0. -1.
         -5    1    5    5    0  502  0.39532511949E+02  0.46934516151E+02  0.22147102374E+03  0.22986337826E+03  0.47000000000E+01 0.  1.
         11    1    6    6    0    0  0.19333180289E+03 -0.40141695153E+02  0.34470660393E+03  0.39725455880E+03  0.00000000000E+00 0. -1.
        -12    1    6    6    0    0  0.31222656871E+02 -0.23683508353E+02  0.15960029558E+03  0.16434116106E+03  0.00000000000E+00 0.  1.
</event>
<event>
12    1  0.8633375E-002  0.2222030E+03  0.7818608E-02  0.1132372E+00
         21   -1    0    0  501  502  0.00000000000E+00  0.00000000000E+00  0.20425558032E+03  0.20425558032E+03  0.00000000000E+00 0. -1.
         21   -1    0    0  502  503 -0.00000000000E+00 -0.00000000000E+00 -0.24135369844E+03  0.24135369844E+03  0.00000000000E+00 0.  1.
         -6    2    1    2    0  503 -0.13418921588E+03 -0.48044412244E+02 -0.26895801797E+02  0.22382483469E+03  0.17046747861E+03 0.  0.
        -24    2    3    3    0    0 -0.19397860234E+02 -0.62241889848E+02 -0.27768097980E+02  0.10806009653E+03  0.81581783279E+02 0.  0.
          6    2    1    2  501    0  0.13418921588E+03  0.48044412244E+02 -0.10202316327E+02  0.22178444407E+03  0.16961497919E+03 0.  0.
         24    2    5    5    0    0  0.30691150064E+02  0.75318314024E+02 -0.14530617869E+02  0.11456252681E+03  0.79363962691E+02 0.  0.
          5    1    5    5  501    0  0.10349806582E+03 -0.27273901779E+02  0.43283015420E+01  0.10722191726E+03  0.47000000000E+01 0. -1.
        -13    1    6    6    0    0  0.16797246306E+02 -0.13055463679E+02 -0.13310216887E+02  0.25094909622E+02  0.00000000000E+00 0.  1.
         14    1    6    6    0    0  0.13893903757E+02  0.88373777702E+02 -0.12204009825E+01  0.89467617189E+02  0.00000000000E+00 0. -1.
         -5    1    3    3    0  503 -0.11479135565E+03  0.14197477604E+02  0.87229618223E+00  0.11576473816E+03  0.47000000000E+01 0.  1.
         13    1    4    4    0    0 -0.40630696523E+00  0.13204023688E+01  0.23921275450E+02  0.23961134508E+02  0.00000000000E+00 0. -1.
        -14    1    4    4    0    0 -0.18991553269E+02 -0.63562292217E+02 -0.51689373430E+02  0.84098962021E+02  0.00000000000E+00 0.  1.
</event>
<event>
12    1  0.8633375E-002  0.1740076E+03  0.7818608E-02  0.1173854E+00
         21   -1    0    0  503  502  0.00000000000E+00  0.00000000000E+00  0.15484842018E+03  0.15484842018E+03  0.00000000000E+00 0. -1.
         21   -1    0    0  501  503 -0.00000000000E+00 -0.00000000000E+00 -0.23398085636E+03  0.23398085636E+03  0.00000000000E+00 0. -1.
          6    2    1    2  501    0 -0.18758147632E+02 -0.72388444394E+01 -0.11887738597E+03  0.21034029157E+03  0.17235700274E+03 0.  0.
         24    2    3    3    0    0 -0.18117553866E+01 -0.59209646355E+02 -0.11890667058E+03  0.15547468013E+03  0.80774471045E+02 0.  0.
         -6    2    1    2    0  502  0.18758147632E+02  0.72388444394E+01  0.39744949787E+02  0.17848898496E+03  0.17284208905E+03 0.  0.
        -24    2    5    5    0    0 -0.63467917807E+01  0.20410058175E+02  0.89389738921E+02  0.12112668077E+03  0.78894202126E+02 0.  0.
          5    1    3    3  501    0 -0.16946392245E+02  0.51970801915E+02  0.29284610587E-01  0.54865611447E+02  0.47000000000E+01 0. -1.
        -13    1    4    4    0    0  0.26793178921E+01 -0.32169384695E+01 -0.93890050724E+02  0.93983344601E+02  0.00000000000E+00 0.  1.
         14    1    4    4    0    0 -0.44910732787E+01 -0.55992707885E+02 -0.25016619856E+02  0.61491335524E+02  0.00000000000E+00 0. -1.
         -5    1    5    5    0  502  0.25104939413E+02 -0.13171213735E+02 -0.49644789134E+02  0.57362304193E+02  0.47000000000E+01 0.  1.
         13    1    6    6    0    0  0.24894665480E+02 -0.17258892941E+02  0.20317955906E+02  0.36475102291E+02  0.00000000000E+00 0. -1.
        -14    1    6    6    0    0 -0.31241457261E+02  0.37668951116E+02  0.69071783014E+02  0.84651578477E+02  0.00000000000E+00 0.  1.
</event>
<event>
12    1  0.8633375E-002  0.2274396E+03  0.7818608E-02  0.1128613E+00
         21   -1    0    0  501  502  0.00000000000E+00  0.00000000000E+00  0.41536868090E+03  0.41536868090E+03  0.00000000000E+00 0. -1.
         21   -1    0    0  502  503 -0.00000000000E+00 -0.00000000000E+00 -0.19535949368E+03  0.19535949368E+03  0.00000000000E+00 0.  1.
         -6    2    1    2    0  503  0.12509936520E+03 -0.80128642088E+02 -0.74618534352E+02  0.23852627019E+03  0.17104503923E+03 0.  0.
        -24    2    3    3    0    0  0.68524910033E+02 -0.30783059492E+02  0.26414408435E+02  0.11256833663E+03  0.79565378096E+02 0.  0.
          6    2    1    2  501    0 -0.12509936520E+03  0.80128642088E+02  0.29462772158E+03  0.37220190439E+03  0.17221589024E+03 0.  0.
         24    2    5    5    0    0 -0.69934955605E+02  0.24750662065E+02  0.62447720000E+02  0.12717236354E+03  0.82277573044E+02 0.  0.
          5    1    5    5  501    0 -0.55164409593E+02  0.55377980023E+02  0.23218000158E+03  0.24502954085E+03  0.47000000000E+01 0. -1.
        -13    1    6    6    0    0 -0.64992103539E+02 -0.18230926629E+02  0.39185888629E+02  0.78050458524E+02  0.00000000000E+00 0.  1.
         14    1    6    6    0    0 -0.49428520657E+01  0.42981588695E+02  0.23261831371E+02  0.49121905012E+02  0.00000000000E+00 0. -1.
         -5    1    3    3    0  503  0.56574455166E+02 -0.49345582596E+02 -0.10103294279E+03  0.12595793356E+03  0.47000000000E+01 0.  1.
         11    1    4    4    0    0  0.39527584195E+01 -0.43065897477E+02  0.15486572681E+02  0.45936148707E+02  0.00000000000E+00 0. -1.
        -12    1    4    4    0    0  0.64572151613E+02  0.12282837985E+02  0.10927835753E+02  0.66632187921E+02  0.00000000000E+00 0.  1.
</event>
<event>
12    1  0.8633375E-002  0.1746743E+03  0.7818608E-02  0.1173486E+00
         21   -1    0    0  501  502  0.00000000000E+00  0.00000000000E+00  0.85741800222E+03  0.85741800222E+03  0.00000000000E+00 0. -1.
         21   -1    0    0  502  503 -0.00000000000E+00 -0.00000000000E+00 -0.67618833282E+02  0.67618833282E+02  0.00000000000E+00 0. -1.
         -6    2    1    2    0  503  0.10656713000E+01 -0.29929325181E+02  0.71394510159E+03  0.73460329245E+03  0.17037455512E+03 0.  0.
        -24    2    3    3    0    0  0.12464850389E+02  0.43273479975E+02  0.28591931926E+03  0.30018787801E+03  0.79592326339E+02 0.  0.
          6    2    1    2  501    0 -0.10656713000E+01  0.29929325181E+02  0.75854067344E+02  0.19043354305E+03  0.17208775268E+03 0.  0.
         24    2    5    5    0    0  0.30641388832E+02 -0.21599197409E+02  0.89097455292E+02  0.12832071324E+03  0.84394483637E+02 0.  0.
          5    1    5    5  501    0 -0.31707060132E+02  0.51528522590E+02 -0.13243387948E+02  0.62112829809E+02  0.47000000000E+01 0. -1.
        -13    1    6    6    0    0 -0.91788372284E+01  0.48780733590E+01  0.78700650608E+02  0.79384123467E+02  0.00000000000E+00 0.  1.
         14    1    6    6    0    0  0.39820226061E+02 -0.26477270768E+02  0.10396804684E+02  0.48936589772E+02  0.00000000000E+00 0. -1.
         -5    1    3    3    0  503 -0.11399179089E+02 -0.73202805156E+02  0.42802578233E+03  0.43441541445E+03  0.47000000000E+01 0.  1.
         13    1    4    4    0    0 -0.18128771453E+01  0.13767889109E+02  0.25418620367E+03  0.25456525181E+03  0.00000000000E+00 0. -1.
        -14    1    4    4    0    0  0.14277727534E+02  0.29505590866E+02  0.31733115590E+02  0.45622626195E+02  0.00000000000E+00 0.  1.
</event>
<event>
12    1  0.8633375E-002  0.1814783E+03  0.7818608E-02  0.1166693E+00
         21   -1    0    0  503  502  0.00000000000E+00  0.00000000000E+00  0.16263266363E+02  0.16263266363E+02  0.00000000000E+00 0. -1.
         21   -1    0    0  501  503 -0.00000000000E+00 -0.00000000000E+00 -0.22728617291E+04  0.22728617291E+04  0.00000000000E+00 0. -1.
          6    2    1    2  501    0 -0.21218302790E+02 -0.47235671550E+02 -0.15135214592E+04  0.15242081447E+04  0.17257414638E+03 0.  0.
         24    2    3    3    0    0 -0.42753533834E+01 -0.66278839792E+02 -0.53036950512E+03  0.54071459590E+03  0.81665776269E+02 0.  0.
         -6    2    1    2    0  502  0.21218302790E+02  0.47235671550E+02 -0.74307700354E+03  0.76491685072E+03  0.17393369510E+03 0.  0.
        -24    2    5    5    0    0  0.56156849739E+02  0.76510866273E+02 -0.42125081367E+03  0.43984466555E+03  0.83687378760E+02 0.  0.
          5    1    3    3  501    0 -0.16942949407E+02  0.19043168242E+02 -0.98315195406E+03  0.98349354882E+03  0.47000000000E+01 0. -1.
        -13    1    4    4    0    0  0.35089951915E+02 -0.19967228343E+02 -0.28915953357E+03  0.29196443411E+03  0.00000000000E+00 0.  1.
         14    1    4    4    0    0 -0.39365305298E+02 -0.46311611450E+02 -0.24120997155E+03  0.24875016179E+03  0.00000000000E+00 0. -1.
         -5    1    5    5    0  502 -0.34938546949E+02 -0.29275194722E+02 -0.32182618986E+03  0.32507218517E+03  0.47000000000E+01 0.  1.
         11    1    6    6    0    0  0.24819356037E+02  0.88570789932E+02 -0.33125979826E+03  0.34379330884E+03  0.00000000000E+00 0. -1.
        -12    1    6    6    0    0  0.31337493702E+02 -0.12059923659E+02 -0.89991015417E+02  0.96051356711E+02  0.00000000000E+00 0.  1.
</event>
<event>
12    1  0.8633375E-002  0.1793563E+03  0.7818608E-02  0.1168923E+00
         21   -1    0    0  501  502  0.00000000000E+00  0.00000000000E+00  0.33843923120E+03  0.33843923120E+03  0.00000000000E+00 0.  1.
         21   -1    0    0  502  503 -0.00000000000E+00 -0.00000000000E+00 -0.11291491835E+03  0.11291491835E+03  0.00000000000E+00 0. -1.
         -6    2    1    2    0  503  0.38155734189E+02  0.32765586358E+02  0.19812032062E+02  0.17843247267E+03  0.17004760212E+03 0.  0.
        -24    2    3    3    0    0  0.44407092142E+02  0.28299811217E+02 -0.49888020164E+02  0.10815295998E+03  0.80220814307E+02 0.  0.
          6    2    1    2  501    0 -0.38155734189E+02 -0.32765586358E+02  0.20571228080E+03  0.27292167688E+03  0.17216055164E+03 0.  0.
         24    2    5    5    0    0 -0.56698523021E+02 -0.30300524683E+02  0.22446730780E+03  0.24601902675E+03  0.77504483374E+02 0.  0.
          5    1    5    5  501    0  0.18542788832E+02 -0.24650616746E+01 -0.18755026999E+02  0.26902650138E+02  0.47000000000E+01 0. -1.
        -11    1    6    6    0    0 -0.11711724160E+02  0.55156028000E+01  0.15630888580E+03  0.15684404399E+03  0.00000000000E+00 0.  1.
         12    1    6    6    0    0 -0.44986798861E+02 -0.35816127483E+02  0.68158422001E+02  0.89174982755E+02  0.00000000000E+00 0. -1.
         -5    1    3    3    0  503 -0.62513579524E+01  0.44657751408E+01  0.69700052225E+02  0.70279512691E+02  0.47000000000E+01 0.  1.
         11    1    4    4    0    0 -0.13277632860E+02  0.26701148423E+02 -0.39542090660E+02  0.49525991108E+02  0.00000000000E+00 0. -1.
        -12    1    4    4    0    0  0.57684725002E+02  0.15986627948E+01 -0.10345929504E+02  0.58626968867E+02  0.00000000000E+00 0.  1.
</event>
<event>
12    1  0.8633375E-002  0.2604369E+03  0.7818608E-02  0.1106890E+00
         21   -1    0    0  503  502  0.00000000000E+00  0.00000000000E+00  0.15647831693E+03  0.15647831693E+03  0.00000000000E+00 0.  1.
         21   -1    0    0  501  503 -0.00000000000E+00 -0.00000000000E+00 -0.43335999128E+03  0.43335999128E+03  0.00000000000E+00 0.  1.
          6    2    1    2  501    0 -0.53087191732E+02  0.18771660985E+03 -0.13896168861E+03  0.29513629134E+03  0.17245087424E+03 0.  0.
         24    2    3    3    0    0  0.23122559145E+02  0.15415275602E+03 -0.11476234077E+03  0.20829069935E+03  0.76921360136E+02 0.  0.
         -6    2    1    2    0  502  0.53087191732E+02 -0.18771660985E+03 -0.13791998574E+03  0.29470201687E+03  0.17254443121E+03 0.  0.
        -24    2    5    5    0    0  0.71234091362E+02 -0.48976990065E+02 -0.36856551520E+02  0.12203499686E+03  0.77853026534E+02 0.  0.
          5    1    3    3  501    0 -0.76209750877E+02  0.33563853829E+02 -0.24199347838E+02  0.86845591991E+02  0.47000000000E+01 0. -1.
        -13    1    4    4    0    0  0.26649357402E+01  0.15029831851E+03 -0.87311374223E+02  0.17383889811E+03  0.00000000000E+00 0.  1.
         14    1    4    4    0    0  0.20457623405E+02  0.38544375150E+01 -0.27450966548E+02  0.34451801236E+02  0.00000000000E+00 0. -1.
         -5    1    5    5    0  502 -0.18146899630E+02 -0.13873961978E+03 -0.10106343422E+03  0.17266702001E+03  0.47000000000E+01 0.  1.
         13    1    6    6    0    0  0.59938349734E+02 -0.27214528257E+02 -0.59445731571E+02  0.88696286953E+02  0.00000000000E+00 0. -1.
        -14    1    6    6    0    0  0.11295741628E+02 -0.21762461808E+02  0.22589180051E+02  0.33338709907E+02  0.00000000000E+00 0.  1.
</event>
<event>
12    1  0.8633375E-002  0.1894482E+03  0.7818608E-02  0.1160375E+00
         21   -1    0    0  503  502  0.00000000000E+00  0.00000000000E+00  0.98870539497E+03  0.98870539497E+03  0.00000000000E+00 0. -1.
         21   -1    0    0  501  503 -0.00000000000E+00 -0.00000000000E+00 -0.80805533900E+02  0.80805533900E+02  0.00000000000E+00 0. -1.
          6    2    1    2  501    0  0.50905835996E+02  0.56448788079E+02  0.55193272907E+02  0.19732435082E+03  0.17353020555E+03 0.  0.
         24    2    3    3    0    0  0.10105416736E+03  0.31201409382E+02  0.39417909471E+02  0.13881591245E+03  0.80812209924E+02 0.  0.
         -6    2    1    2    0  502 -0.50905835996E+02 -0.56448788079E+02  0.85270658817E+03  0.87218657805E+03  0.16680237293E+03 0.  0.
        -24    2    5    5    0    0 -0.35678903557E+02 -0.73579286703E+02  0.83340084514E+03  0.84185317784E+03  0.86445987555E+02 0.  0.
          5    1    3    3  501    0 -0.50148331364E+02  0.25247378697E+02  0.15775363436E+02  0.58508438376E+02  0.47000000000E+01 0. -1.
        -13    1    4    4    0    0 -0.67706401476E+01 -0.99490583518E+01  0.17663011702E+02  0.21373051080E+02  0.00000000000E+00 0.  1.
         14    1    4    4    0    0  0.10782480751E+03  0.41150467733E+02  0.21754897769E+02  0.11744286137E+03  0.00000000000E+00 0. -1.
         -5    1    5    5    0  502 -0.15226932439E+02  0.17130498625E+02  0.19305743022E+02  0.30333400209E+02  0.47000000000E+01 0.  1.
         11    1    6    6    0    0  0.13800651888E+02 -0.15437674180E+01  0.37139678771E+03  0.37165631318E+03  0.00000000000E+00 0. -1.
        -12    1    6    6    0    0 -0.49479555445E+02 -0.72035519285E+02  0.46200405744E+03  0.47019686466E+03  0.00000000000E+00 0.  1.
</event>
<event>
12    1  0.8633375E-002  0.2471619E+03  0.7818608E-02  0.1117954E+00
         21   -1    0    0  501  502  0.00000000000E+00  0.00000000000E+00  0.20793371121E+03  0.20793371121E+03  0.00000000000E+00 0. -1.
         21   -1    0    0  502  503 -0.00000000000E+00 -0.00000000000E+00 -0.29986411802E+03  0.29986411802E+03  0.00000000000E+00 0.  1.
         -6    2    1    2    0  503  0.21337734618E+02  0.15163423467E+03 -0.11918846620E+03  0.25913735933E+03  0.17174993591E+03 0.  0.
        -24    2    3    3    0    0  0.16831200830E+02  0.11685254529E+03 -0.15372623161E+03  0.20969019558E+03  0.80002607303E+02 0.  0.
          6    2    1    2  501    0 -0.21337734618E+02 -0.15163423467E+03  0.27258059385E+02  0.24866046989E+03  0.19401233837E+03 0.  0.
         24    2    5    5    0    0 -0.63117039866E+02 -0.11128465461E+03 -0.43648337617E+02  0.15688135411E+03  0.79614991156E+02 0.  0.
          5    1    5    5  501    0  0.41779305248E+02 -0.40349580061E+02  0.70906397001E+02  0.91779115782E+02  0.47000000000E+01 0. -1.
        -11    1    6    6    0    0 -0.66092990959E+01  0.94713006741E+01  0.78423598898E+01  0.13960335943E+02  0.00000000000E+00 0.  1.
         12    1    6    6    0    0 -0.56507740770E+02 -0.12075595528E+03 -0.51490697507E+02  0.14292101816E+03  0.00000000000E+00 0. -1.
         -5    1    3    3    0  503  0.45065337880E+01  0.34781689380E+02  0.34537765417E+02  0.49447163751E+02  0.47000000000E+01 0.  1.
         13    1    4    4    0    0  0.10349217863E+02 -0.94579495381E+01 -0.60874176456E+01  0.15284494543E+02  0.00000000000E+00 0. -1.
        -14    1    4    4    0    0  0.64819829670E+01  0.12631049483E+03 -0.14763881397E+03  0.19440570104E+03  0.00000000000E+00 0.  1.
</event>
<event>
12    1  0.8633375E-002  0.1760453E+03  0.7818608E-02  0.1172032E+00
         21   -1    0    0  503  502  0.00000000000E+00  0.00000000000E+00  0.26080100465E+03  0.26080100465E+03  0.00000000000E+00 0. -1.
         21   -1    0    0  501  503 -0.00000000000E+00 -0.00000000000E+00 -0.32694207470E+03  0.32694207470E+03  0.00000000000E+00 0. -1.
          6    2    1    2  501    0 -0.31043153355E+02  0.11896228978E+02 -0.26809940352E+03  0.32073235522E+03  0.17287786407E+03 0.  0.
         24    2    3    3    0    0 -0.46642742805E+02 -0.33577397534E+01 -0.27978020868E+03  0.29554184188E+03  0.82952970193E+02 0.  0.
         -6    2    1    2    0  502  0.31043153355E+02 -0.11896228978E+02  0.20195833347E+03  0.26701072414E+03  0.17147116584E+03 0.  0.
        -24    2    5    5    0    0 -0.22812456301E+02  0.69308101483E+01  0.19105082570E+03  0.20873596271E+03  0.80633986860E+02 0.  0.
          5    1    3    3  501    0  0.15599589450E+02  0.15253968731E+02  0.11680805158E+02  0.25190513337E+02  0.47000000000E+01 0. -1.
        -11    1    4    4    0    0 -0.94545102246E+01 -0.49599216736E+00  0.32915756945E+01  0.10023384776E+02  0.00000000000E+00 0.  1.
         12    1    4    4    0    0 -0.37188232580E+02 -0.28617475861E+01 -0.28307178437E+03  0.28551845711E+03  0.00000000000E+00 0. -1.
         -5    1    5    5    0  502  0.53855609655E+02 -0.18827039126E+02  0.10907507769E+02  0.58274761427E+02  0.47000000000E+01 0.  1.
         11    1    6    6    0    0 -0.58094331089E+01 -0.30593157677E+02  0.13852454394E+03  0.14198147796E+03  0.00000000000E+00 0. -1.
        -12    1    6    6    0    0 -0.17003023192E+02  0.37523967826E+02  0.52526281758E+02  0.66754484751E+02  0.00000000000E+00 0.  1.
</event>
<event>
12    1  0.8633375E-002  0.1849075E+03  0.7818608E-02  0.1163396E+00
         21   -1    0    0  503  502  0.00000000000E+00  0.00000000000E+00  0.72546257634E+02  0.72546257634E+02  0.00000000000E+00 0.  1.
         21   -1    0    0  501  503 -0.00000000000E+00 -0.00000000000E+00 -0.51560275788E+03  0.51560275788E+03  0.00000000000E+00 0.  1.
          6    2    1    2  501    0 -0.10774454080E+01 -0.66988488687E+02 -0.30982574672E+03  0.36024285333E+03  0.17115578150E+03 0.  0.
         24    2    3    3    0    0 -0.51881039189E+01 -0.17624361647E+02 -0.29827709961E+03  0.30916276130E+03  0.79213952536E+02 0.  0.
         -6    2    1    2    0  502  0.10774454080E+01  0.66988488687E+02 -0.13323075352E+03  0.22790616218E+03  0.17234316514E+03 0.  0.
        -24    2    5    5    0    0  0.48070884054E+02  0.81677073434E+01 -0.27349313464E+02  0.97901404794E+02  0.80369016273E+02 0.  0.
          5    1    3    3  501    0  0.41106585109E+01 -0.49364127040E+02 -0.11548647107E+02  0.51080092030E+02  0.47000000000E+01 0. -1.
        -13    1    4    4    0    0  0.13625628731E+02 -0.40299069586E+02 -0.99478057675E+02  0.10819222119E+03  0.00000000000E+00 0.  1.
         14    1    4    4    0    0 -0.18813732650E+02  0.22674707939E+02 -0.19879904194E+03  0.20097054011E+03  0.00000000000E+00 0. -1.
         -5    1    5    5    0  502 -0.46993438646E+02  0.58820781344E+02 -0.10588144006E+03  0.13000475739E+03  0.47000000000E+01 0.  1.
         13    1    6    6    0    0 -0.66613224665E+01 -0.19189946819E+02 -0.30484565367E+02  0.36632444656E+02  0.00000000000E+00 0. -1.
        -14    1    6    6    0    0  0.54732206520E+02  0.27357654162E+02  0.31352519024E+01  0.61268960137E+02  0.00000000000E+00 0.  1.
</event>
<event>
12    1  0.8633375E-002  0.1896268E+03  0.7818608E-02  0.1159215E+00
         21   -1    0    0  503  502  0.00000000000E+00  0.00000000000E+00  0.10413395751E+03  0.10413395751E+03  0.00000000000E+00 0.  1.
         21   -1    0    0  501  503 -0.00000000000E+00 -0.00000000000E+00 -0.10479667355E+04  0.10479667355E+04  0.00000000000E+00 0. -1.
          6    2    1    2  501    0 -0.75161357746E+02 -0.26831514170E+02 -0.94547146917E+03  0.96430005896E+03  0.17201495529E+03 0.  0.
         24    2    3    3    0    0  0.80561737961E+01 -0.38831769221E+02 -0.30117002340E+03  0.31451885986E+03  0.81522524357E+02 0.  0.
         -6    2    1    2    0  502  0.75161357746E+02  0.26831514170E+02  0.16386912292E+01  0.18780063400E+03  0.16999186148E+03 0.  0.
        -24    2    5    5    0    0  0.77711815916E+01 -0.43772865913E+02 -0.10502863986E+01  0.90047194519E+02  0.78300313445E+02 0.  0.
          5    1    3    3  501    0 -0.83217531542E+02  0.12000255051E+02 -0.64430144577E+03  0.64978119910E+03  0.47000000000E+01 0. -1.
        -13    1    4    4    0    0  0.11181737539E+02  0.13207432217E+02 -0.12929794138E+02  0.21602016031E+02  0.00000000000E+00 0.  1.
         14    1    4    4    0    0 -0.31255637432E+01 -0.52039201438E+02 -0.28824022926E+03  0.29291684383E+03  0.00000000000E+00 0. -1.
         -5    1    5    5    0  502  0.67390176154E+02  0.70604380083E+02  0.26889776278E+01  0.97753439478E+02  0.47000000000E+01 0.  1.
         13    1    6    6    0    0 -0.15739208496E+02 -0.10607030880E+02  0.32300515362E+02  0.37464050512E+02  0.00000000000E+00 0. -1.
        -14    1    6    6    0    0  0.23510390087E+02 -0.33165835034E+02 -0.33350801760E+02  0.52583144006E+02  0.00000000000E+00 0.  1.
</event>
<event>
12    1  0.8633375E-002  0.1927059E+03  0.7818608E-02  0.1157439E+00
         21   -1    0    0  503  502  0.00000000000E+00  0.00000000000E+00  0.42625667851E+03  0.42625667851E+03  0.00000000000E+00 0.  1.
         21   -1    0    0  501  503 -0.00000000000E+00 -0.00000000000E+00 -0.13539021445E+03  0.13539021445E+03  0.00000000000E+00 0.  1.
          6    2    1    2  501    0 -0.69373943882E+02  0.20809091869E+02 -0.25509980812E+02  0.19438706015E+03  0.17857717558E+03 0.  0.
         24    2    3    3    0    0 -0.39333154730E+02  0.10482045004E+02  0.60231900181E+02  0.10282911639E+03  0.72725339805E+02 0.  0.
         -6    2    1    2    0  502  0.69373943882E+02 -0.20809091869E+02  0.31637644487E+03  0.36725983281E+03  0.17187195098E+03 0.  0.
        -24    2    5    5    0    0  0.55308717495E+00 -0.19509488270E+02  0.58253671612E+02  0.10007552309E+03  0.78998063439E+02 0.  0.
          5    1    3    3  501    0 -0.30040789152E+02  0.10327046865E+02 -0.85741880993E+02  0.91557943762E+02  0.47000000000E+01 0. -1.
        -11    1    4    4    0    0 -0.37265455328E+02 -0.15102321513E+02  0.32591098149E+01  0.40341245304E+02  0.00000000000E+00 0.  1.
         12    1    4    4    0    0 -0.20676994026E+01  0.25584366517E+02  0.56972790366E+02  0.62487871087E+02  0.00000000000E+00 0. -1.
         -5    1    5    5    0  502  0.68820856707E+02 -0.12996035987E+01  0.25812277325E+03  0.26718430972E+03  0.47000000000E+01 0.  1.
         11    1    6    6    0    0  0.11988730171E+02 -0.62605568589E+01 -0.17618369291E+02  0.22211059402E+02  0.00000000000E+00 0. -1.
        -12    1    6    6    0    0 -0.11435642996E+02 -0.13248931411E+02  0.75872040904E+02  0.77864463686E+02  0.00000000000E+00 0.  1.
</event>
<event>
12    1  0.8633375E-002  0.1754523E+03  0.7818608E-02  0.1172371E+00
         21   -1    0    0  503  502  0.00000000000E+00  0.00000000000E+00  0.63586495743E+02  0.63586495743E+02  0.00000000000E+00 0. -1.
         21   -1    0    0  501  503 -0.00000000000E+00 -0.00000000000E+00 -0.48433754977E+03  0.48433754977E+03  0.00000000000E+00 0. -1.
          6    2    1    2  501    0 -0.19787647917E+02  0.25639148698E+02 -0.19675791249E+03  0.26362317745E+03  0.17243719612E+03 0.  0.
         24    2    3    3    0    0  0.11331908474E+02  0.23987099020E+02 -0.21030099345E+03  0.22932068338E+03  0.87508141964E+02 0.  0.
         -6    2    1    2    0  502  0.19787647917E+02 -0.25639148698E+02 -0.22399314153E+03  0.28430086806E+03  0.17206144010E+03 0.  0.
        -24    2    5    5    0    0 -0.42158993876E+02  0.89955555897E+01 -0.17567479631E+03  0.19831423157E+03  0.81293293686E+02 0.  0.
          5    1    3    3  501    0 -0.31119556392E+02  0.16520496782E+01  0.13543080953E+02  0.34302494076E+02  0.47000000000E+01 0. -1.
        -11    1    4    4    0    0  0.21779663968E+02 -0.15957019375E+02 -0.17561393347E+02  0.32208426943E+02  0.00000000000E+00 0.  1.
         12    1    4    4    0    0 -0.10447755494E+02  0.39944118395E+02 -0.19273960010E+03  0.19711225643E+03  0.00000000000E+00 0. -1.
         -5    1    5    5    0  502  0.61946641793E+02 -0.34634704288E+02 -0.48318345221E+02  0.85986636493E+02  0.47000000000E+01 0.  1.
         13    1    6    6    0    0  0.99893998527E+01 -0.21600360730E+02 -0.19243340695E+02  0.30605062558E+02  0.00000000000E+00 0. -1.
        -14    1    6    6    0    0 -0.52148393728E+02  0.30595916319E+02 -0.15643145561E+03  0.16770916901E+03  0.00000000000E+00 0.  1.
</event>
<event>
12    1  0.8633375E-002  0.2174473E+03  0.7818608E-02  0.1136161E+00
         21   -1    0    0  503  502  0.00000000000E+00  0.00000000000E+00  0.32406497834E+03  0.32406497834E+03  0.00000000000E+00 0.  1.
         21   -1    0    0  501  503 -0.00000000000E+00 -0.00000000000E+00 -0.14466445890E+03  0.14466445890E+03  0.00000000000E+00 0.  1.
          6    2    1    2  501    0 -0.50659113877E+02  0.12029770726E+03  0.86113068904E+02  0.23211606621E+03  0.17153577867E+03 0.  0.
         24    2    3    3    0    0 -0.79608837426E+02  0.25807065934E+02  0.37877573063E+02  0.12204644800E+03  0.80355791830E+02 0.  0.
         -6    2    1    2    0  502  0.50659113877E+02 -0.12029770726E+03  0.93287450538E+02  0.23661337103E+03  0.17391220409E+03 0.  0.
        -24    2    5    5    0    0  0.27227389789E+02 -0.75114180083E+02  0.12973832351E+03  0.17383317541E+03  0.83680759313E+02 0.  0.
          5    1    3    3  501    0  0.28949723549E+02  0.94490641331E+02  0.48235495840E+02  0.11006961820E+03  0.47000000000E+01 0. -1.
        -11    1    4    4    0    0 -0.58825140915E+02  0.54504546775E+02  0.30847121074E+02  0.85922568056E+02  0.00000000000E+00 0.  1.
         12    1    4    4    0    0 -0.20783696512E+02 -0.28697480841E+02  0.70304519894E+01  0.36123879948E+02  0.00000000000E+00 0. -1.
         -5    1    5    5    0  502  0.23431724088E+02 -0.45183527182E+02 -0.36450872975E+02  0.62780195627E+02  0.47000000000E+01 0.  1.
         13    1    6    6    0    0 -0.10535474305E+02 -0.74044828589E+02  0.66037936730E+02  0.99772951982E+02  0.00000000000E+00 0. -1.
        -14    1    6    6    0    0  0.37762864094E+02 -0.10693514937E+01  0.63700386783E+02  0.74060223423E+02  0.00000000000E+00 0.  1.
</event>
<event>
12    1  0.8633375E-002  0.1861850E+03  0.7818608E-02  0.1162141E+00
         21   -1    0    0  503  502  0.00000000000E+00  0.00000000000E+00  0.21942242888E+03  0.21942242888E+03  0.00000000000E+00 0. -1.
         21   -1    0    0  501  503 -0.00000000000E+00 -0.00000000000E+00 -0.23261066126E+03  0.23261066126E+03  0.00000000000E+00 0. -1.
          6    2    1    2  501    0  0.19145361571E+02 -0.68010270502E+02 -0.13522720893E+03  0.23011140378E+03  0.17225828965E+03 0.  0.
         24    2    3    3    0    0  0.70532685860E+02 -0.77568119244E+02 -0.11069537453E+03  0.17218118309E+03  0.80007630703E+02 0.  0.
         -6    2    1    2    0  502 -0.19145361571E+02  0.68010270502E+02  0.12203897655E+03  0.22192168636E+03  0.17135863361E+03 0.  0.
        -24    2    5    5    0    0  0.18734870427E+02 -0.22441630966E+02  0.60811529164E+02  0.10621797523E+03  0.82034102737E+02 0.  0.
          5    1    3    3  501    0 -0.51387324289E+02  0.95578487418E+01 -0.24531834395E+02  0.57930220688E+02  0.47000000000E+01 0. -1.
        -13    1    4    4    0    0  0.78296548264E+02 -0.46199132288E+02 -0.50842753636E+02  0.10416186870E+03  0.00000000000E+00 0.  1.
         14    1    4    4    0    0 -0.77638624030E+01 -0.31368986955E+02 -0.59852620897E+02  0.68019314391E+02  0.00000000000E+00 0. -1.
         -5    1    5    5    0  502 -0.37880231998E+02  0.90451901468E+02  0.61227447391E+02  0.11570371113E+03  0.47000000000E+01 0.  1.
         13    1    6    6    0    0 -0.88787963605E+01 -0.40070298386E+01  0.70862060600E+02  0.71528462485E+02  0.00000000000E+00 0. -1.
        -14    1    6    6    0    0  0.27613666787E+02 -0.18434601128E+02 -0.10050531436E+02  0.34689512743E+02  0.00000000000E+00 0.  1.
</event>
<event>
12    1  0.8633375E-002  0.2706143E+03  0.7818608E-02  0.1100991E+00
         21   -1    0    0  503  502  0.00000000000E+00  0.00000000000E+00  0.21366836819E+03  0.21366836819E+03  0.00000000000E+00 0. -1.
         21   -1    0    0  501  503 -0.00000000000E+00 -0.00000000000E+00 -0.99544425121E+03  0.99544425121E+03  0.00000000000E+00 0.  1.
          6    2    1    2  501    0  0.12674241197E+03 -0.16498633537E+03 -0.88074373013E+03  0.92138029275E+03  0.17305489264E+03 0.  0.
         24    2    3    3    0    0  0.70931909121E+02 -0.14651995162E+03 -0.80677059617E+03  0.82677620138E+03  0.78617176049E+02 0.  0.
         -6    2    1    2    0  502 -0.12674241197E+03  0.16498633537E+03  0.98967847104E+02  0.28773232664E+03  0.17236915960E+03 0.  0.
        -24    2    5    5    0    0 -0.13676942093E+03  0.13324551582E+03  0.27242428972E+02  0.20851966262E+03  0.79234195742E+02 0.  0.
          5    1    3    3  501    0  0.55810502849E+02 -0.18466383756E+02 -0.73973133953E+02  0.94604091371E+02  0.47000000000E+01 0. -1.
        -13    1    4    4    0    0  0.65405112568E+02 -0.51182241450E+02 -0.44049757080E+03  0.44825836352E+03  0.00000000000E+00 0.  1.
         14    1    4    4    0    0  0.55267965531E+01 -0.95337710169E+02 -0.36627302538E+03  0.37851783786E+03  0.00000000000E+00 0. -1.
         -5    1    5    5    0  502  0.10027008964E+02  0.31740819552E+02  0.71725418132E+02  0.79212664018E+02  0.47000000000E+01 0.  1.
         11    1    6    6    0    0 -0.44003336023E+02  0.97954739612E+02  0.17328552640E+02  0.10877363343E+03  0.00000000000E+00 0. -1.
        -12    1    6    6    0    0 -0.92766084912E+02  0.35290776210E+02  0.99138763314E+01  0.99746029191E+02  0.00000000000E+00 0.  1.
</event>
<event>
12    1  0.8633375E-002  0.2235456E+03  0.7818608E-02  0.1131498E+00
         21   -1    0    0  503  502  0.00000000000E+00  0.00000000000E+00  0.66713772364E+03  0.66713772364E+03  0.00000000000E+00 0.  1.
         21   -1    0    0  501  503 -0.00000000000E+00 -0.00000000000E+00 -0.12695485497E+03  0.12695485497E+03  0.00000000000E+00 0.  1.
          6    2    1    2  501    0  0.13867162818E+03 -0.27116360334E+02  0.15284963159E+02  0.22406756468E+03  0.17322680505E+03 0.  0.
         24    2    3    3    0    0  0.13681694033E+03 -0.59865516088E+02 -0.26486279022E+02  0.17074895871E+03  0.78427856962E+02 0.  0.
         -6    2    1    2    0  502 -0.13867162818E+03  0.27116360334E+02  0.52489790551E+03  0.57002501392E+03  0.17159716731E+03 0.  0.
        -24    2    5    5    0    0 -0.32944083661E+02  0.33295920434E+02  0.12766551149E+03  0.15888979834E+03  0.82180011112E+02 0.  0.
          5    1    3    3  501    0  0.18546878494E+01  0.32749155754E+02  0.41771242181E+02  0.53318605974E+02  0.47000000000E+01 0. -1.
        -13    1    4    4    0    0  0.93118867768E+02 -0.52666171005E+02  0.17416069577E+02  0.10838896891E+03  0.00000000000E+00 0.  1.
         14    1    4    4    0    0  0.43698072559E+02 -0.71993450831E+01 -0.43902348599E+02  0.62359989797E+02  0.00000000000E+00 0. -1.
         -5    1    5    5    0  502 -0.10572754451E+03 -0.61795600994E+01  0.39723239403E+03  0.41113521559E+03  0.47000000000E+01 0.  1.
         11    1    6    6    0    0 -0.41595263540E+02 -0.15421626216E+02  0.70372228518E+02  0.83187998237E+02  0.00000000000E+00 0. -1.
        -12    1    6    6    0    0  0.86511798791E+01  0.48717546650E+02  0.57293282970E+02  0.75701800100E+02  0.00000000000E+00 0.  1.
</event>
<event>
12    1  0.8633375E-002  0.2107149E+03  0.7818608E-02  0.1141060E+00
         21   -1    0    0  503  502  0.00000000000E+00  0.00000000000E+00  0.43712357546E+03  0.43712357546E+03  0.00000000000E+00 0.  1.
         21   -1    0    0  501  503 -0.00000000000E+00 -0.00000000000E+00 -0.10189359017E+03  0.10189359017E+03  0.00000000000E+00 0.  1.
          6    2    1    2  501    0  0.32268916627E+02 -0.11655447811E+03  0.14932941577E+03  0.25801928244E+03  0.17218724212E+03 0.  0.
         24    2    3    3    0    0  0.50056724123E+02 -0.47156535106E+02  0.57284683572E+02  0.14128538285E+03  0.10931884559E+03 0.  0.
         -6    2    1    2    0  502 -0.32268916627E+02  0.11655447811E+03  0.18590056951E+03  0.28099788319E+03  0.17255306216E+03 0.  0.
        -24    2    5    5    0    0 -0.27268307676E+02  0.24244852579E+02  0.16132483071E+01  0.74769902997E+02  0.65242335519E+02 0.  0.
          5    1    3    3  501    0 -0.17787807496E+02 -0.69397943006E+02  0.92044732198E+02  0.11673389959E+03  0.47000000000E+01 0. -1.
        -13    1    4    4    0    0  0.88596678668E+01 -0.77485564578E+02  0.34073065944E+02  0.85108637961E+02  0.00000000000E+00 0.  1.
         14    1    4    4    0    0  0.41197056256E+02  0.30329029473E+02  0.23211617628E+02  0.56176744885E+02  0.00000000000E+00 0. -1.
         -5    1    5    5    0  502 -0.50006089511E+01  0.92309625532E+02  0.18428732121E+03  0.20622798019E+03  0.47000000000E+01 0.  1.
         11    1    6    6    0    0  0.18985769778E+02  0.10979117686E+02  0.12764559131E+02  0.25375863513E+02  0.00000000000E+00 0. -1.
        -12    1    6    6    0    0 -0.46254077454E+02  0.13265734893E+02 -0.11151310824E+02  0.49394039483E+02  0.00000000000E+00 0.  1.
</event>
<event>
12    1  0.8633375E-002  0.2502084E+03  0.7818608E-02  0.1113265E+00
         21   -1    0    0  501  502  0.00000000000E+00  0.00000000000E+00  0.18401381073E+04  0.18401381073E+04  0.00000000000E+00 0.  1.
         21   -1    0    0  502  503 -0.00000000000E+00 -0.00000000000E+00 -0.51835171980E+02  0.51835171980E+02  0.00000000000E+00 0.  1.
         -6    2    1    2    0  503 -0.18015015740E+03 -0.38007535713E+01  0.33904343066E+03  0.42137238129E+03  0.17359640233E+03 0.  0.
        -24    2    3    3    0    0 -0.28778472470E+02 -0.35094451853E+02  0.12453588801E+03  0.15693286381E+03  0.84017351262E+02 0.  0.
          6    2    1    2  501    0  0.18015015740E+03  0.38007535713E+01  0.14492595047E+04  0.14706008980E+04  0.17275810944E+03 0.  0.
         24    2    5    5    0    0  0.80268171960E+02 -0.63712710347E+02  0.73525095592E+03  0.74647053921E+03  0.78243267073E+02 0.  0.
          5    1    5    5  501    0  0.99881985442E+02  0.67513463918E+02  0.71400854874E+03  0.72413035877E+03  0.47000000000E+01 0. -1.
        -13    1    6    6    0    0  0.69750680529E+02 -0.61405559369E+02  0.72697366020E+03  0.73288914768E+03  0.00000000000E+00 0.  1.
         14    1    6    6    0    0  0.10517491430E+02 -0.23071509782E+01  0.82772957161E+01  0.13581391534E+02  0.00000000000E+00 0. -1.
         -5    1    3    3    0  503 -0.15137168493E+03  0.31293698282E+02  0.21450754265E+03  0.26443951748E+03  0.47000000000E+01 0.  1.
         13    1    4    4    0    0 -0.31301610239E+02 -0.43160085632E+02  0.13401643582E+03  0.14423241267E+03  0.00000000000E+00 0. -1.
        -14    1    4    4    0    0  0.25231377688E+01  0.80656337786E+01 -0.94805478082E+01  0.12700451141E+02  0.00000000000E+00 0.  1.
</event>
<event>
12    1  0.8633375E-002  0.1945543E+03  0.7818608E-02  0.1155463E+00
         21   -1    0    0  503  502  0.00000000000E+00  0.00000000000E+00  0.15394526591E+02  0.15394526591E+02  0.00000000000E+00 0.  1.
         21   -1    0    0  501  503 -0.00000000000E+00 -0.00000000000E+00 -0.24627338639E+04  0.24627338639E+04  0.00000000000E+00 0. -1.
          6    2    1    2  501    0  0.73947061829E+02 -0.33150374193E+02 -0.14369356995E+04  0.14500467492E+04  0.17687355648E+03 0.  0.
         24    2    3    3    0    0 -0.14118571331E+02 -0.31247904366E+02 -0.28895642360E+03  0.29868334735E+03  0.67380721708E+02 0.  0.
         -6    2    1    2    0  502 -0.73947061829E+02  0.33150374193E+02 -0.10104036378E+04  0.10280816413E+04  0.17166605572E+03 0.  0.
        -24    2    5    5    0    0  0.17520262677E+02 -0.16744431186E+02 -0.52637977314E+03  0.53294837177E+03  0.79818330132E+02 0.  0.
          5    1    3    3  501    0  0.88065633160E+02 -0.19024698275E+01 -0.11479792759E+04  0.11513634018E+04  0.47000000000E+01 0. -1.
        -11    1    4    4    0    0  0.25745206711E+02 -0.23740029080E+02 -0.13054078821E+03  0.13515658340E+03  0.00000000000E+00 0.  1.
         12    1    4    4    0    0 -0.39863778042E+02 -0.75078752855E+01 -0.15841563539E+03  0.16352676395E+03  0.00000000000E+00 0. -1.
         -5    1    5    5    0  502 -0.91467324505E+02  0.49894805379E+02 -0.48402386462E+03  0.49513326951E+03  0.47000000000E+01 0.  1.
         11    1    6    6    0    0 -0.20445210383E+02  0.14055383174E+02 -0.31558694529E+03  0.31656070581E+03  0.00000000000E+00 0. -1.
        -12    1    6    6    0    0  0.37965473059E+02 -0.30799814360E+02 -0.21079282784E+03  0.21638766596E+03  0.00000000000E+00 0.  1.
</event>
<event>
12    1  0.8633375E-002  0.2099002E+03  0.7818608E-02  0.1142361E+00
         21   -1    0    0  501  502  0.00000000000E+00  0.00000000000E+00  0.14969014019E+03  0.14969014019E+03  0.00000000000E+00 0. -1.
         21   -1    0    0  502  503 -0.00000000000E+00 -0.00000000000E+00 -0.42573913397E+03  0.42573913397E+03  0.00000000000E+00 0. -1.
         -6    2    1    2    0  503 -0.84347843129E+02  0.77115802738E+02 -0.30168611465E+03  0.36752226840E+03  0.17605879792E+03 0.  0.
        -24    2    3    3    0    0 -0.11179419973E+03  0.10169493134E+03 -0.28460010488E+03  0.32663880251E+03  0.53440485166E+02 0.  0.
          6    2    1    2  501    0  0.84347843129E+02 -0.77115802738E+02  0.25637120870E+02  0.20790700576E+03  0.17177501391E+03 0.  0.
         24    2    5    5    0    0  0.31403749602E+02 -0.87614758418E+02 -0.33532199007E+02  0.12767980635E+03  0.80716684753E+02 0.  0.
          5    1    5    5  501    0  0.52944093528E+02  0.10498955680E+02  0.59169319877E+02  0.80227199406E+02  0.47000000000E+01 0. -1.
        -13    1    6    6    0    0  0.54067081518E+02 -0.51940937095E+02 -0.39914005910E+02  0.84936671221E+02  0.00000000000E+00 0.  1.
         14    1    6    6    0    0 -0.22663331916E+02 -0.35673821322E+02  0.63818069034E+01  0.42743135129E+02  0.00000000000E+00 0. -1.
         -5    1    3    3    0  503  0.27446356600E+02 -0.24579128600E+02 -0.17086009768E+02  0.40883465890E+02  0.47000000000E+01 0.  1.
         11    1    4    4    0    0 -0.54304709604E+02  0.15451568905E+02 -0.92856657341E+02  0.10867433588E+03  0.00000000000E+00 0. -1.
        -12    1    4    4    0    0 -0.57489490126E+02  0.86243362433E+02 -0.19174344754E+03  0.21796446663E+03  0.00000000000E+00 0.  1.
</event>
<event>
12    1  0.8633375E-002  0.2009069E+03  0.7818608E-02  0.1149023E+00
         21   -1    0    0  501  502  0.00000000000E+00  0.00000000000E+00  0.74461882825E+02  0.74461882825E+02  0.00000000000E+00 0.  1.
         21   -1    0    0  502  503 -0.00000000000E+00 -0.00000000000E+00 -0.63881800698E+03  0.63881800698E+03  0.00000000000E+00 0.  1.
         -6    2    1    2    0  503  0.10114853669E+03 -0.21017311743E+02 -0.42126895981E+03  0.46662723621E+03  0.17204850248E+03 0.  0.
        -24    2    3    3    0    0  0.10748172707E+03 -0.66166168403E+02 -0.35986290336E+03  0.39000268187E+03  0.81673123865E+02 0.  0.
          6    2    1    2  501    0 -0.10114853669E+03  0.21017311743E+02 -0.14308716435E+03  0.24665265360E+03  0.17231030456E+03 0.  0.
         24    2    5    5    0    0 -0.50931949396E+02  0.10286090455E+02  0.38766459902E+01  0.90905049126E+02  0.74490485610E+02 0.  0.
          5    1    5    5  501    0 -0.50216587296E+02  0.10731221288E+02 -0.14696381034E+03  0.15574760448E+03  0.47000000000E+01 0. -1.
        -13    1    6    6    0    0  0.16070100750E+02  0.15750088790E+02  0.71239031402E+01  0.23602191233E+02  0.00000000000E+00 0.  1.
         14    1    6    6    0    0 -0.67002050146E+02 -0.54639983356E+01 -0.32472571500E+01  0.67302857893E+02  0.00000000000E+00 0. -1.
         -5    1    3    3    0  503 -0.63331903733E+01  0.45148856660E+02 -0.61406056449E+02  0.76624554332E+02  0.47000000000E+01 0.  1.
         11    1    4    4    0    0  0.33627142969E+02 -0.15166020718E+02 -0.28264068468E+02  0.46472039927E+02  0.00000000000E+00 0. -1.
        -12    1    4    4    0    0  0.73854584096E+02 -0.51000147685E+02 -0.33159883489E+03  0.34353064195E+03  0.00000000000E+00 0.  1.
</event>
<event>
12    1  0.8633375E-002  0.2121026E+03  0.7818608E-02  0.1139960E+00
         21   -1    0    0  501  502  0.00000000000E+00  0.00000000000E+00  0.22035612593E+03  0.22035612593E+03  0.00000000000E+00 0.  1.
         21   -1    0    0  502  503 -0.00000000000E+00 -0.00000000000E+00 -0.37565310867E+03  0.37565310867E+03  0.00000000000E+00 0.  1.
         -6    2    1    2    0  503 -0.43806355283E+02 -0.11442135348E+03 -0.27911491828E+03  0.35041118591E+03  0.17283407855E+03 0.  0.
        -24    2    3    3    0    0 -0.36905683599E+02  0.54316742784E+01 -0.14978307569E+03  0.17388588166E+03  0.80061211022E+02 0.  0.
          6    2    1    2  501    0  0.43806355283E+02  0.11442135348E+03  0.12381793554E+03  0.24559804868E+03  0.17313658613E+03 0.  0.
         24    2    5    5    0    0 -0.12198592221E+02  0.12054909873E+03  0.12112222400E+03  0.18899892971E+03  0.79806712935E+02 0.  0.
          5    1    5    5  501    0  0.56004947504E+02 -0.61277452470E+01  0.26957115412E+01  0.56599118963E+02  0.47000000000E+01 0. -1.
        -11    1    6    6    0    0 -0.37402087719E+02  0.75225623405E+02  0.40810406516E+02  0.93398607390E+02  0.00000000000E+00 0.  1.
         12    1    6    6    0    0  0.25203495498E+02  0.45323475326E+02  0.80311817484E+02  0.95600322324E+02  0.00000000000E+00 0. -1.
         -5    1    3    3    0  503 -0.69006716839E+01 -0.11985302776E+03 -0.12933184259E+03  0.17652530425E+03  0.47000000000E+01 0.  1.
         11    1    4    4    0    0  0.18793843307E+02  0.14322929243E+02 -0.15559149259E+02  0.28292083239E+02  0.00000000000E+00 0. -1.
        -12    1    4    4    0    0 -0.55699526905E+02 -0.88912549642E+01 -0.13422392643E+03  0.14559379842E+03  0.00000000000E+00 0.  1.
</event>
<event>
12    1  0.8633375E-002  0.1885765E+03  0.7818608E-02  0.1160365E+00
         21   -1    0    0  501  502  0.00000000000E+00  0.00000000000E+00  0.65584403244E+03  0.65584403244E+03  0.00000000000E+00 0. -1.
         21   -1    0    0  502  503 -0.00000000000E+00 -0.00000000000E+00 -0.64092834093E+02  0.64092834093E+02  0.00000000000E+00 0. -1.
         -6    2    1    2    0  503 -0.56344378085E+02  0.55332783242E+02  0.15099766474E+03  0.24158101615E+03  0.17124452331E+03 0.  0.
        -24    2    3    3    0    0 -0.73071798290E+02  0.56257551160E+01  0.15431361552E+03  0.18882041758E+03  0.80432091460E+02 0.  0.
          6    2    1    2  501    0  0.56344378085E+02 -0.55332783242E+02  0.44075353360E+03  0.47835585038E+03  0.16829805811E+03 0.  0.
         24    2    5    5    0    0  0.92822022855E+00  0.93781028036E+01  0.99219968466E+02  0.12632500594E+03  0.77618261880E+02 0.  0.
          5    1    5    5  501    0  0.55416157857E+02 -0.64710886045E+02  0.34153356514E+03  0.35203084444E+03  0.47000000000E+01 0. -1.
        -11    1    6    6    0    0  0.26398424277E+02  0.20604241375E+02  0.91506507738E+02  0.97441533882E+02  0.00000000000E+00 0.  1.
         12    1    6    6    0    0 -0.25470204048E+02 -0.11226138571E+02  0.77134607287E+01  0.28883472054E+02  0.00000000000E+00 0. -1.
         -5    1    3    3    0  503  0.16727420205E+02  0.49707028126E+02 -0.33159507737E+01  0.52760598569E+02  0.47000000000E+01 0.  1.
         11    1    4    4    0    0  0.76046790616E+01  0.23793894441E+02  0.48200502700E+02  0.54288755897E+02  0.00000000000E+00 0. -1.
        -12    1    4    4    0    0 -0.80676477352E+02 -0.18168139325E+02  0.10611311282E+03  0.13453166169E+03  0.00000000000E+00 0.  1.
</event>
<event>
12    1  0.8633375E-002  0.2588495E+03  0.7818608E-02  0.1108015E+00
         21   -1    0    0  501  502  0.00000000000E+00  0.00000000000E+00  0.39247683809E+02  0.39247683809E+02  0.00000000000E+00 0. -1.
         21   -1    0    0  502  503 -0.00000000000E+00 -0.00000000000E+00 -0.20007156970E+04  0.20007156970E+04  0.00000000000E+00 0.  1.
         -6    2    1    2    0  503  0.18921051775E+03  0.79478058927E+00 -0.13784691935E+04  0.14025620761E+04  0.17664033617E+03 0.  0.
        -24    2    3    3    0    0  0.82344813033E+02 -0.37829632221E+02 -0.10343113432E+04  0.10400998850E+04  0.61612229012E+02 0.  0.
          6    2    1    2  501    0 -0.18921051775E+03 -0.79478058927E+00 -0.58299881972E+03  0.63740130468E+03  0.17490439588E+03 0.  0.
         24    2    5    5    0    0 -0.15014127159E+03  0.63070411993E+02 -0.42439918744E+03  0.46195586535E+03  0.82269513971E+02 0.  0.
          5    1    5    5  501    0 -0.39069246162E+02 -0.63865192582E+02 -0.15859963228E+03  0.17544543932E+03  0.47000000000E+01 0. -1.
        -13    1    6    6    0    0 -0.65656072169E+02 -0.12068147009E+02 -0.19692291325E+03  0.20793026174E+03  0.00000000000E+00 0.  1.
         14    1    6    6    0    0 -0.84485199422E+02  0.75138559002E+02 -0.22747627419E+03  0.25402560361E+03  0.00000000000E+00 0. -1.
         -5    1    3    3    0  503  0.10686570472E+03  0.38624412810E+02 -0.34415785023E+03  0.36246219111E+03  0.47000000000E+01 0.  1.
         13    1    4    4    0    0  0.67691515394E+01 -0.31780165225E+02 -0.24255275617E+03  0.24471951258E+03  0.00000000000E+00 0. -1.
        -14    1    4    4    0    0  0.75575661494E+02 -0.60494669959E+01 -0.79175858707E+03  0.79538037244E+03  0.00000000000E+00 0.  1.
</event>
<event>
12    1  0.8633375E-002  0.1874431E+03  0.7818608E-02  0.1161372E+00
         21   -1    0    0  501  502  0.00000000000E+00  0.00000000000E+00  0.25129200940E+03  0.25129200940E+03  0.00000000000E+00 0. -1.
         21   -1    0    0  502  503 -0.00000000000E+00 -0.00000000000E+00 -0.70261025705E+03  0.70261025705E+03  0.00000000000E+00 0. -1.
         -6    2    1    2    0  503 -0.19314525292E+02  0.69283844313E+02 -0.65353473406E+03  0.67988422648E+03  0.17309422527E+03 0.  0.
        -24    2    3    3    0    0 -0.69179614194E+02  0.78258836681E+01 -0.42280052767E+03  0.43590887524E+03  0.80057465812E+02 0.  0.
          6    2    1    2  501    0  0.19314525292E+02 -0.69283844313E+02  0.20221648640E+03  0.27401803997E+03  0.17035573629E+03 0.  0.
         24    2    5    5    0    0 -0.39992243641E+02 -0.12408073474E+02  0.15442614707E+03  0.17884371212E+03  0.79901806137E+02 0.  0.
          5    1    5    5  501    0  0.59306768933E+02 -0.56875770840E+02  0.47790339327E+02  0.95174327856E+02  0.47000000000E+01 0. -1.
        -11    1    6    6    0    0 -0.20506363613E+02  0.29746444281E+02  0.33358894802E+02  0.49174970853E+02  0.00000000000E+00 0.  1.
         12    1    6    6    0    0 -0.19485880028E+02 -0.42154517755E+02  0.12106725227E+03  0.12966874126E+03  0.00000000000E+00 0. -1.
         -5    1    3    3    0  503  0.49865088902E+02  0.61457960645E+02 -0.23073420638E+03  0.24397535124E+03  0.47000000000E+01 0.  1.
         13    1    4    4    0    0 -0.28890204321E+02  0.11975092321E+02 -0.39062207940E+02  0.50039013089E+02  0.00000000000E+00 0. -1.
        -14    1    4    4    0    0 -0.40289409873E+02 -0.41492086532E+01 -0.38373831973E+03  0.38586986215E+03  0.00000000000E+00 0.  1.
</event>
<event>
12    1  0.8633375E-002  0.1752046E+03  0.7818608E-02  0.1173002E+00
         21   -1    0    0  503  502  0.00000000000E+00  0.00000000000E+00  0.28946692835E+02  0.28946692835E+02  0.00000000000E+00 0.  1.
         21   -1    0    0  501  503 -0.00000000000E+00 -0.00000000000E+00 -0.12638509435E+04  0.12638509435E+04  0.00000000000E+00 0.  1.
          6    2    1    2  501    0  0.19279271402E+00 -0.29033568066E+02 -0.88114538822E+03  0.89802936463E+03  0.17087000702E+03 0.  0.
         24    2    3    3    0    0 -0.42448345765E+02 -0.25989655726E+02 -0.79977665789E+03  0.80599408677E+03  0.86639720380E+02 0.  0.
         -6    2    1    2    0  502 -0.19279271402E+00  0.29033568066E+02 -0.35375886243E+03  0.39476827170E+03  0.17278214707E+03 0.  0.
        -24    2    5    5    0    0  0.28388731794E+02  0.75491118629E+02 -0.21435824604E+03  0.24500235636E+03  0.87016480572E+02 0.  0.
          5    1    3    3  501    0  0.42641138479E+02 -0.30439123405E+01 -0.81368730337E+02  0.92035277854E+02  0.47000000000E+01 0. -1.
        -13    1    4    4    0    0 -0.25985543548E+02 -0.47638030992E+02 -0.26356667856E+03  0.26909482439E+03  0.00000000000E+00 0.  1.
         14    1    4    4    0    0 -0.16462802217E+02  0.21648375266E+02 -0.53620997933E+03  0.53689926238E+03  0.00000000000E+00 0. -1.
         -5    1    5    5    0  502 -0.28581524508E+02 -0.46457550563E+02 -0.13940061639E+03  0.14976591534E+03  0.47000000000E+01 0.  1.
         11    1    6    6    0    0 -0.29054012284E+02  0.10930321518E+02 -0.72943656430E+02  0.79274110349E+02  0.00000000000E+00 0. -1.
        -12    1    6    6    0    0  0.57442744078E+02  0.64560797111E+02 -0.14141458961E+03  0.16572824601E+03  0.00000000000E+00 0.  1.
</event>
<event>
12    1  0.8633375E-002  0.2331169E+03  0.7818608E-02  0.1124605E+00
         21   -1    0    0  503  502  0.00000000000E+00  0.00000000000E+00  0.66636902547E+03  0.66636902547E+03  0.00000000000E+00 0. -1.
         21   -1    0    0  501  503 -0.00000000000E+00 -0.00000000000E+00 -0.59173435700E+03  0.59173435700E+03  0.00000000000E+00 0.  1.
          6    2    1    2  501    0 -0.15475670258E+03  0.99909228084E+01 -0.54695134616E+03  0.59424146152E+03  0.17296729167E+03 0.  0.
         24    2    3    3    0    0 -0.11137333953E+03  0.68294040191E+02 -0.43918039154E+03  0.46417210177E+03  0.74217430987E+02 0.  0.
         -6    2    1    2    0  502  0.15475670258E+03 -0.99909228084E+01  0.62158601463E+03  0.66386192096E+03  0.17405177672E+03 0.  0.
        -24    2    5    5    0    0  0.64975498517E+02 -0.49786051239E+02  0.19228820502E+03  0.22344959576E+03  0.79085407944E+02 0.  0.
          5    1    3    3  501    0 -0.43383363043E+02 -0.58303117382E+02 -0.10777095462E+03  0.13006935974E+03  0.47000000000E+01 0. -1.
        -13    1    4    4    0    0 -0.17313187414E+02  0.11764614809E+02 -0.19912691897E+03  0.20022408067E+03  0.00000000000E+00 0.  1.
         14    1    4    4    0    0 -0.94060152120E+02  0.56529425382E+02 -0.24005347257E+03  0.26394802110E+03  0.00000000000E+00 0. -1.
         -5    1    5    5    0  502  0.89781204059E+02  0.39795128430E+02  0.42929780961E+03  0.44041232520E+03  0.47000000000E+01 0.  1.
         11    1    6    6    0    0  0.55352077668E+02  0.50262557092E+01  0.11978131576E+03  0.13204801912E+03  0.00000000000E+00 0. -1.
        -12    1    6    6    0    0  0.96234208495E+01 -0.54812306948E+02  0.72506889261E+02  0.91401576639E+02  0.00000000000E+00 0.  1.
</event>
<event>
12    1  0.8633375E-002  0.1831392E+03  0.7818608E-02  0.1165610E+00
         21   -1    0    0  501  502  0.00000000000E+00  0.00000000000E+00  0.19545207792E+03  0.19545207792E+03  0.00000000000E+00 0. -1.
         21   -1    0    0  502  503 -0.00000000000E+00 -0.00000000000E+00 -0.22028111318E+03  0.22028111318E+03  0.00000000000E+00 0. -1.
         -6    2    1    2    0  503  0.45921687754E+02  0.36935280376E+02 -0.11316472088E+03  0.21240298423E+03  0.16981094580E+03 0.  0.
        -24    2    3    3    0    0  0.79938192485E+02  0.53342569261E+01 -0.29780144972E+02  0.11684763494E+03  0.79673984729E+02 0.  0.
          6    2    1    2  501    0 -0.45921687754E+02 -0.36935280376E+02  0.88335685628E+02  0.20333020686E+03  0.17339827948E+03 0.  0.
         24    2    5    5    0    0 -0.54542636585E+02  0.25077801458E+02  0.98649295528E+02  0.13970314009E+03  0.78622442793E+02 0.  0.
          5    1    5    5  501    0  0.86209488318E+01 -0.62013081834E+02 -0.10313609900E+02  0.63627066776E+02  0.47000000000E+01 0. -1.
        -11    1    6    6    0    0 -0.37426522450E+02  0.53442698715E+02  0.72187931193E+02  0.97303463651E+02  0.00000000000E+00 0.  1.
         12    1    6    6    0    0 -0.17116114136E+02 -0.28364897257E+02  0.26461364335E+02  0.42399676437E+02  0.00000000000E+00 0. -1.
         -5    1    3    3    0  503 -0.34016504732E+02  0.31601023450E+02 -0.83384575913E+02  0.95555349287E+02  0.47000000000E+01 0.  1.
         11    1    4    4    0    0  0.51428130940E+02  0.28058631303E+02  0.13639422834E+02  0.60151253502E+02  0.00000000000E+00 0. -1.
        -12    1    4    4    0    0  0.28510061545E+02 -0.22724374377E+02 -0.43419567805E+02  0.56696381441E+02  0.00000000000E+00 0.  1.
</event>
<event>
12    1  0.8633375E-002  0.1937017E+03  0.7818608E-02  0.1157863E+00
         21   -1    0    0  503  502  0.00000000000E+00  0.00000000000E+00  0.12780829617E+03  0.12780829617E+03  0.00000000000E+00 0.  1.
         21   -1    0    0  501  503 -0.00000000000E+00 -0.00000000000E+00 -0.27833505332E+03  0.27833505332E+03  0.00000000000E+00 0.  1.
          6    2    1    2  501    0 -0.56886642719E+02  0.14596781425E+02 -0.92043956382E+02  0.20380555078E+03  0.17209141895E+03 0.  0.
         24    2    3    3    0    0  0.23864124869E+02 -0.93347700356E+01 -0.65524154526E+01  0.83704346824E+02  0.79415673149E+02 0.  0.
         -6    2    1    2    0  502  0.56886642719E+02 -0.14596781425E+02 -0.58482800760E+02  0.20233779871E+03  0.18458383097E+03 0.  0.
        -24    2    5    5    0    0 -0.17891346398E+02 -0.52524056616E+02  0.37007725043E+01  0.97843240748E+02  0.80502964191E+02 0.  0.
          5    1    3    3  501    0 -0.80750767588E+02  0.23931551460E+02 -0.85491540930E+02  0.12010120396E+03  0.47000000000E+01 0. -1.
        -13    1    4    4    0    0 -0.28755887502E+02 -0.76347164618E+01 -0.87466008821E+01  0.31011175219E+02  0.00000000000E+00 0.  1.
         14    1    4    4    0    0  0.52620012371E+02 -0.17000535738E+01  0.21941854295E+01  0.52693171605E+02  0.00000000000E+00 0. -1.
         -5    1    5    5    0  502  0.74777989117E+02  0.37927275191E+02 -0.62183573264E+02  0.10449455796E+03  0.47000000000E+01 0.  1.
         11    1    6    6    0    0  0.14635499857E+02 -0.37860062523E+02 -0.28648368178E+02  0.49682101300E+02  0.00000000000E+00 0. -1.
        -12    1    6    6    0    0 -0.32526846255E+02 -0.14663994093E+02  0.32349140682E+02  0.48161139448E+02  0.00000000000E+00 0.  1.
</event>
<event>
12    1  0.8633375E-002  0.1929989E+03  0.7818608E-02  0.1155828E+00
         21   -1    0    0  503  502  0.00000000000E+00  0.00000000000E+00  0.57788239854E+02  0.57788239854E+02  0.00000000000E+00 0. -1.
         21   -1    0    0  501  503 -0.00000000000E+00 -0.00000000000E+00 -0.83666510449E+03  0.83666510449E+03  0.00000000000E+00 0. -1.
          6    2    1    2  501    0 -0.68728933986E+02 -0.52299980212E+02 -0.60394851549E+03  0.63397587133E+03  0.17237355297E+03 0.  0.
         24    2    3    3    0    0 -0.11428978972E+03 -0.37535604481E+02 -0.44232465378E+03  0.46533975111E+03  0.80118081528E+02 0.  0.
         -6    2    1    2    0  502  0.68728933986E+02  0.52299980212E+02 -0.17492834915E+03  0.26047747302E+03  0.17259673322E+03 0.  0.
        -24    2    5    5    0    0  0.82258826543E+02  0.20528021995E+02 -0.43408647642E+02  0.12441852548E+03  0.80048388874E+02 0.  0.
          5    1    3    3  501    0  0.45560855735E+02 -0.14764375731E+02 -0.16162386171E+03  0.16863612021E+03  0.47000000000E+01 0. -1.
        -11    1    4    4    0    0  0.21472825311E+01 -0.27490139316E+02 -0.78146424827E+02  0.82868463815E+02  0.00000000000E+00 0.  1.
         12    1    4    4    0    0 -0.11643707225E+03 -0.10045465165E+02 -0.36417822895E+03  0.38247128730E+03  0.00000000000E+00 0. -1.
         -5    1    5    5    0  502 -0.13529892557E+02  0.31771958217E+02 -0.13151970150E+03  0.13605894754E+03  0.47000000000E+01 0.  1.
         13    1    6    6    0    0  0.28588562220E+02  0.44464332390E+02 -0.38602384150E+02  0.65456296922E+02  0.00000000000E+00 0. -1.
        -14    1    6    6    0    0  0.53670264323E+02 -0.23936310395E+02 -0.48062634925E+01  0.58962228558E+02  0.00000000000E+00 0.  1.
</event>
<event>
12    1  0.8633375E-002  0.1938998E+03  0.7818608E-02  0.1155423E+00
         21   -1    0    0  501  502  0.00000000000E+00  0.00000000000E+00  0.62561434589E+02  0.62561434589E+02  0.00000000000E+00 0.  1.
         21   -1    0    0  502  503 -0.00000000000E+00 -0.00000000000E+00 -0.61948342939E+03  0.61948342939E+03  0.00000000000E+00 0. -1.
         -6    2    1    2    0  503  0.71604625664E+02  0.51784435937E+02 -0.34502823697E+03  0.39482350976E+03  0.17038858334E+03 0.  0.
        -24    2    3    3    0    0  0.78353679830E+02  0.13056372150E+02 -0.11380095120E+03  0.16023118179E+03  0.80084999394E+02 0.  0.
          6    2    1    2  501    0 -0.71604625664E+02 -0.51784435937E+02 -0.21189375783E+03  0.28722135421E+03  0.17259284889E+03 0.  0.
         24    2    5    5    0    0 -0.89018487457E+02 -0.81308072167E+02 -0.20659988817E+03  0.25222131515E+03  0.79979899427E+02 0.  0.
          5    1    5    5  501    0  0.17413861793E+02  0.29523636230E+02 -0.52938696524E+01  0.35000039067E+02  0.47000000000E+01 0. -1.
        -13    1    6    6    0    0 -0.29909767558E+02 -0.49711359503E+01 -0.79380816234E+01  0.31341977089E+02  0.00000000000E+00 0.  1.
         14    1    6    6    0    0 -0.59108719900E+02 -0.76336936217E+02 -0.19866180655E+03  0.22087933806E+03  0.00000000000E+00 0. -1.
         -5    1    3    3    0  503 -0.67490541665E+01  0.38728063787E+02 -0.23122728577E+03  0.23459232797E+03  0.47000000000E+01 0.  1.
         13    1    4    4    0    0  0.82721329554E+02  0.26215510040E+02 -0.11732162924E+03  0.14592613206E+03  0.00000000000E+00 0. -1.
        -14    1    4    4    0    0 -0.43676497231E+01 -0.13159137890E+02  0.35206780385E+01  0.14305049736E+02  0.00000000000E+00 0.  1.
</event>
<event>
12    1  0.8633375E-002  0.1849750E+03  0.7818608E-02  0.1163094E+00
         21   -1    0    0  501  502  0.00000000000E+00  0.00000000000E+00  0.42992473098E+03  0.42992473098E+03  0.00000000000E+00 0.  1.
         21   -1    0    0  502  503 -0.00000000000E+00 -0.00000000000E+00 -0.97424872199E+02  0.97424872199E+02  0.00000000000E+00 0.  1.
         -6    2    1    2    0  503  0.49488020980E+02 -0.46506816189E+02  0.53333637253E+02  0.19251035783E+03  0.17205758582E+03 0.  0.
        -24    2    3    3    0    0 -0.25860082095E+02 -0.65476781807E+02  0.24630283860E+02  0.10954549341E+03  0.80234727158E+02 0.  0.
          6    2    1    2  501    0 -0.49488020980E+02  0.46506816189E+02  0.27916622153E+03  0.33483924535E+03  0.17196392880E+03 0.  0.
         24    2    5    5    0    0 -0.11198926335E+02 -0.42835193446E+02  0.11774084613E+03  0.14634974623E+03  0.74800211403E+02 0.  0.
          5    1    5    5  501    0 -0.38289094645E+02  0.89342009635E+02  0.16142537540E+03  0.18848949912E+03  0.47000000000E+01 0. -1.
        -13    1    6    6    0    0 -0.12210589444E+01 -0.27447202427E+02  0.12397230431E+03  0.12698020374E+03  0.00000000000E+00 0.  1.
         14    1    6    6    0    0 -0.99778673904E+01 -0.15387991019E+02 -0.62314581800E+01  0.19369542491E+02  0.00000000000E+00 0. -1.
         -5    1    3    3    0  503  0.75348103074E+02  0.18969965618E+02  0.28703353393E+02  0.82964864422E+02  0.47000000000E+01 0.  1.
         13    1    4    4    0    0  0.12346984701E+02 -0.44985496633E+02  0.42066888494E+02  0.62815332890E+02  0.00000000000E+00 0. -1.
        -14    1    4    4    0    0 -0.38207066796E+02 -0.20491285174E+02 -0.17436604634E+02  0.46730160522E+02  0.00000000000E+00 0.  1.
</event>
<event>
12    1  0.8633375E-002  0.2415114E+03  0.7818608E-02  0.1118876E+00
         21   -1    0    0  503  502  0.00000000000E+00  0.00000000000E+00  0.10487837845E+03  0.10487837845E+03  0.00000000000E+00 0.  1.
         21   -1    0    0  501  503 -0.00000000000E+00 -0.00000000000E+00 -0.55918772755E+03  0.55918772755E+03  0.00000000000E+00 0. -1.
          6    2    1    2  501    0  0.88628045375E+02 -0.14319354918E+03 -0.25581432605E+03  0.35145126812E+03  0.17238822900E+03 0.  0.
         24    2    3    3    0    0  0.25269415496E+02 -0.81049099739E+02 -0.49732786992E+02  0.12702324109E+03  0.80337125586E+02 0.  0.
         -6    2    1    2    0  502 -0.88628045375E+02  0.14319354918E+03 -0.19849502305E+03  0.31261483787E+03  0.17311395013E+03 0.  0.
        -24    2    5    5    0    0 -0.81904547856E+02  0.20487699923E+02 -0.78108164917E+02  0.14051888652E+03  0.80725282501E+02 0.  0.
          5    1    3    3  501    0  0.63358629880E+02 -0.62144449438E+02 -0.20608153906E+03  0.22442802703E+03  0.47000000000E+01 0. -1.
        -13    1    4    4    0    0 -0.28335833953E+02 -0.15986294462E+02 -0.12240389592E+02  0.34760728326E+02  0.00000000000E+00 0.  1.
         14    1    4    4    0    0  0.53605249448E+02 -0.65062805277E+02 -0.37492397400E+02  0.92262512765E+02  0.00000000000E+00 0. -1.
         -5    1    5    5    0  502 -0.67234975192E+01  0.12270584925E+03 -0.12038685813E+03  0.17209595135E+03  0.47000000000E+01 0.  1.
         11    1    6    6    0    0 -0.16381632577E+02 -0.29923766956E+02 -0.24134428790E+02  0.41788280268E+02  0.00000000000E+00 0. -1.
        -12    1    6    6    0    0 -0.65522915279E+02  0.50411466879E+02 -0.53973736128E+02  0.98730606254E+02  0.00000000000E+00 0.  1.
</event>
<event>
12    1  0.8633375E-002  0.2519820E+03  0.7818608E-02  0.1112146E+00
         21   -1    0    0  503  502  0.00000000000E+00  0.00000000000E+00  0.11689462171E+04  0.11689462171E+04  0.00000000000E+00 0.  1.
         21   -1    0    0  501  503 -0.00000000000E+00 -0.00000000000E+00 -0.84931380663E+02  0.84931380663E+02  0.00000000000E+00 0.  1.
          6    2    1    2  501    0  0.75848405097E+02  0.16799568255E+03  0.16525536422E+03  0.30133743236E+03  0.17181205670E+03 0.  0.
         24    2    3    3    0    0  0.50323267265E+02  0.10637986214E+03  0.22835846968E+02  0.14400513790E+03  0.79792841390E+02 0.  0.
         -6    2    1    2    0  502 -0.75848405097E+02 -0.16799568255E+03  0.91875947226E+03  0.95254016545E+03  0.17099201448E+03 0.  0.
        -24    2    5    5    0    0  0.59654080527E+01 -0.21787484465E+02  0.27341434264E+03  0.28578476537E+03  0.80045292081E+02 0.  0.
          5    1    3    3  501    0  0.25525137832E+02  0.61615820404E+02  0.14241951725E+03  0.15733229446E+03  0.47000000000E+01 0. -1.
        -11    1    4    4    0    0  0.68914161725E+02  0.87847835837E+02  0.32087926030E+02  0.11617245347E+03  0.00000000000E+00 0.  1.
         12    1    4    4    0    0 -0.18590894459E+02  0.18532026304E+02 -0.92520790622E+01  0.27832684432E+02  0.00000000000E+00 0. -1.
         -5    1    5    5    0  502 -0.81813813150E+02 -0.14620819808E+03  0.64534512961E+03  0.66675540007E+03  0.47000000000E+01 0.  1.
         11    1    6    6    0    0  0.19309457173E+02 -0.46217214574E+02  0.21910111690E+03  0.22475361062E+03  0.00000000000E+00 0. -1.
        -12    1    6    6    0    0 -0.13344049121E+02  0.24429730109E+02  0.54313225745E+02  0.61031154757E+02  0.00000000000E+00 0.  1.
</event>
<event>
12    1  0.8633375E-002  0.2824734E+03  0.7818608E-02  0.1096479E+00
         21   -1    0    0  503  502  0.00000000000E+00  0.00000000000E+00  0.44851738730E+03  0.44851738730E+03  0.00000000000E+00 0. -1.
         21   -1    0    0  501  503 -0.00000000000E+00 -0.00000000000E+00 -0.18193094673E+03  0.18193094673E+03  0.00000000000E+00 0.  1.
          6    2    1    2  501    0  0.13500937032E+03  0.15535884673E+03  0.50712895969E+02  0.28698959901E+03  0.19346144522E+03 0.  0.
         24    2    3    3    0    0  0.16786493874E+03  0.16156971594E+03  0.54111607221E+02  0.25305282676E+03  0.82609057176E+02 0.  0.
         -6    2    1    2    0  502 -0.13500937032E+03 -0.15535884673E+03  0.21587354459E+03  0.34345873502E+03  0.17028979439E+03 0.  0.
        -24    2    5    5    0    0 -0.11153057573E+03 -0.33853255683E+02  0.99750379455E+02  0.17368965087E+03  0.81442276342E+02 0.  0.
          5    1    3    3  501    0 -0.32855568419E+02 -0.62108692050E+01 -0.33987112522E+01  0.33936772248E+02  0.47000000000E+01 0. -1.
        -13    1    4    4    0    0  0.10605485145E+03  0.13025003368E+03  0.69989191260E+02  0.18196480342E+03  0.00000000000E+00 0.  1.
         14    1    4    4    0    0  0.61810087291E+02  0.31319682262E+02 -0.15877584039E+02  0.71088023343E+02  0.00000000000E+00 0. -1.
         -5    1    5    5    0  502 -0.23478794595E+02 -0.12150559105E+03  0.11612316514E+03  0.16976908415E+03  0.47000000000E+01 0.  1.
         11    1    6    6    0    0 -0.11855241947E+03 -0.42448861207E+02  0.10237145454E+03  0.16228523249E+03  0.00000000000E+00 0. -1.
        -12    1    6    6    0    0  0.70218437464E+01  0.85956055239E+01 -0.26210750853E+01  0.11404418377E+02  0.00000000000E+00 0.  1.
</event>
<event>
12    1  0.8633375E-002  0.1907265E+03  0.7818608E-02  0.1158453E+00
         21   -1    0    0  503  502  0.00000000000E+00  0.00000000000E+00  0.24770368108E+02  0.24770368108E+02  0.00000000000E+00 0.  1.
         21   -1    0    0  501  503 -0.00000000000E+00 -0.00000000000E+00 -0.16633458670E+04  0.16633458670E+04  0.00000000000E+00 0.  1.
          6    2    1    2  501    0  0.70997921615E+02  0.42342769007E+02 -0.50928685233E+03  0.54283485413E+03  0.16870970909E+03 0.  0.
         24    2    3    3    0    0 -0.25253960109E+02  0.35267725529E+02 -0.26117410018E+03  0.27657087092E+03  0.79987255678E+02 0.  0.
         -6    2    1    2    0  502 -0.70997921615E+02 -0.42342769007E+02 -0.11292886465E+04  0.11452813810E+04  0.17188071270E+03 0.  0.
        -24    2    5    5    0    0 -0.75981190404E+01  0.35775499187E+02 -0.58379550418E+03  0.59056807018E+03  0.81337796000E+02 0.  0.
          5    1    3    3  501    0  0.96251881724E+02  0.70750434781E+01 -0.24811275215E+03  0.26626398321E+03  0.47000000000E+01 0. -1.
        -11    1    4    4    0    0  0.99257060973E+01  0.39080922055E+02 -0.21308062305E+03  0.21686214522E+03  0.00000000000E+00 0.  1.
         12    1    4    4    0    0 -0.35179666206E+02 -0.38131965263E+01 -0.48093477132E+02  0.59708725701E+02  0.00000000000E+00 0. -1.
         -5    1    5    5    0  502 -0.63399802575E+02 -0.78118268194E+02 -0.54549314236E+03  0.55471331078E+03  0.47000000000E+01 0.  1.
         11    1    6    6    0    0 -0.21823765973E+02  0.45677465810E+02 -0.55232618396E+03  0.55464125445E+03  0.00000000000E+00 0. -1.
        -12    1    6    6    0    0  0.14225646932E+02 -0.99019666224E+01 -0.31469320217E+02  0.35926815731E+02  0.00000000000E+00 0.  1.
</event>
<event>
12    1  0.8633375E-002  0.2365296E+03  0.7818608E-02  0.1123431E+00
         21   -1    0    0  501  502  0.00000000000E+00  0.00000000000E+00  0.56910860058E+02  0.56910860058E+02  0.00000000000E+00 0. -1.
         21   -1    0    0  502  503 -0.00000000000E+00 -0.00000000000E+00 -0.13907468116E+04  0.13907468116E+04  0.00000000000E+00 0.  1.
         -6    2    1    2    0  503  0.97930448604E+02  0.11697619654E+03 -0.26776588399E+03  0.35727417393E+03  0.18075525830E+03 0.  0.
        -24    2    3    3    0    0  0.36013664688E+02 -0.14376354186E+01 -0.16893836426E+03  0.19100784424E+03  0.81515488130E+02 0.  0.
          6    2    1    2  501    0 -0.97930448604E+02 -0.11697619654E+03 -0.10660700676E+04  0.10903834977E+04  0.17075415041E+03 0.  0.
         24    2    5    5    0    0 -0.14787308923E+02 -0.81554536846E+01 -0.56244591132E+03  0.56845044026E+03  0.80655588364E+02 0.  0.
          5    1    5    5  501    0 -0.83143139681E+02 -0.10882074285E+03 -0.50362415624E+03  0.52193305749E+03  0.47000000000E+01 0. -1.
        -13    1    6    6    0    0 -0.20105572548E+02 -0.38830094861E+02 -0.43768805382E+03  0.43986684663E+03  0.00000000000E+00 0.  1.
         14    1    6    6    0    0  0.53182636253E+01  0.30674641176E+02 -0.12475785751E+03  0.12858359362E+03  0.00000000000E+00 0. -1.
         -5    1    3    3    0  503  0.61916783917E+02  0.11841383196E+03 -0.98827519736E+02  0.16626632968E+03  0.47000000000E+01 0.  1.
         13    1    4    4    0    0  0.38972576421E+02  0.30753388129E+02 -0.62783718025E+02  0.80040163938E+02  0.00000000000E+00 0. -1.
        -14    1    4    4    0    0 -0.29589117336E+01 -0.32191023547E+02 -0.10615464623E+03  0.11096768031E+03  0.00000000000E+00 0.  1.
</event>
<event>
12    1  0.8633375E-002  0.1789814E+03  0.7818608E-02  0.1169199E+00
         21   -1    0    0  501  502  0.00000000000E+00  0.00000000000E+00  0.23884543976E+03  0.23884543976E+03  0.00000000000E+00 0. -1.
         21   -1    0    0  502  503 -0.00000000000E+00 -0.00000000000E+00 -0.28381587938E+03  0.28381587938E+03  0.00000000000E+00 0. -1.
         -6    2    1    2    0  503 -0.36528554107E+02  0.11016572577E+02 -0.21310808647E+03  0.27829733444E+03  0.17486752043E+03 0.  0.
        -24    2    3    3    0    0 -0.68317338629E+02  0.59952580978E+02 -0.15658194771E+03  0.19691825787E+03  0.77442386404E+02 0.  0.
          6    2    1    2  501    0  0.36528554107E+02 -0.11016572577E+02  0.16813764685E+03  0.24436398469E+03  0.17316982587E+03 0.  0.
         24    2    5    5    0    0  0.42668577741E+02  0.84722419527E+00  0.16145291698E+02  0.91713352240E+02  0.79557169505E+02 0.  0.
          5    1    5    5  501    0 -0.61400236339E+01 -0.11863796772E+02  0.15199235515E+03  0.15265063245E+03  0.47000000000E+01 0. -1.
        -11    1    6    6    0    0  0.34789264328E+02  0.26532627541E+02 -0.18811282614E+02  0.47624968140E+02  0.00000000000E+00 0.  1.
         12    1    6    6    0    0  0.78793134129E+01 -0.25685403346E+02  0.34956574312E+02  0.44088384100E+02  0.00000000000E+00 0. -1.
         -5    1    3    3    0  503  0.31788784522E+02 -0.48936008400E+02 -0.56526138763E+02  0.81379076568E+02  0.47000000000E+01 0.  1.
         11    1    4    4    0    0 -0.54502618854E+02  0.73402281896E+02 -0.15155133184E+03  0.17699219370E+03  0.00000000000E+00 0. -1.
        -12    1    4    4    0    0 -0.13814719775E+02 -0.13449700918E+02 -0.50306158682E+01  0.19926064169E+02  0.00000000000E+00 0.  1.
</event>
<event>
12    1  0.8633375E-002  0.4650099E+03  0.7818608E-02  0.1023834E+00
         21   -1    0    0  503  502  0.00000000000E+00  0.00000000000E+00  0.30072243180E+03  0.30072243180E+03  0.00000000000E+00 0.  1.
         21   -1    0    0  501  503 -0.00000000000E+00 -0.00000000000E+00 -0.75458247370E+03  0.75458247370E+03  0.00000000000E+00 0. -1.
          6    2    1    2  501    0  0.19532680645E+02 -0.42426040851E+03 -0.35896620328E+03  0.58744445297E+03  0.18935635819E+03 0.  0.
         24    2    3    3    0    0 -0.18734347765E+02 -0.13266159278E+03 -0.53348859993E+02  0.16327669687E+03  0.76570914141E+02 0.  0.
         -6    2    1    2    0  502 -0.19532680645E+02  0.42426040851E+03 -0.94893838621E+02  0.46786045253E+03  0.17178516406E+03 0.  0.
        -24    2    5    5    0    0  0.35295165801E+02  0.16106699146E+03 -0.16914700016E+01  0.18328069386E+03  0.80003919944E+02 0.  0.
          5    1    3    3  501    0  0.38267028410E+02 -0.29159881573E+03 -0.30561734329E+03  0.42416775610E+03  0.47000000000E+01 0. -1.
        -11    1    4    4    0    0 -0.42004574841E+02 -0.49846256312E+02 -0.69920406802E+01  0.65558540319E+02  0.00000000000E+00 0.  1.
         12    1    4    4    0    0  0.23270227076E+02 -0.82815336472E+02 -0.46356819313E+02  0.97718156552E+02  0.00000000000E+00 0. -1.
         -5    1    5    5    0  502 -0.54827846446E+02  0.26319341705E+03 -0.93202368619E+02  0.28457975867E+03  0.47000000000E+01 0.  1.
         11    1    6    6    0    0  0.99243362214E+01  0.47640101981E+01  0.20613423749E+02  0.23368814288E+02  0.00000000000E+00 0. -1.
        -12    1    6    6    0    0  0.25370829580E+02  0.15630298126E+03 -0.22304893750E+02  0.15991187957E+03  0.00000000000E+00 0.  1.
</event>
<event>
12    1  0.8633375E-002  0.1958883E+03  0.7818608E-02  0.1154236E+00
         21   -1    0    0  503  502  0.00000000000E+00  0.00000000000E+00  0.41685065331E+02  0.41685065331E+02  0.00000000000E+00 0. -1.
         21   -1    0    0  501  503 -0.00000000000E+00 -0.00000000000E+00 -0.10104111968E+04  0.10104111968E+04  0.00000000000E+00 0. -1.
          6    2    1    2  501    0  0.39415195824E+02 -0.75502906355E+02 -0.66350916790E+03  0.69182124938E+03  0.17640288736E+03 0.  0.
         24    2    3    3    0    0  0.24974625075E+01  0.13377467779E+02 -0.44603861035E+03  0.45395958088E+03  0.83328657633E+02 0.  0.
         -6    2    1    2    0  502 -0.39415195824E+02  0.75502906355E+02 -0.30521696355E+03  0.36027501274E+03  0.17142474569E+03 0.  0.
        -24    2    5    5    0    0 -0.54207555379E+02  0.43112943539E+02 -0.80571144979E+02  0.13277609539E+03  0.79627866627E+02 0.  0.
          5    1    3    3  501    0  0.36917733317E+02 -0.88880374133E+02 -0.21747055755E+03  0.23786166850E+03  0.47000000000E+01 0. -1.
        -13    1    4    4    0    0 -0.25663257463E+02 -0.25296566806E+02 -0.21781942106E+03  0.22078002461E+03  0.00000000000E+00 0.  1.
         14    1    4    4    0    0  0.28160719971E+02  0.38674034584E+02 -0.22821918929E+03  0.23317955626E+03  0.00000000000E+00 0. -1.
         -5    1    5    5    0  502  0.14792359554E+02  0.32389962816E+02 -0.22464581857E+03  0.22749891735E+03  0.47000000000E+01 0.  1.
         11    1    6    6    0    0 -0.25674655830E+02  0.64663899945E+02 -0.57078903766E+02  0.89992272797E+02  0.00000000000E+00 0. -1.
        -12    1    6    6    0    0 -0.28532899548E+02 -0.21550956406E+02 -0.23492241212E+02  0.42783822595E+02  0.00000000000E+00 0.  1.
</event>
<event>
12    1  0.8633375E-002  0.3524267E+03  0.7818608E-02  0.1061703E+00
         21   -1    0    0  501  502  0.00000000000E+00  0.00000000000E+00  0.16937342901E+04  0.16937342901E+04  0.00000000000E+00 0. -1.
         21   -1    0    0  502  503 -0.00000000000E+00 -0.00000000000E+00 -0.83145423444E+02  0.83145423444E+02  0.00000000000E+00 0. -1.
         -6    2    1    2    0  503 -0.19397252066E+03 -0.23855322811E+03  0.49677815760E+03  0.60864221518E+03  0.17065704446E+03 0.  0.
        -24    2    3    3    0    0 -0.53256394837E+02 -0.16872864141E+03  0.28270132807E+03  0.34307211161E+03  0.80453929962E+02 0.  0.
          6    2    1    2  501    0  0.19397252066E+03  0.23855322811E+03  0.11138107090E+04  0.11682374983E+04  0.17225439194E+03 0.  0.
         24    2    5    5    0    0  0.19092744525E+03  0.19923332516E+03  0.10750081417E+04  0.11127122204E+04  0.79616415379E+02 0.  0.
          5    1    5    5  501    0  0.30450754108E+01  0.39319902953E+02  0.38802567306E+02  0.55525277865E+02  0.47000000000E+01 0. -1.
        -13    1    6    6    0    0  0.25548324035E+01  0.22728841663E+02  0.17256047041E+03  0.17406965089E+03  0.00000000000E+00 0.  1.
         14    1    6    6    0    0  0.18837261284E+03  0.17650448350E+03  0.90244767129E+03  0.93864256956E+03  0.00000000000E+00 0. -1.
         -5    1    3    3    0  503 -0.14071612582E+03 -0.69824586707E+02  0.21407682952E+03  0.26557010358E+03  0.47000000000E+01 0.  1.
         11    1    4    4    0    0 -0.11219930366E+02 -0.10030644681E+03  0.21696858774E+03  0.23929613071E+03  0.00000000000E+00 0. -1.
        -12    1    4    4    0    0 -0.42036464472E+02 -0.68422194597E+02  0.65732740337E+02  0.10377598090E+03  0.00000000000E+00 0.  1.
</event>
<event>
12    1  0.8633375E-002  0.2430407E+03  0.7818608E-02  0.1117811E+00
         21   -1    0    0  501  502  0.00000000000E+00  0.00000000000E+00  0.14612491707E+03  0.14612491707E+03  0.00000000000E+00 0. -1.
         21   -1    0    0  502  503 -0.00000000000E+00 -0.00000000000E+00 -0.45710930551E+03  0.45710930551E+03  0.00000000000E+00 0.  1.
         -6    2    1    2    0  503 -0.33955194329E+02  0.16855017627E+03 -0.25839142421E+03  0.35473218560E+03  0.17177508041E+03 0.  0.
        -24    2    3    3    0    0  0.40522259551E+02  0.68249685530E+02 -0.92768592847E+02  0.14722292834E+03  0.82270928742E+02 0.  0.
          6    2    1    2  501    0  0.33955194329E+02 -0.16855017627E+03 -0.52592964237E+02  0.24850203699E+03  0.17153753338E+03 0.  0.
         24    2    5    5    0    0  0.87965099511E+02 -0.95372911543E+02 -0.24766522873E+02  0.15327398036E+03  0.77753980031E+02 0.  0.
          5    1    5    5  501    0 -0.54009905183E+02 -0.73177264731E+02 -0.27826441364E+02  0.95228056634E+02  0.47000000000E+01 0. -1.
        -11    1    6    6    0    0  0.34286683796E+02 -0.51653211319E+02 -0.49940016418E+02  0.79609271855E+02  0.00000000000E+00 0.  1.
         12    1    6    6    0    0  0.53678415715E+02 -0.43719700224E+02  0.25173493545E+02  0.73664708501E+02  0.00000000000E+00 0. -1.
         -5    1    3    3    0  503 -0.74477453879E+02  0.10030049074E+03 -0.16562283136E+03  0.20750925726E+03  0.47000000000E+01 0.  1.
         11    1    4    4    0    0  0.56198371525E+01 -0.19085604003E+02 -0.20902465041E+02  0.28857510194E+02  0.00000000000E+00 0. -1.
        -12    1    4    4    0    0  0.34902422398E+02  0.87335289533E+02 -0.71866127806E+02  0.11836541815E+03  0.00000000000E+00 0.  1.
</event>
<event>
12    1  0.8633375E-002  0.2218151E+03  0.7818608E-02  0.1132640E+00
         21   -1    0    0  501  502  0.00000000000E+00  0.00000000000E+00  0.30862639432E+02  0.30862639432E+02  0.00000000000E+00 0. -1.
         21   -1    0    0  502  503 -0.00000000000E+00 -0.00000000000E+00 -0.15906008737E+04  0.15906008737E+04  0.00000000000E+00 0. -1.
         -6    2    1    2    0  503 -0.11401234065E+03  0.81602511000E+02 -0.76798955113E+03  0.79938094038E+03  0.17188412834E+03 0.  0.
        -24    2    3    3    0    0 -0.70249488838E+02  0.12049078751E+03 -0.55311330036E+03  0.57662237513E+03  0.84297211743E+02 0.  0.
          6    2    1    2  501    0  0.11401234065E+03 -0.81602511000E+02 -0.79174868314E+03  0.82208257276E+03  0.17116073016E+03 0.  0.
         24    2    5    5    0    0  0.34760256379E+02 -0.85924403994E+01 -0.55594012355E+03  0.56277748208E+03  0.79793282396E+02 0.  0.
          5    1    5    5  501    0  0.79252084269E+02 -0.73010070600E+02 -0.23580855960E+03  0.25930509067E+03  0.47000000000E+01 0. -1.
        -11    1    6    6    0    0 -0.95944139235E+01 -0.34688977245E+02 -0.23186370195E+03  0.23464047861E+03  0.00000000000E+00 0.  1.
         12    1    6    6    0    0  0.44354670303E+02  0.26096536845E+02 -0.32407642159E+03  0.32813700347E+03  0.00000000000E+00 0. -1.
         -5    1    3    3    0  503 -0.43762851810E+02 -0.38888276505E+02 -0.21487625076E+03  0.22275856525E+03  0.47000000000E+01 0.  1.
         11    1    4    4    0    0 -0.85990225043E+02  0.11938136443E+03 -0.50411231068E+03  0.52514326689E+03  0.00000000000E+00 0. -1.
        -12    1    4    4    0    0  0.15740736204E+02  0.11094230737E+01 -0.49000989678E+02  0.51479108240E+02  0.00000000000E+00 0.  1.
</event>
<event>
12    1  0.8633375E-002  0.2122226E+03  0.7818608E-02  0.1141476E+00
         21   -1    0    0  501  502  0.00000000000E+00  0.00000000000E+00  0.30912804358E+03  0.30912804358E+03  0.00000000000E+00 0. -1.
         21   -1    0    0  502  503 -0.00000000000E+00 -0.00000000000E+00 -0.14577040934E+03  0.14577040934E+03  0.00000000000E+00 0. -1.
         -6    2    1    2    0  503  0.68107404390E+02  0.86342509795E+02  0.35043048333E+02  0.20690037914E+03  0.17171518315E+03 0.  0.
        -24    2    3    3    0    0 -0.39313090079E+01  0.63655874659E+02  0.71706342433E+02  0.12281383577E+03  0.76641458381E+02 0.  0.
          6    2    1    2  501    0 -0.68107404390E+02 -0.86342509795E+02  0.12831458590E+03  0.24799807378E+03  0.18150692580E+03 0.  0.
         24    2    5    5    0    0 -0.96874721207E+02 -0.11300568970E+03  0.12121565799E+03  0.20786120224E+03  0.79737357254E+02 0.  0.
          5    1    5    5  501    0  0.28767316817E+02  0.26663179902E+02  0.70989279143E+01  0.40136871539E+02  0.47000000000E+01 0. -1.
        -13    1    6    6    0    0  0.13781707718E+02 -0.10334490114E+02  0.18497210188E+02  0.25276153550E+02  0.00000000000E+00 0.  1.
         14    1    6    6    0    0 -0.11065642893E+03 -0.10267119958E+03  0.10271844780E+03  0.18258504869E+03  0.00000000000E+00 0. -1.
         -5    1    3    3    0  503  0.72038713398E+02  0.22686635135E+02 -0.36663294100E+02  0.84086543371E+02  0.47000000000E+01 0.  1.
         11    1    4    4    0    0  0.31563554243E+02  0.15238864052E+02  0.93937939006E+01  0.36286695880E+02  0.00000000000E+00 0. -1.
        -12    1    4    4    0    0 -0.35494863251E+02  0.48417010607E+02  0.62312548533E+02  0.86527139892E+02  0.00000000000E+00 0.  1.
</event>
<event>
12    1  0.8633375E-002  0.3102113E+03  0.7818608E-02  0.1080335E+00
         21   -1    0    0  503  502  0.00000000000E+00  0.00000000000E+00  0.77501565008E+03  0.77501565008E+03  0.00000000000E+00 0. -1.
         21   -1    0    0  501  503 -0.00000000000E+00 -0.00000000000E+00 -0.16247187272E+03  0.16247187272E+03  0.00000000000E+00 0.  1.
          6    2    1    2  501    0 -0.45654655580E+02 -0.25336762395E+03  0.53448354512E+03  0.61760558424E+03  0.17171050417E+03 0.  0.
         24    2    3    3    0    0 -0.65998880713E+02 -0.12510385759E+03  0.19248186927E+03  0.25174670771E+03  0.79500361027E+02 0.  0.
         -6    2    1    2    0  502  0.45654655580E+02  0.25336762395E+03  0.78060232237E+02  0.31988193856E+03  0.17306517361E+03 0.  0.
        -24    2    5    5    0    0  0.18524025550E+02  0.47387267752E+02  0.59366620326E+02  0.11123026866E+03  0.79114375365E+02 0.  0.
          5    1    3    3  501    0  0.20344225133E+02 -0.12826376636E+03  0.34200167585E+03  0.36585887654E+03  0.47000000000E+01 0. -1.
        -13    1    4    4    0    0 -0.10479897015E+02  0.10492686319E+02  0.26316219953E+02  0.30207087583E+02  0.00000000000E+00 0.  1.
         14    1    4    4    0    0 -0.55518983698E+02 -0.13559654391E+03  0.16616564932E+03  0.22153962012E+03  0.00000000000E+00 0. -1.
         -5    1    5    5    0  502  0.27130630030E+02  0.20598035620E+03  0.18693611910E+02  0.20865166990E+03  0.47000000000E+01 0.  1.
         11    1    6    6    0    0 -0.26614715622E+02  0.20645400401E+02  0.23762993662E+01  0.33767179984E+02  0.00000000000E+00 0. -1.
        -12    1    6    6    0    0  0.45138741172E+02  0.26741867350E+02  0.56990320960E+02  0.77463088675E+02  0.00000000000E+00 0.  1.
</event>
<event>
12    1  0.8633375E-002  0.2405801E+03  0.7818608E-02  0.1119573E+00
         21   -1    0    0  501  502  0.00000000000E+00  0.00000000000E+00  0.87011224975E+02  0.87011224975E+02  0.00000000000E+00 0.  1.
         21   -1    0    0  502  503 -0.00000000000E+00 -0.00000000000E+00 -0.67435221167E+03  0.67435221167E+03  0.00000000000E+00 0.  1.
         -6    2    1    2    0  503 -0.50644102410E+01  0.16590769651E+03 -0.34368627027E+03  0.41895084305E+03  0.17276731320E+03 0.  0.
        -24    2    3    3    0    0  0.85010548999E+01  0.14184002267E+03 -0.14648121394E+03  0.21976450062E+03  0.81540356449E+02 0.  0.
          6    2    1    2  501    0  0.50644102410E+01 -0.16590769651E+03 -0.24365471643E+03  0.34241259360E+03  0.17414864744E+03 0.  0.
         24    2    5    5    0    0  0.86605757781E+00 -0.51683246191E+02 -0.19565119719E+03  0.21835099972E+03  0.82011341449E+02 0.  0.
          5    1    5    5  501    0  0.41983526632E+01 -0.11422445032E+03 -0.48003519242E+02  0.12406159388E+03  0.47000000000E+01 0. -1.
        -11    1    6    6    0    0  0.28318896581E+02 -0.55539724706E+02 -0.16800675715E+03  0.17920070138E+03  0.00000000000E+00 0.  1.
         12    1    6    6    0    0 -0.27452839003E+02  0.38564785150E+01 -0.27644440031E+02  0.39150298345E+02  0.00000000000E+00 0. -1.
         -5    1    3    3    0  503 -0.13565465141E+02  0.24067673835E+02 -0.19720505633E+03  0.19918634243E+03  0.47000000000E+01 0.  1.
         11    1    4    4    0    0  0.32543209835E+02  0.35016653554E+02 -0.18309810861E+02  0.51190582203E+02  0.00000000000E+00 0. -1.
        -12    1    4    4    0    0 -0.24042154935E+02  0.10682336912E+03 -0.12817140308E+03  0.16857391842E+03  0.00000000000E+00 0.  1.
</event>
<event>
12    1  0.8633375E-002  0.1739558E+03  0.7818608E-02  0.1174083E+00
         21   -1    0    0  501  502  0.00000000000E+00  0.00000000000E+00  0.95342178563E+03  0.95342178563E+03  0.00000000000E+00 0.  1.
         21   -1    0    0  502  503 -0.00000000000E+00 -0.00000000000E+00 -0.34750079268E+02  0.34750079268E+02  0.00000000000E+00 0.  1.
         -6    2    1    2    0  503 -0.30323781414E+02 -0.14965865128E+02  0.30738501844E+03  0.35261538083E+03  0.16943597138E+03 0.  0.
        -24    2    3    3    0    0 -0.37767843136E+02  0.52090595696E+02  0.12147137969E+03  0.15478223379E+03  0.71150570471E+02 0.  0.
          6    2    1    2  501    0  0.30323781414E+02  0.14965865128E+02  0.61128668793E+03  0.63555648407E+03  0.17063739560E+03 0.  0.
         24    2    5    5    0    0  0.37825266639E+02  0.64636168574E+02  0.51920584844E+03  0.53055942542E+03  0.79435544736E+02 0.  0.
          5    1    5    5  501    0 -0.75014852257E+01 -0.49670303446E+02  0.92080839490E+02  0.10499705866E+03  0.47000000000E+01 0. -1.
        -13    1    6    6    0    0 -0.15276614712E+02  0.22548794056E+01  0.21380210324E+03  0.21435904177E+03  0.00000000000E+00 0.  1.
         14    1    6    6    0    0  0.53101881351E+02  0.62381289169E+02  0.30540374520E+03  0.31620038365E+03  0.00000000000E+00 0. -1.
         -5    1    3    3    0  503  0.74440617226E+01 -0.67056460825E+02  0.18591363874E+03  0.19783314703E+03  0.47000000000E+01 0.  1.
         11    1    4    4    0    0 -0.12662492408E+02 -0.37191755184E+01  0.79470897345E+02  0.80559260829E+02  0.00000000000E+00 0. -1.
        -12    1    4    4    0    0 -0.25105350728E+02  0.55809771215E+02  0.42000482350E+02  0.74222972965E+02  0.00000000000E+00 0.  1.
</event>
<event>
12    1  0.8633375E-002  0.1822027E+03  0.7818608E-02  0.1166230E+00
         21   -1    0    0  501  502  0.00000000000E+00  0.00000000000E+00  0.18099074520E+03  0.18099074520E+03  0.00000000000E+00 0. -1.
         21   -1    0    0  502  503 -0.00000000000E+00 -0.00000000000E+00 -0.18147188521E+03  0.18147188521E+03  0.00000000000E+00 0. -1.
         -6    2    1    2    0  503 -0.45389981490E+02 -0.32280235831E+02 -0.78292392444E+01  0.18011184164E+03  0.17110439640E+03 0.  0.
        -24    2    3    3    0    0 -0.77222163849E+02 -0.68139916367E+02 -0.32592494157E+02  0.12594069327E+03  0.64749337869E+02 0.  0.
          6    2    1    2  501    0  0.45389981490E+02  0.32280235831E+02  0.73480992405E+01  0.18235078877E+03  0.17348069506E+03 0.  0.
         24    2    5    5    0    0  0.22367617717E+02 -0.47501185579E+02  0.15294685788E+02  0.98802343698E+02  0.82287925925E+02 0.  0.
          5    1    5    5  501    0  0.23022363773E+02  0.79781421411E+02 -0.79465865471E+01  0.83548445071E+02  0.47000000000E+01 0. -1.
        -13    1    6    6    0    0 -0.13782343642E+02 -0.23958889975E+02  0.40353803236E+02  0.48912276993E+02  0.00000000000E+00 0.  1.
         14    1    6    6    0    0  0.36149961358E+02 -0.23542295605E+02 -0.25059117448E+02  0.49890066705E+02  0.00000000000E+00 0. -1.
         -5    1    3    3    0  503  0.31832182359E+02  0.35859680536E+02  0.24763254913E+02  0.54171148370E+02  0.47000000000E+01 0.  1.
         11    1    4    4    0    0 -0.54800678789E+02 -0.63800884883E+01 -0.21966797385E+02  0.59383163542E+02  0.00000000000E+00 0. -1.
        -12    1    4    4    0    0 -0.22421485059E+02 -0.61759827879E+02 -0.10625696773E+02  0.66557529730E+02  0.00000000000E+00 0.  1.
</event>
<event>
12    1  0.8633375E-002  0.2051674E+03  0.7818608E-02  0.1145492E+00
         21   -1    0    0  503  502  0.00000000000E+00  0.00000000000E+00  0.13901590078E+04  0.13901590078E+04  0.00000000000E+00 0.  1.
         21   -1    0    0  501  503 -0.00000000000E+00 -0.00000000000E+00 -0.48800259117E+02  0.48800259117E+02  0.00000000000E+00 0.  1.
          6    2    1    2  501    0  0.96912062321E+01 -0.11130509887E+03  0.22688633871E+03  0.30575919144E+03  0.17183866837E+03 0.  0.
         24    2    3    3    0    0  0.48778102218E+02 -0.20947571994E+02  0.68431454374E+02  0.11915182698E+03  0.81830250502E+02 0.  0.
         -6    2    1    2    0  502 -0.96912062321E+01  0.11130509887E+03  0.11144724100E+04  0.11332000755E+04  0.17207822044E+03 0.  0.
        -24    2    5    5    0    0  0.52128577429E+02  0.57253263246E+02  0.43356164359E+03  0.44733941297E+03  0.78367894391E+02 0.  0.
          5    1    3    3  501    0 -0.39086895986E+02 -0.90357526874E+02  0.15845488434E+03  0.18660736446E+03  0.47000000000E+01 0. -1.
        -13    1    4    4    0    0  0.21963900356E+02 -0.40297206138E+02  0.72531572922E+02  0.85831851966E+02  0.00000000000E+00 0.  1.
         14    1    4    4    0    0  0.26814201862E+02  0.19349634144E+02 -0.41001185481E+01  0.33319975017E+02  0.00000000000E+00 0. -1.
         -5    1    5    5    0  502 -0.61819783661E+02  0.54051835622E+02  0.68091076639E+03  0.68586066250E+03  0.47000000000E+01 0.  1.
         13    1    6    6    0    0  0.17031485908E+02  0.50037758748E+02  0.11265662664E+03  0.12444020387E+03  0.00000000000E+00 0. -1.
        -14    1    6    6    0    0  0.35097091521E+02  0.72155044977E+01  0.32090501695E+03  0.32289920911E+03  0.00000000000E+00 0.  1.
</event>
<event>
12    1  0.8633375E-002  0.2239389E+03  0.7818608E-02  0.1131114E+00
         21   -1    0    0  503  502  0.00000000000E+00  0.00000000000E+00  0.10260308428E+03  0.10260308428E+03  0.00000000000E+00 0. -1.
         21   -1    0    0  501  503 -0.00000000000E+00 -0.00000000000E+00 -0.48996008734E+03  0.48996008734E+03  0.00000000000E+00 0.  1.
          6    2    1    2  501    0 -0.13356488076E+03 -0.49481797074E+02 -0.17097821524E+03  0.28116564076E+03  0.17185034724E+03 0.  0.
         24    2    3    3    0    0 -0.28573264187E+02  0.12238571173E+02 -0.21319325396E+02  0.88156530317E+02  0.79692196303E+02 0.  0.
         -6    2    1    2    0  502  0.13356488076E+03  0.49481797074E+02 -0.21637878782E+03  0.31139753086E+03  0.17280224765E+03 0.  0.
        -24    2    5    5    0    0  0.14698180288E+03  0.83292427113E+02 -0.19560005655E+03  0.26924283745E+03  0.75439012499E+02 0.  0.
          5    1    3    3  501    0 -0.10499161657E+03 -0.61720368247E+02 -0.14965888984E+03  0.19300911045E+03  0.47000000000E+01 0. -1.
        -13    1    4    4    0    0 -0.11468545744E+02 -0.15645516609E+02  0.24879826483E+02  0.31548621163E+02  0.00000000000E+00 0.  1.
         14    1    4    4    0    0 -0.17104718443E+02  0.27884087782E+02 -0.46199151879E+02  0.56607909154E+02  0.00000000000E+00 0. -1.
         -5    1    5    5    0  502 -0.13416922122E+02 -0.33810630039E+02 -0.20778731278E+02  0.42154693409E+02  0.47000000000E+01 0.  1.
         13    1    6    6    0    0  0.31005668287E+02  0.52461682879E+02 -0.40633797777E+02  0.73244011074E+02  0.00000000000E+00 0. -1.
        -14    1    6    6    0    0  0.11597613459E+03  0.30830744233E+02 -0.15496625877E+03  0.19599882638E+03  0.00000000000E+00 0.  1.
</event>
<event>
12    1  0.8633375E-002  0.1841150E+03  0.7818608E-02  0.1164455E+00
         21   -1    0    0  501  502  0.00000000000E+00  0.00000000000E+00  0.30122368905E+03  0.30122368905E+03  0.00000000000E+00 0.  1.
         21   -1    0    0  502  503 -0.00000000000E+00 -0.00000000000E+00 -0.15225704172E+04  0.15225704172E+04  0.00000000000E+00 0.  1.
         -6    2    1    2    0  503  0.50071082520E+02 -0.29924255577E+02 -0.14883874424E+04  0.14994345988E+04  0.17205918404E+03 0.  0.
        -24    2    3    3    0    0  0.66750290744E+02  0.31491903756E+02 -0.84922396455E+03  0.85709342612E+03  0.89333408210E+02 0.  0.
          6    2    1    2  501    0 -0.50071082520E+02  0.29924255577E+02  0.26704071432E+03  0.32435950743E+03  0.17463038848E+03 0.  0.
         24    2    5    5    0    0 -0.12709334083E+02 -0.35173042247E+02  0.67277278745E+02  0.11090909487E+03  0.79849389573E+02 0.  0.
          5    1    5    5  501    0 -0.37361748437E+02  0.65097297824E+02  0.19976343558E+03  0.21345041257E+03  0.47000000000E+01 0. -1.
        -11    1    6    6    0    0 -0.37691067879E+02  0.75352587843E+01  0.25228024021E+02  0.45976623612E+02  0.00000000000E+00 0.  1.
         12    1    6    6    0    0  0.24981733796E+02 -0.42708301031E+02  0.42049254724E+02  0.64932471255E+02  0.00000000000E+00 0. -1.
         -5    1    3    3    0  503 -0.16679208224E+02 -0.61416159333E+02 -0.63916347788E+03  0.64234117264E+03  0.47000000000E+01 0.  1.
         13    1    4    4    0    0  0.83894278534E+02  0.88703332919E+01 -0.71084172378E+03  0.71583020965E+03  0.00000000000E+00 0. -1.
        -14    1    4    4    0    0 -0.17143987790E+02  0.22621570464E+02 -0.13838224077E+03  0.14126321647E+03  0.00000000000E+00 0.  1.
</event>
<event>
12    1  0.8633375E-002  0.1821633E+03  0.7818608E-02  0.1165934E+00
         21   -1    0    0  501  502  0.00000000000E+00  0.00000000000E+00  0.23833607548E+03  0.23833607548E+03  0.00000000000E+00 0. -1.
         21   -1    0    0  502  503 -0.00000000000E+00 -0.00000000000E+00 -0.14029464279E+03  0.14029464279E+03  0.00000000000E+00 0. -1.
         -6    2    1    2    0  503 -0.36352384589E+02 -0.48475275634E+02  0.28108532353E+02  0.18431914812E+03  0.17179089196E+03 0.  0.
        -24    2    3    3    0    0 -0.39877003504E+02  0.47257446624E+01 -0.39696899218E+02  0.97933743978E+02  0.80016662833E+02 0.  0.
          6    2    1    2  501    0  0.36352384589E+02  0.48475275634E+02  0.69932900335E+02  0.19431157014E+03  0.17086552469E+03 0.  0.
         24    2    5    5    0    0  0.13379232740E+01  0.67573949281E+02 -0.91450199695E+01  0.10562008624E+03  0.80647024543E+02 0.  0.
          5    1    5    5  501    0  0.35014461315E+02 -0.19098673647E+02  0.79077920305E+02  0.88691483897E+02  0.47000000000E+01 0. -1.
        -13    1    6    6    0    0  0.37836242805E+02  0.52792391922E+02  0.99137833161E+00  0.64958453995E+02  0.00000000000E+00 0.  1.
         14    1    6    6    0    0 -0.36498319531E+02  0.14781557359E+02 -0.10136398301E+02  0.40661632248E+02  0.00000000000E+00 0. -1.
         -5    1    3    3    0  503  0.35246189150E+01 -0.53201020297E+02  0.67805431570E+02  0.86385404146E+02  0.47000000000E+01 0.  1.
         11    1    4    4    0    0 -0.94101847281E+01  0.41043836655E+02 -0.19531887379E+02  0.46418129309E+02  0.00000000000E+00 0. -1.
        -12    1    4    4    0    0 -0.30466818776E+02 -0.36318091992E+02 -0.20165011839E+02  0.51515614669E+02  0.00000000000E+00 0.  1.
</event>
<event>
12    1  0.8633375E-002  0.1942252E+03  0.7818608E-02  0.1154784E+00
         21   -1    0    0  503  502  0.00000000000E+00  0.00000000000E+00  0.10596786581E+03  0.10596786581E+03  0.00000000000E+00 0. -1.
         21   -1    0    0  501  503 -0.00000000000E+00 -0.00000000000E+00 -0.40270093177E+03  0.40270093177E+03  0.00000000000E+00 0.  1.
          6    2    1    2  501    0 -0.46366398714E+02  0.75542275976E+02 -0.23572521863E+03  0.30543383091E+03  0.17282062371E+03 0.  0.
         24    2    3    3    0    0  0.35669086005E+02  0.10738467921E+02 -0.81132137353E+02  0.11875103827E+03  0.78305727685E+02 0.  0.
         -6    2    1    2    0  502  0.46366398714E+02 -0.75542275976E+02 -0.61007847335E+02  0.20323496667E+03  0.17241234251E+03 0.  0.
        -24    2    5    5    0    0  0.50593107040E+02 -0.11702987052E+02  0.22393595020E+02  0.98015146953E+02  0.80055440467E+02 0.  0.
          5    1    3    3  501    0 -0.82035484718E+02  0.64803808056E+02 -0.15459308127E+03  0.18668279264E+03  0.47000000000E+01 0. -1.
        -13    1    4    4    0    0  0.28127866386E+02  0.44063810020E+02 -0.53592038102E+02  0.74865898571E+02  0.00000000000E+00 0.  1.
         14    1    4    4    0    0  0.75412196182E+01 -0.33325342099E+02 -0.27540099252E+02  0.43885139696E+02  0.00000000000E+00 0. -1.
         -5    1    5    5    0  502 -0.42267083265E+01 -0.63839288924E+02 -0.83401442354E+02  0.10521981971E+03  0.47000000000E+01 0.  1.
         11    1    6    6    0    0  0.35854741665E+02 -0.43907359993E+02  0.26096354894E+02  0.62405436463E+02  0.00000000000E+00 0. -1.
        -12    1    6    6    0    0  0.14738365375E+02  0.32204372941E+02 -0.37027598743E+01  0.35609710490E+02  0.00000000000E+00 0.  1.
</event>
<event>
12    1  0.8633375E-002  0.1759567E+03  0.7818608E-02  0.1172232E+00
         21   -1    0    0  501  502  0.00000000000E+00  0.00000000000E+00  0.27211838186E+03  0.27211838186E+03  0.00000000000E+00 0.  1.
         21   -1    0    0  502  503 -0.00000000000E+00 -0.00000000000E+00 -0.13175703829E+03  0.13175703829E+03  0.00000000000E+00 0. -1.
         -6    2    1    2    0  503 -0.12693796899E+02 -0.26609851519E+02 -0.65067572047E+01  0.17607699550E+03  0.17346917241E+03 0.  0.
        -24    2    3    3    0    0  0.45498494883E+02 -0.30153225145E+02  0.36888564363E+02  0.10324745305E+03  0.79498052538E+02 0.  0.
          6    2    1    2  501    0  0.12693796899E+02  0.26609851519E+02  0.14686810078E+03  0.22779842465E+03  0.17161779211E+03 0.  0.
         24    2    5    5    0    0 -0.59147660450E+02  0.17845502482E+02  0.89060164908E+02  0.13505223196E+03  0.80563544421E+02 0.  0.
          5    1    5    5  501    0  0.71841457349E+02  0.87643490373E+01  0.57807935872E+02  0.92746192686E+02  0.47000000000E+01 0. -1.
        -13    1    6    6    0    0 -0.19164276407E+02  0.13788670728E+02  0.91783553074E+02  0.94771396242E+02  0.00000000000E+00 0.  1.
         14    1    6    6    0    0 -0.39983384043E+02  0.40568317539E+01 -0.27233881665E+01  0.40280835723E+02  0.00000000000E+00 0. -1.
         -5    1    3    3    0  503 -0.58192291782E+02  0.35433736255E+01 -0.43395321568E+02  0.72829542450E+02  0.47000000000E+01 0.  1.
         13    1    4    4    0    0 -0.20313603884E+01  0.18412907863E+01 -0.21364504872E+02  0.21539703926E+02  0.00000000000E+00 0. -1.
        -14    1    4    4    0    0  0.47529855271E+02 -0.31994515931E+02  0.58253069235E+02  0.81707749125E+02  0.00000000000E+00 0.  1.
</event>
<event>
12    1  0.8633375E-002  0.1750313E+03  0.7818608E-02  0.1173124E+00
         21   -1    0    0  503  502  0.00000000000E+00  0.00000000000E+00  0.86240230531E+03  0.86240230531E+03  0.00000000000E+00 0. -1.
         21   -1    0    0  501  503 -0.00000000000E+00 -0.00000000000E+00 -0.45512366660E+02  0.45512366660E+02  0.00000000000E+00 0. -1.
          6    2    1    2  501    0  0.11618315850E+02 -0.17569642887E+02  0.19371251341E+03  0.26107563945E+03  0.17375924161E+03 0.  0.
         24    2    3    3    0    0 -0.10742915359E+02 -0.52215642385E+02  0.19750868947E+03  0.21939985637E+03  0.79276295451E+02 0.  0.
         -6    2    1    2    0  502 -0.11618315850E+02  0.17569642887E+02  0.62317742524E+03  0.64683903252E+03  0.17206671106E+03 0.  0.
        -24    2    5    5    0    0 -0.29401589722E+02  0.24082898970E+02  0.62079917022E+03  0.62718163108E+03  0.80751155579E+02 0.  0.
          5    1    3    3  501    0  0.22361231209E+02  0.34645999498E+02 -0.37961760550E+01  0.41675783076E+02  0.47000000000E+01 0. -1.
        -13    1    4    4    0    0 -0.12318714126E+02 -0.17798287520E+01  0.14862117805E+03  0.14914145324E+03  0.00000000000E+00 0.  1.
         14    1    4    4    0    0  0.15757987673E+01 -0.50435813633E+02  0.48887511417E+02  0.70258403135E+02  0.00000000000E+00 0. -1.
         -5    1    5    5    0  502  0.17783273872E+02 -0.65132560830E+01  0.23782550226E+01  0.19657401440E+02  0.47000000000E+01 0.  1.
         11    1    6    6    0    0  0.94482840830E+01 -0.18382334666E+02  0.33543426387E+03  0.33607041774E+03  0.00000000000E+00 0. -1.
        -12    1    6    6    0    0 -0.38849873805E+02  0.42465233637E+02  0.28536490634E+03  0.29111121335E+03  0.00000000000E+00 0.  1.
</event>
<event>
12    1  0.8633375E-002  0.2956239E+03  0.7818608E-02  0.1087474E+00
         21   -1    0    0  503  502  0.00000000000E+00  0.00000000000E+00  0.90914897054E+02  0.90914897054E+02  0.00000000000E+00 0. -1.
         21   -1    0    0  501  503 -0.00000000000E+00 -0.00000000000E+00 -0.10812156866E+04  0.10812156866E+04  0.00000000000E+00 0.  1.
          6    2    1    2  501    0 -0.10758769314E+03 -0.21444676647E+03 -0.29928691671E+03  0.42053649172E+03  0.17238258321E+03 0.  0.
         24    2    3    3    0    0 -0.70100224097E+02 -0.41634565273E+02 -0.15865827006E+03  0.19455447147E+03  0.77662843549E+02 0.  0.
         -6    2    1    2    0  502  0.10758769314E+03  0.21444676647E+03 -0.69101387282E+03  0.75159409191E+03  0.17271647055E+03 0.  0.
        -24    2    5    5    0    0 -0.13959256614E+02  0.51476092785E+02 -0.22703136152E+03  0.24500257771E+03  0.75089113682E+02 0.  0.
          5    1    3    3  501    0 -0.37487469040E+02 -0.17281220120E+03 -0.14062864665E+03  0.22598202025E+03  0.47000000000E+01 0. -1.
        -13    1    4    4    0    0 -0.44041724100E+02 -0.28587107460E+02 -0.15679462790E+03  0.16535250682E+03  0.00000000000E+00 0.  1.
         14    1    4    4    0    0 -0.26058499996E+02 -0.13047457813E+02 -0.18636421624E+01  0.29201964652E+02  0.00000000000E+00 0. -1.
         -5    1    5    5    0  502  0.12154694975E+03  0.16297067369E+03 -0.46398251130E+03  0.50659151421E+03  0.47000000000E+01 0.  1.
         13    1    6    6    0    0 -0.43205581420E+02  0.41061003015E+02 -0.16876512747E+03  0.17898155348E+03  0.00000000000E+00 0. -1.
        -14    1    6    6    0    0  0.29246324807E+02  0.10415089770E+02 -0.58266234050E+02  0.66021024227E+02  0.00000000000E+00 0.  1.
</event>
<event>
12    1  0.8633375E-002  0.2777082E+03  0.7818608E-02  0.1097138E+00
         21   -1    0    0  503  502  0.00000000000E+00  0.00000000000E+00  0.96623941293E+03  0.96623941293E+03  0.00000000000E+00 0.  1.
         21   -1    0    0  501  503 -0.00000000000E+00 -0.00000000000E+00 -0.35605083088E+03  0.35605083088E+03  0.00000000000E+00 0.  1.
          6    2    1    2  501    0  0.27643409131E+02  0.21410875567E+03 -0.27783519372E+03  0.39185589950E+03  0.17248748877E+03 0.  0.
         24    2    3    3    0    0 -0.49033567164E+02  0.14501432152E+03 -0.16293028297E+03  0.23732878849E+03  0.79656968188E+02 0.  0.
         -6    2    1    2    0  502 -0.27643409131E+02 -0.21410875567E+03  0.88802377577E+03  0.93043434430E+03  0.17468579052E+03 0.  0.
        -24    2    5    5    0    0 -0.71911095188E+02 -0.95321485293E+02  0.57744861728E+03  0.59495101729E+03  0.79135429561E+02 0.  0.
          5    1    3    3  501    0  0.76676976295E+02  0.69094434145E+02 -0.11490491075E+03  0.15452711101E+03  0.47000000000E+01 0. -1.
        -11    1    4    4    0    0 -0.35983065356E+02  0.15285172192E+03 -0.15235285735E+03  0.21879173437E+03  0.00000000000E+00 0.  1.
         12    1    4    4    0    0 -0.13050501808E+02 -0.78374004013E+01 -0.10577425623E+02  0.18537054116E+02  0.00000000000E+00 0. -1.
         -5    1    5    5    0  502  0.44267686057E+02 -0.11878727037E+03  0.31057515849E+03  0.33548332701E+03  0.47000000000E+01 0.  1.
         13    1    6    6    0    0 -0.73326347414E+02 -0.55050559627E+02  0.27626187273E+03  0.29108064117E+03  0.00000000000E+00 0. -1.
        -14    1    6    6    0    0  0.14152522259E+01 -0.40270925666E+02  0.30118674455E+03  0.30387037612E+03  0.00000000000E+00 0.  1.
</event>
<event>
12    1  0.8633375E-002  0.3192369E+03  0.7818608E-02  0.1076103E+00
         21   -1    0    0  501  502  0.00000000000E+00  0.00000000000E+00  0.54205202700E+03  0.54205202700E+03  0.00000000000E+00 0.  1.
         21   -1    0    0  502  503 -0.00000000000E+00 -0.00000000000E+00 -0.35476877241E+03  0.35476877241E+03  0.00000000000E+00 0. -1.
         -6    2    1    2    0  503  0.25290178446E+03  0.91292854634E+02 -0.21419503695E+03  0.38443686413E+03  0.17210023464E+03 0.  0.
        -24    2    3    3    0    0  0.15683488794E+03  0.12411346480E+03 -0.12372860237E+03  0.24837692572E+03  0.79881136462E+02 0.  0.
          6    2    1    2  501    0 -0.25290178446E+03 -0.91292854634E+02  0.40147829153E+03  0.51238393527E+03  0.17046636227E+03 0.  0.
         24    2    5    5    0    0 -0.19595902985E+03 -0.54080779986E+02  0.37976046158E+03  0.44082298265E+03  0.93713508711E+02 0.  0.
          5    1    5    5  501    0 -0.56942754609E+02 -0.37212074647E+02  0.21717829956E+02  0.71560952621E+02  0.47000000000E+01 0. -1.
        -11    1    6    6    0    0 -0.13088334755E+02 -0.20425101250E+02  0.11349691466E+03  0.11606049675E+03  0.00000000000E+00 0.  1.
         12    1    6    6    0    0 -0.18287069509E+03 -0.33655678736E+02  0.26626354692E+03  0.32476248590E+03  0.00000000000E+00 0. -1.
         -5    1    3    3    0  503  0.96066896514E+02 -0.32820610164E+02 -0.90466434574E+02  0.13605993842E+03  0.47000000000E+01 0.  1.
         11    1    4    4    0    0  0.61394694358E+02  0.38873950660E+01 -0.41837399963E+02  0.74396158310E+02  0.00000000000E+00 0. -1.
        -12    1    4    4    0    0  0.95440193585E+02  0.12022606973E+03 -0.81891202411E+02  0.17398076741E+03  0.00000000000E+00 0.  1.
</event>
<event>
12    1  0.8633375E-002  0.1785134E+03  0.7818608E-02  0.1169943E+00
         21   -1    0    0  503  502  0.00000000000E+00  0.00000000000E+00  0.19896639557E+02  0.19896639557E+02  0.00000000000E+00 0.  1.
         21   -1    0    0  501  503 -0.00000000000E+00 -0.00000000000E+00 -0.15779283413E+04  0.15779283413E+04  0.00000000000E+00 0. -1.
          6    2    1    2  501    0  0.48535301481E+02  0.25578903543E+01 -0.80918423129E+03  0.82864115754E+03  0.17176969902E+03 0.  0.
         24    2    3    3    0    0  0.66035817813E+02 -0.51454155793E+02 -0.63209211449E+03  0.64261084540E+03  0.79999987760E+02 0.  0.
         -6    2    1    2    0  502 -0.48535301481E+02 -0.25578903543E+01 -0.74884747041E+03  0.76918382327E+03  0.16884608897E+03 0.  0.
        -24    2    5    5    0    0 -0.23868127506E+02  0.61736018893E+02 -0.51833681069E+03  0.52856081839E+03  0.79513935124E+02 0.  0.
          5    1    3    3  501    0 -0.17500516332E+02  0.54012046147E+02 -0.17709211680E+03  0.18603031214E+03  0.47000000000E+01 0. -1.
        -13    1    4    4    0    0  0.28164078963E+02  0.83698402927E+01 -0.67779694601E+02  0.73873923481E+02  0.00000000000E+00 0.  1.
         14    1    4    4    0    0  0.37871738850E+02 -0.59823996085E+02 -0.56431241989E+03  0.56873692192E+03  0.00000000000E+00 0. -1.
         -5    1    5    5    0  502 -0.24667173975E+02 -0.64293909247E+02 -0.23051065972E+03  0.24062300489E+03  0.47000000000E+01 0.  1.
         13    1    6    6    0    0  0.18931941780E+02  0.24911435409E+02 -0.34146912418E+03  0.34289963663E+03  0.00000000000E+00 0. -1.
        -14    1    6    6    0    0 -0.42800069286E+02  0.36824583484E+02 -0.17686768650E+03  0.18566118175E+03  0.00000000000E+00 0.  1.
</event>
<event>
12    1  0.8633375E-002  0.1751059E+03  0.7818608E-02  0.1172649E+00
         21   -1    0    0  501  502  0.00000000000E+00  0.00000000000E+00  0.24969955801E+02  0.24969955801E+02  0.00000000000E+00 0. -1.
         21   -1    0    0  502  503 -0.00000000000E+00 -0.00000000000E+00 -0.12728562437E+04  0.12728562437E+04  0.00000000000E+00 0. -1.
         -6    2    1    2    0  503 -0.17875524000E+02  0.26716726570E+02 -0.74688616844E+03  0.76713819561E+03  0.17213002270E+03 0.  0.
        -24    2    3    3    0    0  0.43607921813E+02  0.55122907487E+02 -0.49542656807E+03  0.50667486643E+03  0.79572295153E+02 0.  0.
          6    2    1    2  501    0  0.17875524000E+02 -0.26716726570E+02 -0.50100011949E+03  0.53068800393E+03  0.17203290367E+03 0.  0.
         24    2    5    5    0    0  0.26673128951E+01  0.50795329742E+02 -0.22950573887E+03  0.24789709660E+03  0.78694385098E+02 0.  0.
          5    1    5    5  501    0  0.15208211105E+02 -0.77512056313E+02 -0.27149438062E+03  0.28279090733E+03  0.47000000000E+01 0. -1.
        -11    1    6    6    0    0 -0.24775666791E+02  0.68281662398E+00 -0.23644660666E+02  0.34254487027E+02  0.00000000000E+00 0.  1.
         12    1    6    6    0    0  0.27442979686E+02  0.50112513118E+02 -0.20586107821E+03  0.21364260957E+03  0.00000000000E+00 0. -1.
         -5    1    3    3    0  503 -0.61483445813E+02 -0.28406180917E+02 -0.25145960038E+03  0.26046332918E+03  0.47000000000E+01 0.  1.
         11    1    4    4    0    0  0.33526951282E+02  0.73958143805E+02 -0.43664826327E+03  0.44413462971E+03  0.00000000000E+00 0. -1.
        -12    1    4    4    0    0  0.10080970531E+02 -0.18835236317E+02 -0.58778304799E+02  0.62540236720E+02  0.00000000000E+00 0.  1.
</event>
<event>
12    1  0.8633375E-002  0.2298388E+03  0.7818608E-02  0.1126881E+00
         21   -1    0    0  503  502  0.00000000000E+00  0.00000000000E+00  0.89188190430E+03  0.89188190430E+03  0.00000000000E+00 0. -1.
         21   -1    0    0  501  503 -0.00000000000E+00 -0.00000000000E+00 -0.61432936512E+02  0.61432936512E+02  0.00000000000E+00 0. -1.
          6    2    1    2  501    0  0.14143252616E+03  0.57429600630E+02  0.50985794832E+03  0.55926826174E+03  0.17182707189E+03 0.  0.
         24    2    3    3    0    0  0.63413886631E+02  0.54333092190E+02  0.43782852576E+03  0.45293471015E+03  0.80514767367E+02 0.  0.
         -6    2    1    2    0  502 -0.14143252616E+03 -0.57429600630E+02  0.32059101946E+03  0.39404657907E+03  0.17085896592E+03 0.  0.
        -24    2    5    5    0    0 -0.82872288079E+02  0.31510757018E+02  0.10540372702E+03  0.15390630854E+03  0.68676503983E+02 0.  0.
          5    1    3    3  501    0  0.78018639530E+02  0.30965084400E+01  0.72029422566E+02  0.10633355159E+03  0.47000000000E+01 0. -1.
        -11    1    4    4    0    0 -0.21168762759E+01  0.45434971343E+02  0.12073542338E+03  0.12901883679E+03  0.00000000000E+00 0.  1.
         12    1    4    4    0    0  0.65530762907E+02  0.88981208472E+01  0.31709310237E+03  0.32391587336E+03  0.00000000000E+00 0. -1.
         -5    1    5    5    0  502 -0.58560238082E+02 -0.88940357648E+02  0.21518729244E+03  0.24014027053E+03  0.47000000000E+01 0.  1.
         11    1    6    6    0    0 -0.26781937979E+02  0.24778379336E+02  0.87244369195E+02  0.94566485822E+02  0.00000000000E+00 0. -1.
        -12    1    6    6    0    0 -0.56090350100E+02  0.67323776823E+01  0.18159357825E+02  0.59339822719E+02  0.00000000000E+00 0.  1.
</event>
<event>
12    1  0.8633375E-002  0.2483237E+03  0.7818608E-02  0.1114409E+00
         21   -1    0    0  501  502  0.00000000000E+00  0.00000000000E+00  0.63232891823E+03  0.63232891823E+03  0.00000000000E+00 0.  1.
         21   -1    0    0  502  503 -0.00000000000E+00 -0.00000000000E+00 -0.17981439895E+03  0.17981439895E+03  0.00000000000E+00 0. -1.
         -6    2    1    2    0  503 -0.15018120645E+03 -0.98598876516E+02 -0.48682199806E+02  0.25280190035E+03  0.17106347074E+03 0.  0.
        -24    2    3    3    0    0 -0.65330660190E+02 -0.64340846765E+02 -0.95452176297E+02  0.14992941373E+03  0.70426354570E+02 0.  0.
          6    2    1    2  501    0  0.15018120645E+03  0.98598876516E+02  0.50119671909E+03  0.55934141683E+03  0.17143084942E+03 0.  0.
         24    2    5    5    0    0  0.14507014236E+03  0.79283745535E+02  0.50587302354E+03  0.53829016783E+03  0.80731222754E+02 0.  0.
          5    1    5    5  501    0  0.51110640825E+01  0.19315130981E+02 -0.46763044535E+01  0.21051248994E+02  0.47000000000E+01 0. -1.
        -13    1    6    6    0    0  0.28425711642E+02 -0.13855736377E+02  0.56149898749E+02  0.64442328034E+02  0.00000000000E+00 0.  1.
         14    1    6    6    0    0  0.11664443072E+03  0.93139481912E+02  0.44972312479E+03  0.47384783980E+03  0.00000000000E+00 0. -1.
         -5    1    3    3    0  503 -0.84850546257E+02 -0.34258029751E+02  0.46769976491E+02  0.10287248662E+03  0.47000000000E+01 0.  1.
         11    1    4    4    0    0  0.11368014342E+02 -0.25620373616E+02 -0.35169117689E+02  0.44972237362E+02  0.00000000000E+00 0. -1.
        -12    1    4    4    0    0 -0.76698674532E+02 -0.38720473149E+02 -0.60283058608E+02  0.10495717637E+03  0.00000000000E+00 0.  1.
</event>
<event>
12    1  0.8633375E-002  0.1724094E+03  0.7818608E-02  0.1176336E+00
         21   -1    0    0  503  502  0.00000000000E+00  0.00000000000E+00  0.19558259693E+03  0.19558259693E+03  0.00000000000E+00 0.  1.
         21   -1    0    0  501  503 -0.00000000000E+00 -0.00000000000E+00 -0.15275846474E+03  0.15275846474E+03  0.00000000000E+00 0.  1.
          6    2    1    2  501    0  0.95414375153E+01  0.33109212484E+01 -0.68433957359E+01  0.17254518536E+03  0.17211335711E+03 0.  0.
         24    2    3    3    0    0  0.52583457834E+02  0.47843133191E+02 -0.18683166436E+02  0.10931541718E+03  0.80912386535E+02 0.  0.
         -6    2    1    2    0  502 -0.95414375153E+01 -0.33109212484E+01  0.49667527928E+02  0.17579587630E+03  0.16833100001E+03 0.  0.
        -24    2    5    5    0    0  0.34349695494E+02  0.23756375995E+02 -0.16611441074E+02  0.91688433890E+02  0.79915968077E+02 0.  0.
          5    1    3    3  501    0 -0.43042020319E+02 -0.44532211942E+02  0.11839770700E+02  0.63229768178E+02  0.47000000000E+01 0. -1.
        -13    1    4    4    0    0  0.29066815511E+02  0.39374647559E+02 -0.49518025420E+02  0.69622392058E+02  0.00000000000E+00 0.  1.
         14    1    4    4    0    0  0.23516642323E+02  0.84684856311E+01  0.30834858985E+02  0.39693025126E+02  0.00000000000E+00 0. -1.
         -5    1    5    5    0  502 -0.43891133009E+02 -0.27067297243E+02  0.66278969002E+02  0.84107442411E+02  0.47000000000E+01 0.  1.
         11    1    6    6    0    0  0.46005975378E+02  0.17718476989E+02  0.19689797953E+02  0.53086555178E+02  0.00000000000E+00 0. -1.
        -12    1    6    6    0    0 -0.11656279884E+02  0.60378990058E+01 -0.36301239027E+02  0.38601878711E+02  0.00000000000E+00 0.  1.
</event>
<event>
12    1  0.8633375E-002  0.1944738E+03  0.7818608E-02  0.1155875E+00
         21   -1    0    0  501  502  0.00000000000E+00  0.00000000000E+00  0.64251818308E+03  0.64251818308E+03  0.00000000000E+00 0.  1.
         21   -1    0    0  502  503 -0.00000000000E+00 -0.00000000000E+00 -0.73240434792E+02  0.73240434792E+02  0.00000000000E+00 0.  1.
         -6    2    1    2    0  503 -0.17632251971E+02  0.73673043028E+02  0.11247417365E+03  0.21928146184E+03  0.17232326073E+03 0.  0.
        -24    2    3    3    0    0  0.51975964066E+02  0.45057185077E+02  0.89940581267E+02  0.14057934083E+03  0.83316217754E+02 0.  0.
          6    2    1    2  501    0  0.17632251971E+02 -0.73673043028E+02  0.45680357464E+03  0.49647715603E+03  0.17911294504E+03 0.  0.
         24    2    5    5    0    0  0.51686442982E+02 -0.91934168985E+02  0.42641381049E+03  0.44709310586E+03  0.83307428924E+02 0.  0.
          5    1    5    5  501    0 -0.34054191011E+02  0.18261125957E+02  0.30389764151E+02  0.49384050176E+02  0.47000000000E+01 0. -1.
        -13    1    6    6    0    0  0.34198122252E+02 -0.62688435717E+02  0.39276448594E+03  0.39920332282E+03  0.00000000000E+00 0.  1.
         14    1    6    6    0    0  0.17488320730E+02 -0.29245733268E+02  0.33649324550E+02  0.47889783033E+02  0.00000000000E+00 0. -1.
         -5    1    3    3    0  503 -0.69608216037E+02  0.28615857951E+02  0.22533592380E+02  0.78702121011E+02  0.47000000000E+01 0.  1.
         11    1    4    4    0    0  0.64073447857E+00  0.51733027691E+02  0.24800196061E+02  0.57373917589E+02  0.00000000000E+00 0. -1.
        -12    1    4    4    0    0  0.51335229587E+02 -0.66758426140E+01  0.65140385205E+02  0.83205423237E+02  0.00000000000E+00 0.  1.
</event>
<event>
12    1  0.8633375E-002  0.2102800E+03  0.7818608E-02  0.1141731E+00
         21   -1    0    0  501  502  0.00000000000E+00  0.00000000000E+00  0.96184153507E+02  0.96184153507E+02  0.00000000000E+00 0.  1.
         21   -1    0    0  502  503 -0.00000000000E+00 -0.00000000000E+00 -0.55449478936E+03  0.55449478936E+03  0.00000000000E+00 0. -1.
         -6    2    1    2    0  503  0.11666110451E+03  0.37484416245E+01 -0.90796742857E+02  0.22725937544E+03  0.17256567182E+03 0.  0.
        -24    2    3    3    0    0  0.14402341608E+03 -0.10413223535E+02 -0.10262385454E+03  0.19392441743E+03  0.78891346483E+02 0.  0.
          6    2    1    2  501    0 -0.11666110451E+03 -0.37484416245E+01 -0.36751389300E+03  0.42341956743E+03  0.17491084706E+03 0.  0.
         24    2    5    5    0    0 -0.12818983297E+03 -0.28268638670E+02 -0.19339823230E+03  0.24714561886E+03  0.80289049441E+02 0.  0.
          5    1    5    5  501    0  0.11528728459E+02  0.24520197046E+02 -0.17411566070E+03  0.17627394857E+03  0.47000000000E+01 0. -1.
        -11    1    6    6    0    0 -0.13445625851E+02  0.18761305206E+02 -0.63469385898E+02  0.67536170856E+02  0.00000000000E+00 0.  1.
         12    1    6    6    0    0 -0.11474420711E+03 -0.47029943876E+02 -0.12992884640E+03  0.17960944801E+03  0.00000000000E+00 0. -1.
         -5    1    3    3    0  503 -0.27362311573E+02  0.14161665160E+02  0.11827111683E+02  0.33334958009E+02  0.47000000000E+01 0.  1.
         13    1    4    4    0    0  0.69636546920E+02 -0.40896553619E+02 -0.31823891611E+02  0.86801709903E+02  0.00000000000E+00 0. -1.
        -14    1    4    4    0    0  0.74386869160E+02  0.30483330084E+02 -0.70799962929E+02  0.10712270752E+03  0.00000000000E+00 0.  1.
</event>
<event>
12    1  0.8633375E-002  0.1780963E+03  0.7818608E-02  0.1169882E+00
         21   -1    0    0  503  502  0.00000000000E+00  0.00000000000E+00  0.27853458005E+03  0.27853458005E+03  0.00000000000E+00 0. -1.
         21   -1    0    0  501  503 -0.00000000000E+00 -0.00000000000E+00 -0.32302340480E+03  0.32302340480E+03  0.00000000000E+00 0. -1.
          6    2    1    2  501    0 -0.35721201022E+02  0.14223265871E+02 -0.26462386777E+03  0.31897345721E+03  0.17389643330E+03 0.  0.
         24    2    3    3    0    0 -0.74460985540E+02  0.24951507094E+02 -0.94859685230E+02  0.14445172865E+03  0.75504476390E+02 0.  0.
         -6    2    1    2    0  502  0.35721201022E+02 -0.14223265871E+02  0.22013504303E+03  0.28258452765E+03  0.17296321170E+03 0.  0.
        -24    2    5    5    0    0 -0.37801259124E+02  0.74593300812E+01  0.16557672046E+03  0.18838055918E+03  0.81160383948E+02 0.  0.
          5    1    3    3  501    0  0.38739784518E+02 -0.10728241223E+02 -0.16976418254E+03  0.17452172855E+03  0.47000000000E+01 0. -1.
        -13    1    4    4    0    0 -0.22664253556E+01  0.28630128015E+02 -0.54639990294E+02  0.61728028102E+02  0.00000000000E+00 0.  1.
         14    1    4    4    0    0 -0.72194560184E+02 -0.36786209201E+01 -0.40219694937E+02  0.82723700551E+02  0.00000000000E+00 0. -1.
         -5    1    5    5    0  502  0.73522460146E+02 -0.21682595953E+02  0.54558322562E+02  0.94203968462E+02  0.47000000000E+01 0.  1.
         13    1    6    6    0    0  0.23251573046E+02  0.61026950843E+01  0.22972552429E+02  0.33250815050E+02  0.00000000000E+00 0. -1.
        -14    1    6    6    0    0 -0.61052832169E+02  0.13566349969E+01  0.14260416803E+03  0.15512974413E+03  0.00000000000E+00 0.  1.
</event>
<event>
12    1  0.8633375E-002  0.1809700E+03  0.7818608E-02  0.1168222E+00
         21   -1    0    0  503  502  0.00000000000E+00  0.00000000000E+00  0.36921661098E+03  0.36921661098E+03  0.00000000000E+00 0. -1.
         21   -1    0    0  501  503 -0.00000000000E+00 -0.00000000000E+00 -0.26166162938E+03  0.26166162938E+03  0.00000000000E+00 0. -1.
          6    2    1    2  501    0  0.20414759031E+02 -0.32964351739E+02 -0.20438822752E+03  0.27299210478E+03  0.17676744850E+03 0.  0.
         24    2    3    3    0    0 -0.53565095343E+02 -0.34996441921E+02 -0.87172470244E+02  0.13428820434E+03  0.79626075310E+02 0.  0.
         -6    2    1    2    0  502 -0.20414759031E+02  0.32964351739E+02  0.31194320912E+03  0.35788613558E+03  0.17108626320E+03 0.  0.
        -24    2    5    5    0    0 -0.21028113898E+02  0.84276851245E+02  0.25273949913E+03  0.27939716766E+03  0.81490819398E+02 0.  0.
          5    1    3    3  501    0  0.73979854374E+02  0.20320901815E+01 -0.11721575728E+03  0.13870390044E+03  0.47000000000E+01 0. -1.
        -11    1    4    4    0    0 -0.19877316917E+02  0.12389700763E+01  0.12146852007E+02  0.23327854345E+02  0.00000000000E+00 0.  1.
         12    1    4    4    0    0 -0.33687778426E+02 -0.36235411997E+02 -0.99319322250E+02  0.11096034999E+03  0.00000000000E+00 0. -1.
         -5    1    5    5    0  502  0.61335486616E+00 -0.51312499505E+02  0.59203709992E+02  0.78488967929E+02  0.47000000000E+01 0.  1.
         13    1    6    6    0    0 -0.48218620818E+02  0.65543374471E+02  0.14007471489E+03  0.16199350321E+03  0.00000000000E+00 0. -1.
        -14    1    6    6    0    0  0.27190506920E+02  0.18733476773E+02  0.11266478423E+03  0.11740366444E+03  0.00000000000E+00 0.  1.
</event>
<event>
12    1  0.8633375E-002  0.2013151E+03  0.7818608E-02  0.1148853E+00
         21   -1    0    0  503  502  0.00000000000E+00  0.00000000000E+00  0.21008409814E+03  0.21008409814E+03  0.00000000000E+00 0. -1.
         21   -1    0    0  501  503 -0.00000000000E+00 -0.00000000000E+00 -0.34447794120E+03  0.34447794120E+03  0.00000000000E+00 0.  1.
          6    2    1    2  501    0  0.20970170971E+01 -0.10315764019E+03 -0.25182279595E+03  0.32240110314E+03  0.17286368773E+03 0.  0.
         24    2    3    3    0    0  0.43014457120E+02 -0.71280665264E+02 -0.24413556965E+03  0.26975547771E+03  0.78959892508E+02 0.  0.
         -6    2    1    2    0  502 -0.20970170971E+01  0.10315764019E+03  0.11742895289E+03  0.23216093620E+03  0.17164860940E+03 0.  0.
        -24    2    5    5    0    0 -0.36449222358E+02  0.10445584529E+03  0.13629572617E+03  0.19266657614E+03  0.79399717665E+02 0.  0.
          5    1    3    3  501    0 -0.40917440023E+02 -0.31876974928E+02 -0.76872262969E+01  0.52645625428E+02  0.47000000000E+01 0. -1.
        -13    1    4    4    0    0  0.22904537420E+02 -0.32506257975E+02 -0.21156498723E+03  0.21526964129E+03  0.00000000000E+00 0.  1.
         14    1    4    4    0    0  0.20109919700E+02 -0.38774407290E+02 -0.32570582427E+02  0.54485836422E+02  0.00000000000E+00 0. -1.
         -5    1    5    5    0  502  0.34352205261E+02 -0.12982050958E+01 -0.18866773272E+02  0.39494360059E+02  0.47000000000E+01 0.  1.
         13    1    6    6    0    0  0.95887033349E+01  0.86069185690E+02  0.86429834298E+02  0.12235180511E+03  0.00000000000E+00 0. -1.
        -14    1    6    6    0    0 -0.46037925693E+02  0.18386659599E+02  0.49865891867E+02  0.70314771030E+02  0.00000000000E+00 0.  1.
</event>
<event>
12    1  0.8633375E-002  0.2216546E+03  0.7818608E-02  0.1134943E+00
         21   -1    0    0  503  502  0.00000000000E+00  0.00000000000E+00  0.24605597905E+03  0.24605597905E+03  0.00000000000E+00 0.  1.
         21   -1    0    0  501  503 -0.00000000000E+00 -0.00000000000E+00 -0.34395247195E+03  0.34395247195E+03  0.00000000000E+00 0. -1.
          6    2    1    2  501    0  0.11725092750E+03  0.21842800105E+02 -0.24617197027E+03  0.32333187430E+03  0.17238901959E+03 0.  0.
         24    2    3    3    0    0  0.12003251032E+03  0.40280326239E+02 -0.10946902184E+03  0.18528309421E+03  0.79473580789E+02 0.  0.
         -6    2    1    2    0  502 -0.11725092750E+03 -0.21842800105E+02  0.14827547737E+03  0.26667657669E+03  0.18683118437E+03 0.  0.
        -24    2    5    5    0    0 -0.16080574989E+02  0.90442882858E+01 -0.78817748796E+01  0.78005885046E+02  0.75381772889E+02 0.  0.
          5    1    3    3  501    0 -0.27815828231E+01 -0.18437526133E+02 -0.13670294843E+03  0.13804878008E+03  0.47000000000E+01 0. -1.
        -13    1    4    4    0    0  0.76276613812E+02 -0.15154632889E+02 -0.68518372887E+02  0.10364628375E+03  0.00000000000E+00 0.  1.
         14    1    4    4    0    0  0.43755896507E+02  0.55434959127E+02 -0.40950648954E+02  0.81636810461E+02  0.00000000000E+00 0. -1.
         -5    1    5    5    0  502 -0.10117035251E+03 -0.30887088391E+02  0.15615725225E+03  0.18867069165E+03  0.47000000000E+01 0.  1.
         11    1    6    6    0    0  0.25235704510E+02  0.12587818392E+01  0.15752138175E+02  0.29775076338E+02  0.00000000000E+00 0. -1.
        -12    1    6    6    0    0 -0.41316279499E+02  0.77855064466E+01 -0.23633913055E+02  0.48230808708E+02  0.00000000000E+00 0.  1.
</event>
<event>
12    1  0.8633375E-002  0.1959035E+03  0.7818608E-02  0.1153383E+00
         21   -1    0    0  501  502  0.00000000000E+00  0.00000000000E+00  0.76996017284E+03  0.76996017284E+03  0.00000000000E+00 0. -1.
         21   -1    0    0  502  503 -0.00000000000E+00 -0.00000000000E+00 -0.12925902013E+03  0.12925902013E+03  0.00000000000E+00 0. -1.
         -6    2    1    2    0  503 -0.62646651811E+02 -0.69655703792E+02 -0.32226439199E+02  0.19853643798E+03  0.17205131144E+03 0.  0.
        -24    2    3    3    0    0 -0.23003745526E+02 -0.10762989555E+03 -0.44064416323E+02  0.14218196201E+03  0.78489940829E+02 0.  0.
          6    2    1    2  501    0  0.62646651811E+02  0.69655703792E+02  0.67292759191E+03  0.70068275499E+03  0.17131333612E+03 0.  0.
         24    2    5    5    0    0 -0.38225776255E+01  0.15750657620E+02  0.13834304755E+03  0.15927104701E+03  0.77238412053E+02 0.  0.
          5    1    5    5  501    0  0.66469229437E+02  0.53905046172E+02  0.53458454436E+03  0.54141170798E+03  0.47000000000E+01 0. -1.
        -11    1    6    6    0    0  0.20080784545E+02 -0.39574106681E+01  0.12301537243E+03  0.12470637859E+03  0.00000000000E+00 0.  1.
         12    1    6    6    0    0 -0.23903362171E+02  0.19708068288E+02  0.15327675121E+02  0.34564668425E+02  0.00000000000E+00 0. -1.
         -5    1    3    3    0  503 -0.39642906285E+02  0.37974191760E+02  0.11837977125E+02  0.56354475962E+02  0.47000000000E+01 0.  1.
         11    1    4    4    0    0 -0.78601368758E+01 -0.37202295673E+02 -0.57467915401E+02  0.68908300339E+02  0.00000000000E+00 0. -1.
        -12    1    4    4    0    0 -0.15143608650E+02 -0.70427599880E+02  0.13403499078E+02  0.73273661675E+02  0.00000000000E+00 0.  1.
</event>
<event>
12    1  0.8633375E-002  0.2194911E+03  0.7818608E-02  0.1134444E+00
         21   -1    0    0  501  502  0.00000000000E+00  0.00000000000E+00  0.30881030802E+02  0.30881030802E+02  0.00000000000E+00 0.  1.
         21   -1    0    0  502  503 -0.00000000000E+00 -0.00000000000E+00 -0.27338055833E+04  0.27338055833E+04  0.00000000000E+00 0. -1.
         -6    2    1    2    0  503  0.13473991532E+03  0.17708646441E+02 -0.22581814972E+04  0.22687302177E+04  0.17112768748E+03 0.  0.
        -24    2    3    3    0    0  0.83443994260E+02 -0.17840065682E+02 -0.73965678827E+03  0.74891629353E+03  0.80636729555E+02 0.  0.
          6    2    1    2  501    0 -0.13473991532E+03 -0.17708646441E+02 -0.44474305526E+03  0.49595639637E+03  0.17235985891E+03 0.  0.
         24    2    5    5    0    0  0.42601482299E+01  0.95338939673E+01 -0.13741921576E+03  0.15752884726E+03  0.76303688393E+02 0.  0.
          5    1    5    5  501    0 -0.13900006355E+03 -0.27242540408E+02 -0.30732383950E+03  0.33842754911E+03  0.47000000000E+01 0. -1.
        -13    1    6    6    0    0 -0.24886552803E+02  0.11991285373E+02 -0.14542791757E+02  0.31218972235E+02  0.00000000000E+00 0.  1.
         14    1    6    6    0    0  0.29146701033E+02 -0.24573914054E+01 -0.12287642400E+03  0.12630987503E+03  0.00000000000E+00 0. -1.
         -5    1    3    3    0  503  0.51295921057E+02  0.35548712122E+02 -0.15185247089E+04  0.15198139242E+04  0.47000000000E+01 0.  1.
         13    1    4    4    0    0  0.62060404691E+02  0.20956114078E+02 -0.56266420659E+03  0.56646417532E+03  0.00000000000E+00 0. -1.
        -14    1    4    4    0    0  0.21383589569E+02 -0.38796179759E+02 -0.17699258168E+03  0.18245211820E+03  0.00000000000E+00 0.  1.
</event>
<event>
12    1  0.8633375E-002  0.1798557E+03  0.7818608E-02  0.1168010E+00
         21   -1    0    0  501  502  0.00000000000E+00  0.00000000000E+00  0.86770571159E+02  0.86770571159E+02  0.00000000000E+00 0.  1.
         21   -1    0    0  502  503 -0.00000000000E+00 -0.00000000000E+00 -0.12479614309E+04  0.12479614309E+04  0.00000000000E+00 0.  1.
         -6    2    1    2    0  503 -0.41486534093E+02 -0.31237724899E+02 -0.11397774038E+04  0.11538806769E+04  0.17219511687E+03 0.  0.
        -24    2    3    3    0    0 -0.76681798638E+02  0.84009538284E+01 -0.96289155146E+03  0.96916298347E+03  0.78524355368E+02 0.  0.
          6    2    1    2  501    0  0.41486534093E+02  0.31237724899E+02 -0.21413455860E+02  0.18085132511E+03  0.17190618876E+03 0.  0.
         24    2    5    5    0    0  0.73571663499E+02 -0.19631113385E+02  0.17352029339E+02  0.10914395394E+03  0.76243947148E+02 0.  0.
          5    1    5    5  501    0 -0.32085129405E+02  0.50868838284E+02 -0.38765485198E+02  0.71707371169E+02  0.47000000000E+01 0. -1.
        -11    1    6    6    0    0  0.49560637130E+01 -0.54191659651E+01  0.35912395961E+02  0.36655560437E+02  0.00000000000E+00 0.  1.
         12    1    6    6    0    0  0.68615599786E+02 -0.14211947420E+02 -0.18560366622E+02  0.72488393503E+02  0.00000000000E+00 0. -1.
         -5    1    3    3    0  503  0.35195264545E+02 -0.39638678727E+02 -0.17688585238E+03  0.18471769344E+03  0.47000000000E+01 0.  1.
         13    1    4    4    0    0  0.41961412212E+01 -0.10357813911E+02 -0.22590103220E+02  0.25203267123E+02  0.00000000000E+00 0. -1.
        -14    1    4    4    0    0 -0.80877939859E+02  0.18758767739E+02 -0.94030144824E+03  0.94395971635E+03  0.00000000000E+00 0.  1.
</event>
<event>
12    1  0.8633375E-002  0.2318846E+03  0.7818608E-02  0.1125345E+00
         21   -1    0    0  501  502  0.00000000000E+00  0.00000000000E+00  0.21731655493E+04  0.21731655493E+04  0.00000000000E+00 0.  1.
         21   -1    0    0  502  503 -0.00000000000E+00 -0.00000000000E+00 -0.34899265593E+02  0.34899265593E+02  0.00000000000E+00 0.  1.
         -6    2    1    2    0  503 -0.93826343610E+01  0.15487283002E+03  0.47287785943E+03  0.52661036913E+03  0.17213768801E+03 0.  0.
        -24    2    3    3    0    0  0.51369842363E+02  0.42523495738E+02  0.22122258448E+03  0.24435923317E+03  0.79529205697E+02 0.  0.
          6    2    1    2  501    0  0.93826343610E+01 -0.15487283002E+03  0.16653884243E+04  0.16814544458E+04  0.17232765925E+03 0.  0.
         24    2    5    5    0    0  0.56449264977E+02 -0.13692078208E+03  0.99365889350E+03  0.10078223531E+04  0.80087943497E+02 0.  0.
          5    1    5    5  501    0 -0.47066630616E+02 -0.17952047932E+02  0.67172953080E+03  0.67363209268E+03  0.47000000000E+01 0. -1.
        -13    1    6    6    0    0  0.27168540662E+02 -0.11641791841E+03  0.89378672396E+03  0.90174606695E+03  0.00000000000E+00 0.  1.
         14    1    6    6    0    0  0.29280724315E+02 -0.20502863675E+02  0.99872169543E+02  0.10607628616E+03  0.00000000000E+00 0. -1.
         -5    1    3    3    0  503 -0.60752476724E+02  0.11234933428E+03  0.25165527495E+03  0.28225113596E+03  0.47000000000E+01 0.  1.
         11    1    4    4    0    0  0.25842622621E+02 -0.20820379050E+02  0.49915613071E+02  0.59940785413E+02  0.00000000000E+00 0. -1.
        -12    1    4    4    0    0  0.25527219742E+02  0.63343874787E+02  0.17130697141E+03  0.18441844776E+03  0.00000000000E+00 0.  1.
</event>
<event>
12    1  0.8633375E-002  0.2891065E+03  0.7818608E-02  0.1091118E+00
         21   -1    0    0  501  502  0.00000000000E+00  0.00000000000E+00  0.21506015885E+03  0.21506015885E+03  0.00000000000E+00 0. -1.
         21   -1    0    0  502  503 -0.00000000000E+00 -0.00000000000E+00 -0.10911169209E+04  0.10911169209E+04  0.00000000000E+00 0. -1.
         -6    2    1    2    0  503  0.14354711650E+03  0.18210045435E+03 -0.96381098157E+03  0.10062376223E+04  0.17267366419E+03 0.  0.
        -24    2    3    3    0    0  0.11247153699E+03  0.44603271672E+02 -0.41107929559E+03  0.43579430916E+03  0.79317048279E+02 0.  0.
          6    2    1    2  501    0 -0.14354711650E+03 -0.18210045435E+03  0.87754219545E+02  0.29993945738E+03  0.16880913754E+03 0.  0.
         24    2    5    5    0    0 -0.14875262192E+03 -0.12691512208E+03  0.19977404414E+02  0.21225647811E+03  0.80118194393E+02 0.  0.
          5    1    5    5  501    0  0.52055054208E+01 -0.55185332278E+02  0.67776815131E+02  0.87682979275E+02  0.47000000000E+01 0. -1.
        -11    1    6    6    0    0 -0.10919164882E+03 -0.12146630037E+03  0.39151401823E+02  0.16795746652E+03  0.00000000000E+00 0.  1.
         12    1    6    6    0    0 -0.39560973105E+02 -0.54488217091E+01 -0.19173997409E+02  0.44299011588E+02  0.00000000000E+00 0. -1.
         -5    1    3    3    0  503  0.31075579505E+02  0.13749718268E+03 -0.55273168598E+03  0.57044331319E+03  0.47000000000E+01 0.  1.
         11    1    4    4    0    0  0.77110499537E+02  0.66846758105E+02 -0.31207529312E+03  0.32833748915E+03  0.00000000000E+00 0. -1.
        -12    1    4    4    0    0  0.35361037458E+02 -0.22243486433E+02 -0.99004002477E+02  0.10745682000E+03  0.00000000000E+00 0.  1.
</event>
<event>
12    1  0.8633375E-002  0.1912137E+03  0.7818608E-02  0.1157604E+00
         21   -1    0    0  501  502  0.00000000000E+00  0.00000000000E+00  0.98715784111E+03  0.98715784111E+03  0.00000000000E+00 0. -1.
         21   -1    0    0  502  503 -0.00000000000E+00 -0.00000000000E+00 -0.39761407777E+02  0.39761407777E+02  0.00000000000E+00 0. -1.
         -6    2    1    2    0  503  0.77061643307E+02 -0.30781934287E+02  0.33327118784E+03  0.38371437171E+03  0.17111694851E+03 0.  0.
        -24    2    3    3    0    0  0.74517210037E+01 -0.96808233177E+01  0.61145392698E+02  0.10199583035E+03  0.80716441163E+02 0.  0.
          6    2    1    2  501    0 -0.77061643307E+02  0.30781934287E+02  0.61412524549E+03  0.64320487717E+03  0.17226918622E+03 0.  0.
         24    2    5    5    0    0  0.24695684864E+02  0.74945182187E+01  0.33045764137E+03  0.34090327742E+03  0.79666474529E+02 0.  0.
          5    1    5    5  501    0 -0.10175732817E+03  0.23287416069E+02  0.28366760412E+03  0.30230159975E+03  0.47000000000E+01 0. -1.
        -11    1    6    6    0    0  0.43225899925E+02 -0.15013704564E+02  0.11987001204E+03  0.12830709074E+03  0.00000000000E+00 0.  1.
         12    1    6    6    0    0 -0.18530215061E+02  0.22508222783E+02  0.21058762933E+03  0.21259618668E+03  0.00000000000E+00 0. -1.
         -5    1    3    3    0  503  0.69609922303E+02 -0.21101110970E+02  0.27212579514E+03  0.28171854136E+03  0.47000000000E+01 0.  1.
         11    1    4    4    0    0  0.32030128252E+02  0.23523215097E+02  0.36079600225E+02  0.53675025075E+02  0.00000000000E+00 0. -1.
        -12    1    4    4    0    0 -0.24578407248E+02 -0.33204038414E+02  0.25065792473E+02  0.48320805273E+02  0.00000000000E+00 0.  1.
</event>
<event>
12    1  0.8633375E-002  0.1901136E+03  0.7818608E-02  0.1158647E+00
         21   -1    0    0  501  502  0.00000000000E+00  0.00000000000E+00  0.19035181770E+03  0.19035181770E+03  0.00000000000E+00 0.  1.
         21   -1    0    0  502  503 -0.00000000000E+00 -0.00000000000E+00 -0.35391091314E+03  0.35391091314E+03  0.00000000000E+00 0.  1.
         -6    2    1    2    0  503 -0.79236848362E+02  0.88480028785E-01 -0.26790937802E+03  0.32850969652E+03  0.17281406167E+03 0.  0.
        -24    2    3    3    0    0 -0.29738362425E+02  0.49776509873E+00 -0.37684473939E+02  0.92976547934E+02  0.79623494773E+02 0.  0.
          6    2    1    2  501    0  0.79236848362E+02 -0.88480028785E-01  0.10435028258E+03  0.21575303433E+03  0.17141150597E+03 0.  0.
         24    2    5    5    0    0  0.69891893947E+01  0.56058781250E+02  0.54991592517E+02  0.11168282024E+03  0.79104622907E+02 0.  0.
          5    1    5    5  501    0  0.72247658968E+02 -0.56147261279E+02  0.49358690065E+02  0.10407021409E+03  0.47000000000E+01 0. -1.
        -11    1    6    6    0    0 -0.33669547349E+02  0.16961695228E+02  0.36098470115E+02  0.52196140359E+02  0.00000000000E+00 0.  1.
         12    1    6    6    0    0  0.40658736744E+02  0.39097086022E+02  0.18893122402E+02  0.59486679880E+02  0.00000000000E+00 0. -1.
         -5    1    3    3    0  503 -0.49498485937E+02 -0.40928506994E+00 -0.23022490408E+03  0.23553314858E+03  0.47000000000E+01 0.  1.
         13    1    4    4    0    0  0.26880288890E+02  0.72521434660E+01 -0.14850105763E+02  0.31554225657E+02  0.00000000000E+00 0. -1.
        -14    1    4    4    0    0 -0.56618651315E+02 -0.67543783672E+01 -0.22834368176E+02  0.61422322277E+02  0.00000000000E+00 0.  1.
</event>
<event>
12    1  0.8633375E-002  0.2409014E+03  0.7818608E-02  0.1119722E+00
         21   -1    0    0  501  502  0.00000000000E+00  0.00000000000E+00  0.56921366396E+02  0.56921366396E+02  0.00000000000E+00 0. -1.
         21   -1    0    0  502  503 -0.00000000000E+00 -0.00000000000E+00 -0.14190796691E+04  0.14190796691E+04  0.00000000000E+00 0. -1.
         -6    2    1    2    0  503  0.11403838226E+03  0.11815609832E+03 -0.10759581556E+04  0.11019101254E+04  0.17191380292E+03 0.  0.
        -24    2    3    3    0    0  0.71802089417E+02  0.14791608094E+03 -0.75092052320E+03  0.77275801242E+03  0.78984850077E+02 0.  0.
          6    2    1    2  501    0 -0.11403838226E+03 -0.11815609832E+03 -0.28620014713E+03  0.37409091013E+03  0.17626079720E+03 0.  0.
         24    2    5    5    0    0 -0.25530991425E+02 -0.65591534986E+02 -0.23720401349E+03  0.25998875125E+03  0.79839374832E+02 0.  0.
          5    1    5    5  501    0 -0.88507390839E+02 -0.52564563329E+02 -0.48996133639E+02  0.11410215889E+03  0.47000000000E+01 0. -1.
        -13    1    6    6    0    0 -0.75076538248E+01 -0.51771169210E+01 -0.16023886229E+03  0.16049816321E+03  0.00000000000E+00 0.  1.
         14    1    6    6    0    0 -0.18023337600E+02 -0.60414418065E+02 -0.76965151196E+02  0.99490588032E+02  0.00000000000E+00 0. -1.
         -5    1    3    3    0  503  0.42236292847E+02 -0.29759982628E+02 -0.32503763240E+03  0.32915211297E+03  0.47000000000E+01 0.  1.
         13    1    4    4    0    0  0.51792964994E+02  0.73735705954E+02 -0.55577611521E+03  0.56303335229E+03  0.00000000000E+00 0. -1.
        -14    1    4    4    0    0  0.20009124423E+02  0.74180374989E+02 -0.19514440799E+03  0.20972466012E+03  0.00000000000E+00 0.  1.
</event>
<event>
12    1  0.8633375E-002  0.1853877E+03  0.7818608E-02  0.1163293E+00
         21   -1    0    0  501  502  0.00000000000E+00  0.00000000000E+00  0.73855256958E+02  0.73855256958E+02  0.00000000000E+00 0. -1.
         21   -1    0    0  502  503 -0.00000000000E+00 -0.00000000000E+00 -0.61512189743E+03  0.61512189743E+03  0.00000000000E+00 0. -1.
         -6    2    1    2    0  503  0.90199271004E+01 -0.56981081190E+02 -0.98444956474E+02  0.20990477924E+03  0.17618287145E+03 0.  0.
        -24    2    3    3    0    0 -0.29313305104E+02 -0.69748262134E+02 -0.12074930300E+03  0.16351500154E+03  0.80203937736E+02 0.  0.
          6    2    1    2  501    0 -0.90199271004E+01  0.56981081190E+02 -0.44282168400E+03  0.47907237515E+03  0.17346784750E+03 0.  0.
         24    2    5    5    0    0  0.45959611785E+02  0.44476229689E+02 -0.15051116660E+03  0.18133650297E+03  0.78351101541E+02 0.  0.
          5    1    5    5  501    0 -0.54979538886E+02  0.12504851501E+02 -0.29231051740E+03  0.29773587219E+03  0.47000000000E+01 0. -1.
        -13    1    6    6    0    0  0.32263130395E+02  0.27119224719E+02 -0.16097396557E+02  0.45116384032E+02  0.00000000000E+00 0.  1.
         14    1    6    6    0    0  0.13696481390E+02  0.17357004970E+02 -0.13441377005E+03  0.13622011893E+03  0.00000000000E+00 0. -1.
         -5    1    3    3    0  503  0.38333232204E+02  0.12767180944E+02  0.22304346524E+02  0.46389777692E+02  0.47000000000E+01 0.  1.
         11    1    4    4    0    0 -0.24750311617E+02 -0.17449053668E+02  0.16547723714E+01  0.30327968455E+02  0.00000000000E+00 0. -1.
        -12    1    4    4    0    0 -0.45629934874E+01 -0.52299208466E+02 -0.12240407537E+03  0.13318703309E+03  0.00000000000E+00 0.  1.
</event>
<event>
12    1  0.8633375E-002  0.1944204E+03  0.7818608E-02  0.1154960E+00
         21   -1    0    0  501  502  0.00000000000E+00  0.00000000000E+00  0.41375268376E+03  0.41375268376E+03  0.00000000000E+00 0. -1.
         21   -1    0    0  502  503 -0.00000000000E+00 -0.00000000000E+00 -0.92652974425E+02  0.92652974425E+02  0.00000000000E+00 0. -1.
         -6    2    1    2    0  503  0.34630195177E+02 -0.83750733810E+02  0.12228411381E+03  0.22967953411E+03  0.17200537221E+03 0.  0.
        -24    2    3    3    0    0 -0.22426435712E+02 -0.97087532992E+02  0.11395325799E+03  0.17030931852E+03  0.78044762080E+02 0.  0.
          6    2    1    2  501    0 -0.34630195177E+02  0.83750733810E+02  0.19881559553E+03  0.27672612407E+03  0.16981245798E+03 0.  0.
         24    2    5    5    0    0 -0.22697023219E+02  0.10519091792E+03  0.83779442375E+02  0.15900828931E+03  0.81757917235E+02 0.  0.
          5    1    5    5  501    0 -0.11933171958E+02 -0.21440184107E+02  0.11503615315E+03  0.11771783476E+03  0.47000000000E+01 0. -1.
        -11    1    6    6    0    0  0.20602672773E+02  0.27319182110E+01  0.18616815371E+01  0.20866225357E+02  0.00000000000E+00 0.  1.
         12    1    6    6    0    0 -0.43299695991E+02  0.10245899971E+03  0.81917760838E+02  0.13814206396E+03  0.00000000000E+00 0. -1.
         -5    1    3    3    0  503  0.57056630889E+02  0.13336799182E+02  0.83308558188E+01  0.59370215592E+02  0.47000000000E+01 0.  1.
         11    1    4    4    0    0 -0.24096172090E+02 -0.89695603819E+02  0.49178146200E+02  0.10509242084E+03  0.00000000000E+00 0. -1.
        -12    1    4    4    0    0  0.16697363781E+01 -0.73919291731E+01  0.64775111787E+02  0.65216897684E+02  0.00000000000E+00 0.  1.
</event>
<event>
12    1  0.8633375E-002  0.2683970E+03  0.7818608E-02  0.1102333E+00
         21   -1    0    0  503  502  0.00000000000E+00  0.00000000000E+00  0.20706892533E+04  0.20706892533E+04  0.00000000000E+00 0. -1.
         21   -1    0    0  501  503 -0.00000000000E+00 -0.00000000000E+00 -0.42932060778E+02  0.42932060778E+02  0.00000000000E+00 0.  1.
          6    2    1    2  501    0 -0.75655704673E+02 -0.18517535027E+03  0.14760824336E+04  0.15001215448E+04  0.17757140053E+03 0.  0.
         24    2    3    3    0    0 -0.49497245840E+02 -0.20830381470E+03  0.13497400845E+04  0.13689587832E+04  0.80058715520E+02 0.  0.
         -6    2    1    2    0  502  0.75655704673E+02  0.18517535027E+03  0.55167475893E+03  0.61349976933E+03  0.17895035994E+03 0.  0.
        -24    2    5    5    0    0  0.11885059893E+02  0.15032377593E+03  0.48711134368E+03  0.51617632940E+03  0.80137691716E+02 0.  0.
          5    1    3    3  501    0 -0.26158458832E+02  0.23128464434E+02  0.12634234918E+03  0.13116276160E+03  0.47000000000E+01 0. -1.
        -11    1    4    4    0    0 -0.20231886195E+02 -0.37684673701E+01  0.85234133454E+02  0.87683453804E+02  0.00000000000E+00 0.  1.
         12    1    4    4    0    0 -0.29265359645E+02 -0.20453534733E+03  0.12645059510E+04  0.12812753294E+04  0.00000000000E+00 0. -1.
         -5    1    5    5    0  502  0.63770644780E+02  0.34851574343E+02  0.64563415254E+02  0.97323439926E+02  0.47000000000E+01 0.  1.
         11    1    6    6    0    0 -0.17634401031E+02  0.67894322260E+02  0.31910550011E+03  0.32672454957E+03  0.00000000000E+00 0. -1.
        -12    1    6    6    0    0  0.29519460924E+02  0.82429453667E+02  0.16800584357E+03  0.18945177983E+03  0.00000000000E+00 0.  1.
</event>
<event>
12    1  0.8633375E-002  0.2653280E+03  0.7818608E-02  0.1104078E+00
         21   -1    0    0  501  502  0.00000000000E+00  0.00000000000E+00  0.99936435775E+03  0.99936435775E+03  0.00000000000E+00 0.  1.
         21   -1    0    0  502  503 -0.00000000000E+00 -0.00000000000E+00 -0.13734100648E+03  0.13734100648E+03  0.00000000000E+00 0.  1.
         -6    2    1    2    0  503 -0.12883938874E+03 -0.15517794633E+03  0.33571732198E+02  0.26680247590E+03  0.17139637343E+03 0.  0.
        -24    2    3    3    0    0 -0.11980557469E+03 -0.17389838192E+03 -0.79895061879E+00  0.22636118088E+03  0.81515169919E+02 0.  0.
          6    2    1    2  501    0  0.12883938874E+03  0.15517794633E+03  0.82845161906E+03  0.86990288833E+03  0.17239247919E+03 0.  0.
         24    2    5    5    0    0  0.15098313052E+03  0.87178742103E+02  0.56283181731E+03  0.59478435723E+03  0.81195678755E+02 0.  0.
          5    1    5    5  501    0 -0.22143741776E+02  0.67999204223E+02  0.26561980175E+03  0.27511853110E+03  0.47000000000E+01 0. -1.
        -11    1    6    6    0    0  0.29353432214E+02  0.56774916466E+02  0.14301641413E+03  0.15664836365E+03  0.00000000000E+00 0.  1.
         12    1    6    6    0    0  0.12162969830E+03  0.30403825637E+02  0.41981540318E+03  0.43813599358E+03  0.00000000000E+00 0. -1.
         -5    1    3    3    0  503 -0.90338140520E+01  0.18720435595E+02  0.34370682817E+02  0.40441295015E+02  0.47000000000E+01 0.  1.
         13    1    4    4    0    0  0.12259615496E+02 -0.99408719918E+01 -0.12101618261E+01  0.15829832586E+02  0.00000000000E+00 0. -1.
        -14    1    4    4    0    0 -0.13206519018E+03 -0.16395750993E+03  0.41121120732E+00  0.21053134829E+03  0.00000000000E+00 0.  1.
</event>
<event>
12    1  0.8633375E-002  0.2049268E+03  0.7818608E-02  0.1146149E+00
         21   -1    0    0  503  502  0.00000000000E+00  0.00000000000E+00  0.14610907636E+03  0.14610907636E+03  0.00000000000E+00 0.  1.
         21   -1    0    0  501  503 -0.00000000000E+00 -0.00000000000E+00 -0.30711910690E+03  0.30711910690E+03  0.00000000000E+00 0.  1.
          6    2    1    2  501    0 -0.10134852833E+02  0.10576835722E+03 -0.14221291284E+03  0.24744113437E+03  0.17237442318E+03 0.  0.
         24    2    3    3    0    0 -0.89182439227E+01  0.85259603012E+02 -0.14673492937E+02  0.11817210186E+03  0.80003745433E+02 0.  0.
         -6    2    1    2    0  502  0.10134852833E+02 -0.10576835722E+03 -0.18797117696E+02  0.20578704889E+03  0.17522932753E+03 0.  0.
        -24    2    5    5    0    0  0.59050259131E+02 -0.39779345973E+02  0.28369511786E+02  0.11095009663E+03  0.80223221530E+02 0.  0.
          5    1    3    3  501    0 -0.12166089101E+01  0.20508754210E+02 -0.12753941990E+03  0.12926903250E+03  0.47000000000E+01 0. -1.
        -13    1    4    4    0    0 -0.79442683499E+01  0.90496424365E+02 -0.34853466042E+02  0.97300967711E+02  0.00000000000E+00 0.  1.
         14    1    4    4    0    0 -0.97397557284E+00 -0.52368213524E+01  0.20179973104E+02  0.20871134152E+02  0.00000000000E+00 0. -1.
         -5    1    5    5    0  502 -0.48915406299E+02 -0.65989011249E+02 -0.47166629482E+02  0.94836952269E+02  0.47000000000E+01 0.  1.
         11    1    6    6    0    0  0.18266667302E+02  0.20309318059E+02 -0.96599538084E+01  0.28973336741E+02  0.00000000000E+00 0. -1.
        -12    1    6    6    0    0  0.40783591830E+02 -0.60088664032E+02  0.38029465594E+02  0.81976759884E+02  0.00000000000E+00 0.  1.
</event>
<event>
12    1  0.8633375E-002  0.1851059E+03  0.7818608E-02  0.1162980E+00
         21   -1    0    0  503  502  0.00000000000E+00  0.00000000000E+00  0.47262048619E+02  0.47262048619E+02  0.00000000000E+00 0.  1.
         21   -1    0    0  501  503 -0.00000000000E+00 -0.00000000000E+00 -0.74613388229E+03  0.74613388229E+03  0.00000000000E+00 0.  1.
          6    2    1    2  501    0  0.61592416194E+02 -0.31845402115E+02 -0.41686855298E+03  0.45606813213E+03  0.17149634198E+03 0.  0.
         24    2    3    3    0    0  0.19340656617E+02 -0.77707544219E+02 -0.19364136728E+03  0.22424705090E+03  0.79857606340E+02 0.  0.
         -6    2    1    2    0  502 -0.61592416194E+02  0.31845402115E+02 -0.28200328069E+03  0.33732779878E+03  0.17162878005E+03 0.  0.
        -24    2    5    5    0    0  0.16162040128E+02  0.46647642623E+00 -0.68764704310E+02  0.10814845217E+03  0.81890622213E+02 0.  0.
          5    1    3    3  501    0  0.42251759577E+02  0.45862142104E+02 -0.22322718570E+03  0.23182108123E+03  0.47000000000E+01 0. -1.
        -11    1    4    4    0    0  0.50382369210E+02 -0.40987852292E+02 -0.11487130530E+03  0.13196137293E+03  0.00000000000E+00 0.  1.
         12    1    4    4    0    0 -0.31041712593E+02 -0.36719691927E+02 -0.78770061974E+02  0.92285677975E+02  0.00000000000E+00 0. -1.
         -5    1    5    5    0  502 -0.77754456322E+02  0.31378925689E+02 -0.21323857638E+03  0.22917934661E+03  0.47000000000E+01 0.  1.
         13    1    6    6    0    0  0.31854344485E+02 -0.33351933306E+02 -0.40218312019E+02  0.61192837321E+02  0.00000000000E+00 0. -1.
        -14    1    6    6    0    0 -0.15692304357E+02  0.33818409733E+02 -0.28546392291E+02  0.46955614848E+02  0.00000000000E+00 0.  1.
</event>
<event>
12    1  0.8633375E-002  0.2904194E+03  0.7818608E-02  0.1090151E+00
         21   -1    0    0  503  502  0.00000000000E+00  0.00000000000E+00  0.75375125536E+02  0.75375125536E+02  0.00000000000E+00 0.  1.
         21   -1    0    0  501  503 -0.00000000000E+00 -0.00000000000E+00 -0.11617603448E+04  0.11617603448E+04  0.00000000000E+00 0.  1.
          6    2    1    2  501    0 -0.10678825593E+03 -0.20833316599E+03 -0.42378684538E+03  0.51374964192E+03  0.17186321481E+03 0.  0.
         24    2    3    3    0    0 -0.41360291723E+02 -0.60747300031E+02 -0.26810662740E+03  0.28942660120E+03  0.80533754617E+02 0.  0.
         -6    2    1    2    0  502  0.10678825593E+03  0.20833316599E+03 -0.66259837393E+03  0.72338582846E+03  0.17159257568E+03 0.  0.
        -24    2    5    5    0    0  0.50637573058E+02  0.11449532838E+03 -0.20637539810E+03  0.25421642128E+03  0.79761142696E+02 0.  0.
          5    1    3    3  501    0 -0.65427964204E+02 -0.14758586596E+03 -0.15568021798E+03  0.22432304073E+03  0.47000000000E+01 0. -1.
        -11    1    4    4    0    0 -0.27740583779E+02  0.14810144615E+02 -0.94684683781E+02  0.99770084267E+02  0.00000000000E+00 0.  1.
         12    1    4    4    0    0 -0.13619707944E+02 -0.75557444646E+02 -0.17342194362E+03  0.18965651693E+03  0.00000000000E+00 0. -1.
         -5    1    5    5    0  502  0.56150682869E+02  0.93837837604E+02 -0.45622297583E+03  0.46916940717E+03  0.47000000000E+01 0.  1.
         13    1    6    6    0    0  0.50725291510E+02  0.23671708116E+02 -0.97559232610E+02  0.11247759257E+03  0.00000000000E+00 0. -1.
        -14    1    6    6    0    0 -0.87718451538E-01  0.90823620266E+02 -0.10881616549E+03  0.14173882871E+03  0.00000000000E+00 0.  1.
</event>
<event>
12    1  0.8633375E-002  0.2039818E+03  0.7818608E-02  0.1147402E+00
         21   -1    0    0  501  502  0.00000000000E+00  0.00000000000E+00  0.33241453288E+03  0.33241453288E+03  0.00000000000E+00 0.  1.
         21   -1    0    0  502  503 -0.00000000000E+00 -0.00000000000E+00 -0.33754629661E+03  0.33754629661E+03  0.00000000000E+00 0.  1.
         -6    2    1    2    0  503 -0.95871096240E+02 -0.22753486266E+02 -0.27004662034E+03  0.33561305114E+03  0.17321072341E+03 0.  0.
        -24    2    3    3    0    0 -0.63501942695E+02  0.54526971238E+02 -0.12071318439E+03  0.16431624350E+03  0.73637406760E+02 0.  0.
          6    2    1    2  501    0  0.95871096240E+02  0.22753486266E+02  0.26491485662E+03  0.33434777835E+03  0.17860449994E+03 0.  0.
         24    2    5    5    0    0  0.10344531205E+03 -0.12127392822E+02  0.26768109385E+03  0.29823979392E+03  0.80285742379E+02 0.  0.
          5    1    5    5  501    0 -0.75742158064E+01  0.34880879088E+02 -0.27662372356E+01  0.36107984428E+02  0.47000000000E+01 0. -1.
        -11    1    6    6    0    0  0.10475383046E+03 -0.31543458625E+02  0.20182236453E+03  0.22956615953E+03  0.00000000000E+00 0.  1.
         12    1    6    6    0    0 -0.13085184140E+01  0.19416065804E+02  0.65858729322E+02  0.68673634385E+02  0.00000000000E+00 0. -1.
         -5    1    3    3    0  503 -0.32369153545E+02 -0.77280457504E+02 -0.14933343595E+03  0.17129680764E+03  0.47000000000E+01 0.  1.
         13    1    4    4    0    0  0.10261819599E+02 -0.62381448358E+01 -0.24358364593E+01  0.12253680742E+02  0.00000000000E+00 0. -1.
        -14    1    4    4    0    0 -0.73763762295E+02  0.60765116074E+02 -0.11827734793E+03  0.15206256276E+03  0.00000000000E+00 0.  1.
</event>
<event>
12    1  0.8633375E-002  0.1744491E+03  0.7818608E-02  0.1173805E+00
         21   -1    0    0  501  502  0.00000000000E+00  0.00000000000E+00  0.56968627896E+03  0.56968627896E+03  0.00000000000E+00 0. -1.
         21   -1    0    0  502  503 -0.00000000000E+00 -0.00000000000E+00 -0.60971132365E+02  0.60971132365E+02  0.00000000000E+00 0. -1.
         -6    2    1    2    0  503 -0.56753319472E+01 -0.89902108552E+01  0.14018799428E+03  0.22379717688E+03  0.17412486715E+03 0.  0.
        -24    2    3    3    0    0 -0.26604359265E+01 -0.24435520011E+02  0.17005855005E+03  0.18970924243E+03  0.80408417844E+02 0.  0.
          6    2    1    2  501    0  0.56753319472E+01  0.89902108552E+01  0.36852715232E+03  0.40686023444E+03  0.17207543430E+03 0.  0.
         24    2    5    5    0    0  0.13808615695E+02  0.58620810490E+02  0.13957013033E+03  0.17239754094E+03  0.81326585766E+02 0.  0.
          5    1    5    5  501    0 -0.81332837481E+01 -0.49630599634E+02  0.22895702199E+03  0.23446269350E+03  0.47000000000E+01 0. -1.
        -13    1    6    6    0    0 -0.29863508071E+02  0.21947178373E+02  0.25869266525E+02  0.45196534196E+02  0.00000000000E+00 0.  1.
         14    1    6    6    0    0  0.43672123766E+02  0.36673632117E+02  0.11370086380E+03  0.12720100674E+03  0.00000000000E+00 0. -1.
         -5    1    3    3    0  503 -0.30148960207E+01  0.15445309156E+02 -0.29870555776E+02  0.34087934454E+02  0.47000000000E+01 0.  1.
         11    1    4    4    0    0 -0.31623353809E+02 -0.25730439801E+02  0.42480786606E+02  0.58878767557E+02  0.00000000000E+00 0. -1.
        -12    1    4    4    0    0  0.28962917882E+02  0.12949197895E+01  0.12757776345E+03  0.13083047487E+03  0.00000000000E+00 0.  1.
</event>
<event>
12    1  0.8633375E-002  0.1726736E+03  0.7818608E-02  0.1175216E+00
         21   -1    0    0  501  502  0.00000000000E+00  0.00000000000E+00  0.19145697465E+03  0.19145697465E+03  0.00000000000E+00 0. -1.
         21   -1    0    0  502  503 -0.00000000000E+00 -0.00000000000E+00 -0.22461742983E+03  0.22461742983E+03  0.00000000000E+00 0. -1.
         -6    2    1    2    0  503 -0.62384537164E+01 -0.16062259585E+02 -0.13214693669E+03  0.21704047110E+03  0.17130919045E+03 0.  0.
        -24    2    3    3    0    0 -0.38371363279E+01 -0.72539782398E+02 -0.54600681207E+02  0.12096243694E+03  0.79836915758E+02 0.  0.
          6    2    1    2  501    0  0.62384537164E+01  0.16062259585E+02  0.98986481506E+02  0.19903393338E+03  0.17181172436E+03 0.  0.
         24    2    5    5    0    0 -0.93327033218E+00  0.35574607376E+02 -0.27935984178E+02  0.70334408759E+02  0.53852448042E+02 0.  0.
          5    1    5    5  501    0  0.71717240486E+01 -0.19512347791E+02  0.12692246568E+03  0.12869952462E+03  0.47000000000E+01 0. -1.
        -13    1    6    6    0    0 -0.20580838096E+02  0.56129605947E+01 -0.27108640611E+02  0.34495718852E+02  0.00000000000E+00 0.  1.
         14    1    6    6    0    0  0.19647567764E+02  0.29961646781E+02 -0.82734356711E+00  0.35838689907E+02  0.00000000000E+00 0. -1.
         -5    1    3    3    0  503 -0.24013173885E+01  0.56477522813E+02 -0.77546255484E+02  0.96078034159E+02  0.47000000000E+01 0.  1.
         11    1    4    4    0    0 -0.15943110088E+02  0.13555735267E+02 -0.89058052549E+01  0.22743220642E+02  0.00000000000E+00 0. -1.
        -12    1    4    4    0    0  0.12105973761E+02 -0.86095517665E+02 -0.45694875952E+02  0.98219216302E+02  0.00000000000E+00 0.  1.
</event>
<event>
12    1  0.8633375E-002  0.1729654E+03  0.7818608E-02  0.1175067E+00
         21   -1    0    0  501  502  0.00000000000E+00  0.00000000000E+00  0.22431793747E+03  0.22431793747E+03  0.00000000000E+00 0.  1.
         21   -1    0    0  502  503 -0.00000000000E+00 -0.00000000000E+00 -0.15261979174E+03  0.15261979174E+03  0.00000000000E+00 0.  1.
         -6    2    1    2    0  503  0.76304989052E+01 -0.14193496719E+02 -0.32419811110E+02  0.17597747445E+03  0.17221308748E+03 0.  0.
        -24    2    3    3    0    0  0.24067521797E+02 -0.35871034202E+02  0.41843303747E+02  0.96748744928E+02  0.75785756422E+02 0.  0.
          6    2    1    2  501    0 -0.76304989052E+01  0.14193496719E+02  0.10411795683E+03  0.20096025476E+03  0.17112800821E+03 0.  0.
         24    2    5    5    0    0 -0.32024642922E+02  0.51351767137E+02  0.15239222289E+02  0.10147492530E+03  0.80014653827E+02 0.  0.
          5    1    5    5  501    0  0.24394144017E+02 -0.37158270417E+02  0.88878734546E+02  0.99485329457E+02  0.47000000000E+01 0. -1.
        -11    1    6    6    0    0  0.14041537337E+02 -0.14352838233E+02  0.29227254155E+01  0.20290664356E+02  0.00000000000E+00 0.  1.
         12    1    6    6    0    0 -0.46066180259E+02  0.65704605370E+02  0.12316496874E+02  0.81184260948E+02  0.00000000000E+00 0. -1.
         -5    1    3    3    0  503 -0.16437022892E+02  0.21677537482E+02 -0.74263114858E+02  0.79228729519E+02  0.47000000000E+01 0.  1.
         11    1    4    4    0    0 -0.15198388512E+02 -0.44168398202E+02  0.17941447260E+02  0.50037325497E+02  0.00000000000E+00 0. -1.
        -12    1    4    4    0    0  0.39265910309E+02  0.82973640004E+01  0.23901856488E+02  0.46711419431E+02  0.00000000000E+00 0.  1.
</event>
<event>
12    1  0.8633375E-002  0.1831355E+03  0.7818608E-02  0.1165214E+00
         21   -1    0    0  501  502  0.00000000000E+00  0.00000000000E+00  0.35087955242E+03  0.35087955242E+03  0.00000000000E+00 0. -1.
         21   -1    0    0  502  503 -0.00000000000E+00 -0.00000000000E+00 -0.21790741105E+03  0.21790741105E+03  0.00000000000E+00 0. -1.
         -6    2    1    2    0  503 -0.50678925489E+01 -0.59572417101E+02 -0.14723739713E+03  0.23498397739E+03  0.17310130590E+03 0.  0.
        -24    2    3    3    0    0  0.13794338990E+02 -0.48641870551E+02 -0.17533482857E+03  0.19911175583E+03  0.79667269581E+02 0.  0.
          6    2    1    2  501    0  0.50678925489E+01  0.59572417101E+02  0.28020953850E+03  0.33380298608E+03  0.17126731048E+03 0.  0.
         24    2    5    5    0    0 -0.37723228710E+01  0.56959936550E+02  0.61949201170E+02  0.11529751861E+03  0.78721975845E+02 0.  0.
          5    1    5    5  501    0  0.88402154199E+01  0.26124805508E+01  0.21826033733E+03  0.21850546747E+03  0.47000000000E+01 0. -1.
        -11    1    6    6    0    0 -0.39794071421E+02  0.16817139105E+02  0.24908787045E+02  0.49868145744E+02  0.00000000000E+00 0.  1.
         12    1    6    6    0    0  0.36021748550E+02  0.40142797445E+02  0.37040414125E+02  0.65429372868E+02  0.00000000000E+00 0. -1.
         -5    1    3    3    0  503 -0.18862231539E+02 -0.10930546550E+02  0.28097431437E+02  0.35872221563E+02  0.47000000000E+01 0.  1.
         11    1    4    4    0    0 -0.10855575114E+02  0.59010052311E+01 -0.10926551716E+03  0.10996189619E+03  0.00000000000E+00 0. -1.
        -12    1    4    4    0    0  0.24649914104E+02 -0.54542875782E+02 -0.66069311409E+02  0.89149859641E+02  0.00000000000E+00 0.  1.
</event>
<event>
12    1  0.8633375E-002  0.1781929E+03  0.7818608E-02  0.1171350E+00
         21   -1    0    0  501  502  0.00000000000E+00  0.00000000000E+00  0.14880472828E+03  0.14880472828E+03  0.00000000000E+00 0. -1.
         21   -1    0    0  502  503 -0.00000000000E+00 -0.00000000000E+00 -0.24715321293E+03  0.24715321293E+03  0.00000000000E+00 0. -1.
         -6    2    1    2    0  503 -0.18559362446E+02  0.12306917094E+02 -0.13182148646E+03  0.22165201589E+03  0.17679593240E+03 0.  0.
        -24    2    3    3    0    0 -0.21329872158E+02  0.28225426314E+02  0.20769056210E+01  0.86700379879E+02  0.79126507551E+02 0.  0.
          6    2    1    2  501    0  0.18559362446E+02 -0.12306917094E+02  0.33473001808E+02  0.17430592532E+03  0.16960602468E+03 0.  0.
         24    2    5    5    0    0  0.71918616043E+02 -0.21920022286E+02  0.45893169536E+02  0.11848503047E+03  0.79244840362E+02 0.  0.
          5    1    5    5  501    0 -0.53359253597E+02  0.96131051923E+01 -0.12420167727E+02  0.55820894854E+02  0.47000000000E+01 0. -1.
        -13    1    6    6    0    0  0.26390124774E+02 -0.91380503054E+01  0.62427075967E+02  0.68389198436E+02  0.00000000000E+00 0.  1.
         14    1    6    6    0    0  0.45528491269E+02 -0.12781971981E+02 -0.16533906431E+02  0.50095832031E+02  0.00000000000E+00 0. -1.
         -5    1    3    3    0  503  0.27705097120E+01 -0.15918509220E+02 -0.13389839208E+03  0.13495163601E+03  0.47000000000E+01 0.  1.
         13    1    4    4    0    0 -0.39128994536E+02  0.31642897717E+02 -0.23349400482E+02  0.55475631517E+02  0.00000000000E+00 0. -1.
        -14    1    4    4    0    0  0.17799122378E+02 -0.34174714029E+01  0.25426306103E+02  0.31224748362E+02  0.00000000000E+00 0.  1.
</event>
<event>
12    1  0.8633375E-002  0.1740450E+03  0.7818608E-02  0.1173868E+00
         21   -1    0    0  501  502  0.00000000000E+00  0.00000000000E+00  0.58957473489E+02  0.58957473489E+02  0.00000000000E+00 0. -1.
         21   -1    0    0  502  503 -0.00000000000E+00 -0.00000000000E+00 -0.54578968565E+03  0.54578968565E+03  0.00000000000E+00 0. -1.
         -6    2    1    2    0  503 -0.13748645748E+02 -0.18589889878E+02 -0.31936282668E+03  0.36370907104E+03  0.17250235947E+03 0.  0.
        -24    2    3    3    0    0  0.31693593574E+02 -0.53430039279E+02 -0.12287858443E+03  0.15899712566E+03  0.79509033998E+02 0.  0.
          6    2    1    2  501    0  0.13748645748E+02  0.18589889878E+02 -0.16746938549E+03  0.24103808811E+03  0.17181023129E+03 0.  0.
         24    2    5    5    0    0  0.31720141530E+02  0.12666415313E+02 -0.15331026900E+02  0.87655454263E+02  0.79258014236E+02 0.  0.
          5    1    5    5  501    0 -0.17971495781E+02  0.59234745652E+01 -0.15213835859E+03  0.15338263384E+03  0.47000000000E+01 0. -1.
        -11    1    6    6    0    0  0.35935888005E+02 -0.23108513433E+02 -0.26089795788E+02  0.50060652054E+02  0.00000000000E+00 0.  1.
         12    1    6    6    0    0 -0.42157464757E+01  0.35774928746E+02  0.10758768888E+02  0.37594802209E+02  0.00000000000E+00 0. -1.
         -5    1    3    3    0  503 -0.45442239322E+02  0.34840149401E+02 -0.19648424225E+03  0.20471194537E+03  0.47000000000E+01 0.  1.
         11    1    4    4    0    0 -0.18891261152E+02 -0.43997394612E+02 -0.73222379348E+02  0.87488098150E+02  0.00000000000E+00 0. -1.
        -12    1    4    4    0    0  0.50584854726E+02 -0.94326446676E+01 -0.49656205078E+02  0.71509027512E+02  0.00000000000E+00 0.  1.
</event>
<event>
12    1  0.8633375E-002  0.1793244E+03  0.7818608E-02  0.1168504E+00
         21   -1    0    0  501  502  0.00000000000E+00  0.00000000000E+00  0.94694540800E+02  0.94694540800E+02  0.00000000000E+00 0.  1.
         21   -1    0    0  502  503 -0.00000000000E+00 -0.00000000000E+00 -0.60559558808E+03  0.60559558808E+03  0.00000000000E+00 0.  1.
         -6    2    1    2    0  503 -0.20485034592E+02  0.47359713794E+02 -0.48773909024E+03  0.51966014434E+03  0.17174011277E+03 0.  0.
        -24    2    3    3    0    0  0.47468212734E+02  0.24684708158E+02 -0.36885524131E+03  0.38078156702E+03  0.77960545793E+02 0.  0.
          6    2    1    2  501    0  0.20485034592E+02 -0.47359713794E+02 -0.23161957034E+02  0.18062998454E+03  0.17154630840E+03 0.  0.
         24    2    5    5    0    0 -0.23938119406E+02 -0.82327937001E+02  0.30128648246E+01  0.11815275232E+03  0.81240831827E+02 0.  0.
          5    1    5    5  501    0  0.44423153998E+02  0.34968223207E+02 -0.26174821858E+02  0.62477232211E+02  0.47000000000E+01 0. -1.
        -11    1    6    6    0    0  0.91262842020E+00 -0.91441257512E+02 -0.53195693417E+00  0.91447358870E+02  0.00000000000E+00 0.  1.
         12    1    6    6    0    0 -0.24850747826E+02  0.91133205118E+01  0.35448217588E+01  0.26705393455E+02  0.00000000000E+00 0. -1.
         -5    1    3    3    0  503 -0.67953247326E+02  0.22675005636E+02 -0.11888384893E+03  0.13887857732E+03  0.47000000000E+01 0.  1.
         11    1    4    4    0    0 -0.97182624495E+01 -0.17581368279E+02 -0.46121464350E+02  0.50306446997E+02  0.00000000000E+00 0. -1.
        -12    1    4    4    0    0  0.57186475183E+02  0.42266076437E+02 -0.32273377696E+03  0.33047512002E+03  0.00000000000E+00 0.  1.
</event>
<event>
12    1  0.8633375E-002  0.2385976E+03  0.7818608E-02  0.1121202E+00
         21   -1    0    0  501  502  0.00000000000E+00  0.00000000000E+00  0.43821626392E+03  0.43821626392E+03  0.00000000000E+00 0. -1.
         21   -1    0    0  502  503 -0.00000000000E+00 -0.00000000000E+00 -0.13667586048E+03  0.13667586048E+03  0.00000000000E+00 0. -1.
         -6    2    1    2    0  503  0.13430293279E+03 -0.97901389414E+02  0.80847637977E+02  0.25192287390E+03  0.17119238891E+03 0.  0.
        -24    2    3    3    0    0  0.11814908460E+03 -0.53719878103E+01  0.33583954271E+02  0.14666802712E+03  0.79972268637E+02 0.  0.
          6    2    1    2  501    0 -0.13430293279E+03  0.97901389414E+02  0.22069276546E+03  0.32296925049E+03  0.16727785338E+03 0.  0.
         24    2    5    5    0    0 -0.11700844987E+03  0.88489616169E+02  0.88137897057E+02  0.18887762602E+03  0.79906690605E+02 0.  0.
          5    1    5    5  501    0 -0.17294482917E+02  0.94117732442E+01  0.13255486841E+03  0.13409162447E+03  0.47000000000E+01 0. -1.
        -13    1    6    6    0    0 -0.12277033488E+01  0.28651126702E+02 -0.44325503920E+01  0.29017956851E+02  0.00000000000E+00 0.  1.
         14    1    6    6    0    0 -0.11578074652E+03  0.59838489467E+02  0.92570447449E+02  0.15985966917E+03  0.00000000000E+00 0. -1.
         -5    1    3    3    0  503  0.16153848190E+02 -0.92529401603E+02  0.47263683706E+02  0.10525484678E+03  0.47000000000E+01 0.  1.
         13    1    4    4    0    0  0.57029143166E+02 -0.33724330124E+02 -0.91491512142E+01  0.66883186082E+02  0.00000000000E+00 0. -1.
        -14    1    4    4    0    0  0.61119941434E+02  0.28352342313E+02  0.42733105485E+02  0.79784841041E+02  0.00000000000E+00 0.  1.
</event>
<event>
12    1  0.8633375E-002  0.2073485E+03  0.7818608E-02  0.1144324E+00
         21   -1    0    0  503  502  0.00000000000E+00  0.00000000000E+00  0.10060247103E+04  0.10060247103E+04  0.00000000000E+00 0. -1.
         21   -1    0    0  501  503 -0.00000000000E+00 -0.00000000000E+00 -0.43064775963E+02  0.43064775963E+02  0.00000000000E+00 0.  1.
          6    2    1    2  501    0  0.96468514814E+02 -0.58355704107E+02  0.39886556117E+03  0.44809377314E+03  0.17024315285E+03 0.  0.
         24    2    3    3    0    0  0.84385077014E+02 -0.64371124195E+01  0.36854985927E+03  0.38659026582E+03  0.80378835625E+02 0.  0.
         -6    2    1    2    0  502 -0.96468514814E+02  0.58355704107E+02  0.56409437321E+03  0.60099571316E+03  0.17401673138E+03 0.  0.
        -24    2    5    5    0    0 -0.52080017027E+01  0.70448642916E+02  0.38943559850E+03  0.40350521211E+03  0.78525386029E+02 0.  0.
          5    1    3    3  501    0  0.12083437800E+02 -0.51918591687E+02  0.30315701897E+02  0.61503507325E+02  0.47000000000E+01 0. -1.
        -13    1    4    4    0    0  0.43457460413E+02 -0.21629445244E+01  0.53945855870E+02  0.69306453957E+02  0.00000000000E+00 0.  1.
         14    1    4    4    0    0  0.40927616601E+02 -0.42741678951E+01  0.31460400340E+03  0.31728381186E+03  0.00000000000E+00 0. -1.
         -5    1    5    5    0  502 -0.91260513111E+02 -0.12092938809E+02  0.17465877471E+03  0.19749050105E+03  0.47000000000E+01 0.  1.
         13    1    6    6    0    0  0.27764881328E+02  0.14091149962E+01  0.13418837191E+03  0.13703792686E+03  0.00000000000E+00 0. -1.
        -14    1    6    6    0    0 -0.32972883031E+02  0.69039527920E+02  0.25524722658E+03  0.26646728525E+03  0.00000000000E+00 0.  1.
</event>
<event>
12    1  0.8633375E-002  0.1734722E+03  0.7818608E-02  0.1174549E+00
         21   -1    0    0  503  502  0.00000000000E+00  0.00000000000E+00  0.13617110952E+04  0.13617110952E+04  0.00000000000E+00 0.  1.
         21   -1    0    0  501  503 -0.00000000000E+00 -0.00000000000E+00 -0.50650617059E+02  0.50650617059E+02  0.00000000000E+00 0.  1.
          6    2    1    2  501    0 -0.11054203414E+02  0.17706939507E+02  0.12494725612E+03  0.21378593321E+03  0.17221172232E+03 0.  0.
         24    2    3    3    0    0  0.57681731822E+02  0.72059771911E+00  0.47292330790E+02  0.10859305309E+03  0.78918851867E+02 0.  0.
         -6    2    1    2    0  502  0.11054203414E+02 -0.17706939507E+02  0.11861132220E+04  0.11985757790E+04  0.17112449139E+03 0.  0.
        -24    2    5    5    0    0 -0.23103099673E+02  0.45365449721E+02  0.79322297154E+03  0.79916410351E+03  0.82878251149E+02 0.  0.
          5    1    3    3  501    0 -0.68735935235E+02  0.16986341788E+02  0.77654925329E+02  0.10519288012E+03  0.47000000000E+01 0. -1.
        -13    1    4    4    0    0  0.46670225165E+02  0.58231485484E+01 -0.11617822626E+02  0.48445771524E+02  0.00000000000E+00 0.  1.
         14    1    4    4    0    0  0.11011506657E+02 -0.51025508293E+01  0.58910153416E+02  0.60147281562E+02  0.00000000000E+00 0. -1.
         -5    1    5    5    0  502  0.34157303086E+02 -0.63072389228E+02  0.39289025045E+03  0.39941167551E+03  0.47000000000E+01 0.  1.
         11    1    6    6    0    0 -0.25995297620E+02 -0.19314089251E+02  0.28479239509E+03  0.28662780368E+03  0.00000000000E+00 0. -1.
        -12    1    6    6    0    0  0.28921979471E+01  0.64679538972E+02  0.50843057646E+03  0.51253629983E+03  0.00000000000E+00 0.  1.
</event>
<event>
12    1  0.8633375E-002  0.2339767E+03  0.7818608E-02  0.1123969E+00
         21   -1    0    0  501  502  0.00000000000E+00  0.00000000000E+00  0.68043434592E+02  0.68043434592E+02  0.00000000000E+00 0.  1.
         21   -1    0    0  502  503 -0.00000000000E+00 -0.00000000000E+00 -0.10415686131E+04  0.10415686131E+04  0.00000000000E+00 0.  1.
         -6    2    1    2    0  503  0.54884491913E+02 -0.14831250647E+03 -0.75204604889E+03  0.78743488900E+03  0.17167276353E+03 0.  0.
        -24    2    3    3    0    0  0.19755379623E+02 -0.56600773230E+02 -0.17083664556E+03  0.19796770835E+03  0.80075786159E+02 0.  0.
          6    2    1    2  501    0 -0.54884491913E+02  0.14831250647E+03 -0.22147912962E+03  0.32217715869E+03  0.17244190239E+03 0.  0.
         24    2    5    5    0    0 -0.54866837138E+02  0.11542800140E+02 -0.93874601947E+02  0.13506500419E+03  0.79287504772E+02 0.  0.
          5    1    5    5  501    0 -0.17654775140E-01  0.13676970633E+03 -0.12760452767E+03  0.18711215450E+03  0.47000000000E+01 0. -1.
        -13    1    6    6    0    0  0.86211200002E+00  0.28541904014E+02 -0.52956564418E+01  0.29041823273E+02  0.00000000000E+00 0.  1.
         14    1    6    6    0    0 -0.55728949138E+02 -0.16999103874E+02 -0.88578945506E+02  0.10602318092E+03  0.00000000000E+00 0. -1.
         -5    1    3    3    0  503  0.35129112290E+02 -0.91711733239E+02 -0.58120940334E+03  0.58946718066E+03  0.47000000000E+01 0.  1.
         11    1    4    4    0    0  0.49501082686E+02 -0.21938884341E+02 -0.86250462260E+02  0.10183719396E+03  0.00000000000E+00 0. -1.
        -12    1    4    4    0    0 -0.29745703063E+02 -0.34661888889E+02 -0.84586183298E+02  0.96130514390E+02  0.00000000000E+00 0.  1.
</event>
<event>
12    1  0.8633375E-002  0.2144346E+03  0.7818608E-02  0.1139128E+00
         21   -1    0    0  503  502  0.00000000000E+00  0.00000000000E+00  0.24621315894E+03  0.24621315894E+03  0.00000000000E+00 0.  1.
         21   -1    0    0  501  503 -0.00000000000E+00 -0.00000000000E+00 -0.22037859264E+03  0.22037859264E+03  0.00000000000E+00 0. -1.
          6    2    1    2  501    0  0.33100006897E+02  0.12319395447E+03 -0.84300182166E+02  0.22552774038E+03  0.16578262904E+03 0.  0.
         24    2    3    3    0    0  0.85597449719E+00  0.83279648120E+02 -0.11748524191E+03  0.16424015871E+03  0.78967177891E+02 0.  0.
         -6    2    1    2    0  502 -0.33100006897E+02 -0.12319395447E+03  0.11013474847E+03  0.24106401120E+03  0.17236540779E+03 0.  0.
        -24    2    5    5    0    0 -0.15194086292E+02 -0.15186847775E+02 -0.17954938513E+01  0.84422298260E+02  0.81623526276E+02 0.  0.
          5    1    3    3  501    0  0.32244032400E+02  0.39914306346E+02  0.33185059740E+02  0.61287581665E+02  0.47000000000E+01 0. -1.
        -11    1    4    4    0    0  0.10201754622E+02  0.48958067991E+02 -0.99706280509E+01  0.50993937311E+02  0.00000000000E+00 0.  1.
         12    1    4    4    0    0 -0.93457801245E+01  0.34321580129E+02 -0.10751461385E+03  0.11324622140E+03  0.00000000000E+00 0. -1.
         -5    1    5    5    0  502 -0.17905920604E+02 -0.10800710669E+03  0.11193024232E+03  0.15664171295E+03  0.47000000000E+01 0.  1.
         13    1    6    6    0    0 -0.45847041802E+02  0.65246640427E+01 -0.56922691175E+01  0.46657522551E+02  0.00000000000E+00 0. -1.
        -14    1    6    6    0    0  0.30652955510E+02 -0.21711511818E+02  0.38967752662E+01  0.37764775709E+02  0.00000000000E+00 0.  1.
</event>
<event>
12    1  0.8633375E-002  0.1968893E+03  0.7818608E-02  0.1152400E+00
         21   -1    0    0  503  502  0.00000000000E+00  0.00000000000E+00  0.10202247768E+03  0.10202247768E+03  0.00000000000E+00 0.  1.
         21   -1    0    0  501  503 -0.00000000000E+00 -0.00000000000E+00 -0.38051939492E+03  0.38051939492E+03  0.00000000000E+00 0.  1.
          6    2    1    2  501    0  0.94538544027E+02  0.95301807901E+00 -0.14907423351E+03  0.24692435061E+03  0.17265591006E+03 0.  0.
         24    2    3    3    0    0  0.12879805573E+03 -0.22982805956E+02 -0.11859281910E+03  0.19498357242E+03  0.82687291899E+02 0.  0.
         -6    2    1    2    0  502 -0.94538544027E+02 -0.95301807901E+00 -0.12942268374E+03  0.23561752199E+03  0.17270478006E+03 0.  0.
        -24    2    5    5    0    0 -0.60444006855E+02  0.54338709473E+02 -0.98438593424E+01  0.99452923641E+02  0.56460686696E+02 0.  0.
          5    1    3    3  501    0 -0.34259511708E+02  0.23935824035E+02 -0.30481414404E+02  0.51940778188E+02  0.47000000000E+01 0. -1.
        -13    1    4    4    0    0 -0.67132809726E+01  0.12776625093E+02 -0.83823719340E+01  0.16690549704E+02  0.00000000000E+00 0.  1.
         14    1    4    4    0    0  0.13551133671E+03 -0.35759431049E+02 -0.11021044717E+03  0.17829302272E+03  0.00000000000E+00 0. -1.
         -5    1    5    5    0  502 -0.34094537172E+02 -0.55291727552E+02 -0.11957882439E+03  0.13616459835E+03  0.47000000000E+01 0.  1.
         13    1    6    6    0    0 -0.58351399641E+01  0.29287768466E+02 -0.23307550949E+02  0.37882240844E+02  0.00000000000E+00 0. -1.
        -14    1    6    6    0    0 -0.54608866891E+02  0.25050941007E+02  0.13463691606E+02  0.61570682797E+02  0.00000000000E+00 0.  1.
</event>
<event>
12    1  0.8633375E-002  0.1920282E+03  0.7818608E-02  0.1157073E+00
         21   -1    0    0  503  502  0.00000000000E+00  0.00000000000E+00  0.31849978591E+03  0.31849978591E+03  0.00000000000E+00 0.  1.
         21   -1    0    0  501  503 -0.00000000000E+00 -0.00000000000E+00 -0.11979386810E+03  0.11979386810E+03  0.00000000000E+00 0.  1.
          6    2    1    2  501    0 -0.84060131278E+02  0.12092344141E+02  0.14439772091E+03  0.23873365354E+03  0.17009034385E+03 0.  0.
         24    2    3    3    0    0 -0.62551463316E+02  0.70301705541E+02  0.11938512136E+03  0.17166150814E+03  0.79748672788E+02 0.  0.
         -6    2    1    2    0  502  0.84060131278E+02 -0.12092344141E+02  0.54308196899E+02  0.19956000048E+03  0.17222799738E+03 0.  0.
        -24    2    5    5    0    0  0.83177310942E+02  0.52777427610E+02  0.37806768925E+02  0.13245371326E+03  0.80066924875E+02 0.  0.
          5    1    3    3  501    0 -0.21508667962E+02 -0.58209361400E+02  0.25012599556E+02  0.67072145401E+02  0.47000000000E+01 0. -1.
        -13    1    4    4    0    0  0.27684285908E+01  0.55269338541E+02  0.43317479197E+02  0.70276368600E+02  0.00000000000E+00 0.  1.
         14    1    4    4    0    0 -0.65319891907E+02  0.15032367000E+02  0.76067642158E+02  0.10138513954E+03  0.00000000000E+00 0. -1.
         -5    1    5    5    0  502  0.88282033584E+00 -0.64869771751E+02  0.16501427975E+02  0.67106287216E+02  0.47000000000E+01 0.  1.
         11    1    6    6    0    0  0.65411937308E+02  0.58986478384E+02 -0.23439374826E+01  0.88111407987E+02  0.00000000000E+00 0. -1.
        -12    1    6    6    0    0  0.17765373635E+02 -0.62090507738E+01  0.40150706407E+02  0.44342305273E+02  0.00000000000E+00 0.  1.
</event>
<event>
12    1  0.8633375E-002  0.2389590E+03  0.7818608E-02  0.1120698E+00
         21   -1    0    0  501  502  0.00000000000E+00  0.00000000000E+00  0.99547064850E+03  0.99547064850E+03  0.00000000000E+00 0. -1.
         21   -1    0    0  502  503 -0.00000000000E+00 -0.00000000000E+00 -0.64023061479E+02  0.64023061479E+02  0.00000000000E+00 0.  1.
         -6    2    1    2    0  503  0.14166035451E+03  0.84228773590E+02  0.64148032152E+03  0.68454249461E+03  0.17302971332E+03 0.  0.
        -24    2    3    3    0    0  0.58011554877E+02 -0.14405121128E+01  0.43875884458E+03  0.44905484014E+03  0.75983617893E+02 0.  0.
          6    2    1    2  501    0 -0.14166035451E+03 -0.84228773590E+02  0.28996726550E+03  0.37495121537E+03  0.17130457233E+03 0.  0.
         24    2    5    5    0    0 -0.73578284802E+02 -0.77207346632E+02  0.27374171098E+03  0.30445421350E+03  0.79894339087E+02 0.  0.
          5    1    5    5  501    0 -0.68082069711E+02 -0.70214269576E+01  0.16225554520E+02  0.70497001867E+02  0.47000000000E+01 0. -1.
        -13    1    6    6    0    0 -0.46599771656E+02 -0.47208393959E+02  0.68765541998E+02  0.95545125175E+02  0.00000000000E+00 0.  1.
         14    1    6    6    0    0 -0.26978513146E+02 -0.29998952673E+02  0.20497616898E+03  0.20890908832E+03  0.00000000000E+00 0. -1.
         -5    1    3    3    0  503  0.83648799636E+02  0.85669285702E+02  0.20272147694E+03  0.23548765447E+03  0.47000000000E+01 0.  1.
         13    1    4    4    0    0  0.44121250845E+02 -0.26505248511E+02  0.14429783143E+03  0.15320273213E+03  0.00000000000E+00 0. -1.
        -14    1    4    4    0    0  0.13890304032E+02  0.25064736398E+02  0.29446101314E+03  0.29585210802E+03  0.00000000000E+00 0.  1.
</event>
<event>
12    1  0.8633375E-002  0.1803808E+03  0.7818608E-02  0.1168106E+00
         21   -1    0    0  503  502  0.00000000000E+00  0.00000000000E+00  0.92044932616E+02  0.92044932616E+02  0.00000000000E+00 0. -1.
         21   -1    0    0  501  503 -0.00000000000E+00 -0.00000000000E+00 -0.36134808587E+03  0.36134808587E+03  0.00000000000E+00 0. -1.
          6    2    1    2  501    0 -0.46983706253E+02 -0.35072332752E+02 -0.90259847919E+02  0.19924006825E+03  0.16766701367E+03 0.  0.
         24    2    3    3    0    0 -0.16286126737E+02 -0.95336782945E+01 -0.12268628916E+03  0.14758613954E+03  0.79834917734E+02 0.  0.
         -6    2    1    2    0  502  0.46983706253E+02  0.35072332752E+02 -0.17904330533E+03  0.25415295023E+03  0.17058628242E+03 0.  0.
        -24    2    5    5    0    0  0.24543810468E+01 -0.52091535309E+01 -0.17698532627E+03  0.19388866381E+03  0.78967391810E+02 0.  0.
          5    1    3    3  501    0 -0.30697579516E+02 -0.25538654457E+02  0.32426441246E+02  0.51653928713E+02  0.47000000000E+01 0. -1.
        -13    1    4    4    0    0 -0.37586974317E+02  0.16999342177E+02 -0.95516134201E+02  0.10404369354E+03  0.00000000000E+00 0.  1.
         14    1    4    4    0    0  0.21300847580E+02 -0.26533020472E+02 -0.27170154964E+02  0.43542446001E+02  0.00000000000E+00 0. -1.
         -5    1    5    5    0  502  0.44529325206E+02  0.40281486283E+02 -0.20579790581E+01  0.60264286424E+02  0.47000000000E+01 0.  1.
         13    1    6    6    0    0 -0.21680074354E+02  0.26527017141E+02 -0.11659416231E+03  0.12152327739E+03  0.00000000000E+00 0. -1.
        -14    1    6    6    0    0  0.24134455401E+02 -0.31736170672E+02 -0.60391163963E+02  0.72365386417E+02  0.00000000000E+00 0.  1.
</event>
<event>
12    1  0.8633375E-002  0.2005284E+03  0.7818608E-02  0.1149876E+00
         21   -1    0    0  501  502  0.00000000000E+00  0.00000000000E+00  0.17749716641E+03  0.17749716641E+03  0.00000000000E+00 0.  1.
         21   -1    0    0  502  503 -0.00000000000E+00 -0.00000000000E+00 -0.30302005018E+03  0.30302005018E+03  0.00000000000E+00 0.  1.
         -6    2    1    2    0  503 -0.84865594575E+02  0.55261516276E+02 -0.18619353735E+03  0.27364147522E+03  0.17307691725E+03 0.  0.
        -24    2    3    3    0    0 -0.39433977424E+02  0.20623654057E+02 -0.19530998538E+03  0.21559827613E+03  0.79726109879E+02 0.  0.
          6    2    1    2  501    0  0.84865594575E+02 -0.55261516276E+02  0.60670653583E+02  0.20687574137E+03  0.16988419537E+03 0.  0.
         24    2    5    5    0    0  0.65761730784E+02  0.19003581806E+02 -0.93929200946E+01  0.10289854790E+03  0.76250526917E+02 0.  0.
          5    1    5    5  501    0  0.19103863791E+02 -0.74265098082E+02  0.70063573677E+02  0.10397719347E+03  0.47000000000E+01 0. -1.
        -13    1    6    6    0    0  0.67234015771E+02 -0.18473805536E+00 -0.30937241771E+02  0.74010539339E+02  0.00000000000E+00 0.  1.
         14    1    6    6    0    0 -0.14722849874E+01  0.19188319862E+02  0.21544321676E+02  0.28888008562E+02  0.00000000000E+00 0. -1.
         -5    1    3    3    0  503 -0.45431617151E+02  0.34637862219E+02  0.91164480304E+01  0.58043199091E+02  0.47000000000E+01 0.  1.
         13    1    4    4    0    0  0.14810724060E+00  0.40821541526E+02 -0.55499872692E+02  0.68895979978E+02  0.00000000000E+00 0. -1.
        -14    1    4    4    0    0 -0.39582084665E+02 -0.20197887469E+02 -0.13981011269E+03  0.14670229615E+03  0.00000000000E+00 0.  1.
</event>
<event>
12    1  0.8633375E-002  0.2218684E+03  0.7818608E-02  0.1132731E+00
         21   -1    0    0  501  502  0.00000000000E+00  0.00000000000E+00  0.11998859047E+04  0.11998859047E+04  0.00000000000E+00 0.  1.
         21   -1    0    0  502  503 -0.00000000000E+00 -0.00000000000E+00 -0.93838769302E+02  0.93838769302E+02  0.00000000000E+00 0. -1.
         -6    2    1    2    0  503 -0.28913867343E+01 -0.13809036482E+03  0.67359316364E+02  0.23186823175E+03  0.17363263064E+03 0.  0.
        -24    2    3    3    0    0 -0.17284363659E+02 -0.16212112264E+03  0.28240972953E+02  0.18352601524E+03  0.79386636668E+02 0.  0.
          6    2    1    2  501    0  0.28913867343E+01  0.13809036482E+03  0.10386878191E+04  0.10618564423E+04  0.17201572476E+03 0.  0.
         24    2    5    5    0    0  0.17808809956E+02  0.36850897204E+02  0.21431648712E+03  0.23114461363E+03  0.76296352624E+02 0.  0.
          5    1    5    5  501    0 -0.14917423222E+02  0.10123946762E+03  0.82437133194E+03  0.83071182864E+03  0.47000000000E+01 0. -1.
        -13    1    6    6    0    0  0.30755056542E+02 -0.64017846090E+01  0.14540796810E+03  0.14876267521E+03  0.00000000000E+00 0.  1.
         14    1    6    6    0    0 -0.12946246586E+02  0.43252681813E+02  0.68908519018E+02  0.82381938420E+02  0.00000000000E+00 0. -1.
         -5    1    3    3    0  503  0.14392976924E+02  0.24030757823E+02  0.39118343411E+02  0.48342216515E+02  0.47000000000E+01 0.  1.
         13    1    4    4    0    0  0.19220400011E+02 -0.76323510249E+01 -0.51435831029E+01  0.21310396662E+02  0.00000000000E+00 0. -1.
        -14    1    4    4    0    0 -0.36504763670E+02 -0.15448877162E+03  0.33384556055E+02  0.16221561858E+03  0.00000000000E+00 0.  1.
</event>
<event>
12    1  0.8633375E-002  0.1935465E+03  0.7818608E-02  0.1155504E+00
         21   -1    0    0  503  502  0.00000000000E+00  0.00000000000E+00  0.11234823882E+03  0.11234823882E+03  0.00000000000E+00 0. -1.
         21   -1    0    0  501  503 -0.00000000000E+00 -0.00000000000E+00 -0.70865367057E+03  0.70865367057E+03  0.00000000000E+00 0. -1.
          6    2    1    2  501    0  0.15895844806E+02  0.86185806794E+02 -0.59782018010E+03  0.62837028602E+03  0.17256760252E+03 0.  0.
         24    2    3    3    0    0  0.49846643428E+02 -0.75589082284E+01 -0.31968067753E+03  0.33286326205E+03  0.77848511128E+02 0.  0.
         -6    2    1    2    0  502 -0.15895844806E+02 -0.86185806794E+02  0.15147483532E+01  0.19263162337E+03  0.17153418518E+03 0.  0.
        -24    2    5    5    0    0 -0.64949941664E+00  0.31016858120E+01  0.32720450552E+02  0.96711900514E+02  0.90953402972E+02 0.  0.
          5    1    3    3  501    0 -0.33950798622E+02  0.93744715022E+02 -0.27813950257E+03  0.29550702397E+03  0.47000000000E+01 0. -1.
        -13    1    4    4    0    0  0.61551509315E+02  0.16428644537E+02 -0.18787408958E+03  0.19838135546E+03  0.00000000000E+00 0.  1.
         14    1    4    4    0    0 -0.11704865887E+02 -0.23987552765E+02 -0.13180658795E+03  0.13448190659E+03  0.00000000000E+00 0. -1.
         -5    1    5    5    0  502 -0.15246345390E+02 -0.89287492606E+02 -0.31205702199E+02  0.95919722858E+02  0.47000000000E+01 0.  1.
         13    1    6    6    0    0 -0.36842267086E+02 -0.38295603012E+01 -0.11840959635E+02  0.38887356572E+02  0.00000000000E+00 0. -1.
        -14    1    6    6    0    0  0.36192767669E+02  0.69312461132E+01  0.44561410186E+02  0.57824543941E+02  0.00000000000E+00 0.  1.
</event>
<event>
12    1  0.8633375E-002  0.2799933E+03  0.7818608E-02  0.1096325E+00
         21   -1    0    0  501  502  0.00000000000E+00  0.00000000000E+00  0.15492741868E+03  0.15492741868E+03  0.00000000000E+00 0. -1.
         21   -1    0    0  502  503 -0.00000000000E+00 -0.00000000000E+00 -0.52832249773E+03  0.52832249773E+03  0.00000000000E+00 0.  1.
         -6    2    1    2    0  503  0.21177303382E+03  0.65927346484E+02 -0.26741151448E+03  0.38386931877E+03  0.16325594308E+03 0.  0.
        -24    2    3    3    0    0  0.90226150214E+02  0.81850053566E+02 -0.20158038495E+03  0.24464645740E+03  0.66159262902E+02 0.  0.
          6    2    1    2  501    0 -0.21177303382E+03 -0.65927346484E+02 -0.10598356458E+03  0.29938059764E+03  0.17088590759E+03 0.  0.
         24    2    5    5    0    0 -0.19418197059E+03 -0.42688920515E+01 -0.53283563278E+02  0.21625063525E+03  0.78742224955E+02 0.  0.
          5    1    5    5  501    0 -0.17591063232E+02 -0.61658454433E+02 -0.52700001300E+02  0.83129962382E+02  0.47000000000E+01 0. -1.
        -11    1    6    6    0    0 -0.33231708633E+02 -0.29049395062E+02  0.22484448603E+01  0.44195806548E+02  0.00000000000E+00 0.  1.
         12    1    6    6    0    0 -0.16095026196E+03  0.24780503010E+02 -0.55532008139E+02  0.17205482871E+03  0.00000000000E+00 0. -1.
         -5    1    3    3    0  503  0.12154688361E+03 -0.15922707082E+02 -0.65831129525E+02  0.13922286138E+03  0.47000000000E+01 0.  1.
         11    1    4    4    0    0  0.20849461967E+02  0.17746790460E+01 -0.83143397636E+02  0.85736072458E+02  0.00000000000E+00 0. -1.
        -12    1    4    4    0    0  0.69376688247E+02  0.80075374520E+02 -0.11843698732E+03  0.15891038494E+03  0.00000000000E+00 0.  1.
</event>
<event>
12    1  0.8633375E-002  0.2140927E+03  0.7818608E-02  0.1139380E+00
         21   -1    0    0  503  502  0.00000000000E+00  0.00000000000E+00  0.91715275609E+03  0.91715275609E+03  0.00000000000E+00 0.  1.
         21   -1    0    0  501  503 -0.00000000000E+00 -0.00000000000E+00 -0.13113651668E+03  0.13113651668E+03  0.00000000000E+00 0.  1.
          6    2    1    2  501    0 -0.93411671533E+02  0.72629730438E+02 -0.20579418956E+02  0.21507950184E+03  0.17842326503E+03 0.  0.
         24    2    3    3    0    0 -0.10075129907E+03  0.95422572111E+02  0.26518892678E+02  0.16203494771E+03  0.79345958168E+02 0.  0.
         -6    2    1    2    0  502  0.93411671533E+02 -0.72629730438E+02  0.80659565836E+03  0.83320977093E+03  0.17216604824E+03 0.  0.
        -24    2    5    5    0    0  0.34317293337E+02 -0.80633961514E+02  0.70853517420E+03  0.71834392830E+03  0.79475743952E+02 0.  0.
          5    1    3    3  501    0  0.73396275356E+01 -0.22792841673E+02 -0.47098311634E+02  0.53044554128E+02  0.47000000000E+01 0. -1.
        -13    1    4    4    0    0 -0.11159558624E+03  0.70173243520E+02  0.26951312668E+02  0.13455196851E+03  0.00000000000E+00 0.  1.
         14    1    4    4    0    0  0.10844287175E+02  0.25249328591E+02 -0.43241999012E+00  0.27482979199E+02  0.00000000000E+00 0. -1.
         -5    1    5    5    0  502  0.59094378195E+02  0.80042310759E+01  0.98060484158E+02  0.11486584263E+03  0.47000000000E+01 0.  1.
         11    1    6    6    0    0 -0.26978139187E+01  0.13765346778E+02  0.45894793030E+02  0.47990571982E+02  0.00000000000E+00 0. -1.
        -12    1    6    6    0    0  0.37015107256E+02 -0.94399308292E+02  0.66264038117E+03  0.67035335632E+03  0.00000000000E+00 0.  1.
</event>
<event>
12    1  0.8633375E-002  0.1762386E+03  0.7818608E-02  0.1171672E+00
         21   -1    0    0  503  502  0.00000000000E+00  0.00000000000E+00  0.88645980157E+02  0.88645980157E+02  0.00000000000E+00 0. -1.
         21   -1    0    0  501  503 -0.00000000000E+00 -0.00000000000E+00 -0.56976361505E+03  0.56976361505E+03  0.00000000000E+00 0. -1.
          6    2    1    2  501    0  0.23089115609E+02 -0.29786305460E+02 -0.44579592231E+03  0.47936837338E+03  0.17216184769E+03 0.  0.
         24    2    3    3    0    0 -0.29021322970E+02 -0.41539873099E+02 -0.39370194231E+03  0.40460530153E+03  0.78335384109E+02 0.  0.
         -6    2    1    2    0  502 -0.23089115609E+02  0.29786305460E+02 -0.35321712587E+02  0.17904122183E+03  0.17142871545E+03 0.  0.
        -24    2    5    5    0    0 -0.23222963193E+01 -0.32893915994E+02 -0.62372450958E+02  0.10752966058E+03  0.81147412139E+02 0.  0.
          5    1    3    3  501    0  0.52110438578E+02  0.11753567639E+02 -0.52093980001E+02  0.74763071857E+02  0.47000000000E+01 0. -1.
        -11    1    4    4    0    0 -0.26092743556E+02 -0.31723918660E+02 -0.73181496683E+02  0.83921211492E+02  0.00000000000E+00 0.  1.
         12    1    4    4    0    0 -0.29285794141E+01 -0.98159544386E+01 -0.32052044562E+03  0.32068409003E+03  0.00000000000E+00 0. -1.
         -5    1    5    5    0  502 -0.20766819289E+02  0.62680221455E+02  0.27050738372E+02  0.71511561243E+02  0.47000000000E+01 0.  1.
         13    1    6    6    0    0 -0.27831713172E+02 -0.49275989799E+02 -0.34079260914E+02  0.66061512647E+02  0.00000000000E+00 0. -1.
        -14    1    6    6    0    0  0.25509416853E+02  0.16382073805E+02 -0.28293190044E+02  0.41468147935E+02  0.00000000000E+00 0.  1.
</event>
<event>
12    1  0.8633375E-002  0.2459507E+03  0.7818608E-02  0.1115979E+00
         21   -1    0    0  503  502  0.00000000000E+00  0.00000000000E+00  0.22105066077E+03  0.22105066077E+03  0.00000000000E+00 0. -1.
         21   -1    0    0  501  503 -0.00000000000E+00 -0.00000000000E+00 -0.41988348111E+03  0.41988348111E+03  0.00000000000E+00 0. -1.
          6    2    1    2  501    0  0.18475949657E+01  0.17482583813E+03 -0.28885565290E+03  0.37902604826E+03  0.17220821630E+03 0.  0.
         24    2    3    3    0    0 -0.28137471251E+02  0.18859860672E+03 -0.21900388035E+03  0.30162996645E+03  0.81589124940E+02 0.  0.
         -6    2    1    2    0  502 -0.18475949657E+01 -0.17482583813E+03  0.90022832558E+02  0.26190809362E+03  0.17298627644E+03 0.  0.
        -24    2    5    5    0    0  0.55410082056E+02 -0.57815433718E+02  0.18260307966E+02  0.11310679573E+03  0.77761216700E+02 0.  0.
          5    1    3    3  501    0  0.29985066216E+02 -0.13772768589E+02 -0.69851772549E+02  0.77396081806E+02  0.47000000000E+01 0. -1.
        -13    1    4    4    0    0 -0.52266000050E+02  0.78671902907E+02 -0.90492664373E+02  0.13080491342E+03  0.00000000000E+00 0.  1.
         14    1    4    4    0    0  0.24128528799E+02  0.10992670381E+03 -0.12851121598E+03  0.17082505303E+03  0.00000000000E+00 0. -1.
         -5    1    5    5    0  502 -0.57257677022E+02 -0.11701040441E+03  0.71762524591E+02  0.14880129789E+03  0.47000000000E+01 0.  1.
         11    1    6    6    0    0 -0.31233673664E+01  0.50301867440E+01  0.26197884091E+02  0.26858654718E+02  0.00000000000E+00 0. -1.
        -12    1    6    6    0    0  0.58533449422E+02 -0.62845620462E+02 -0.79375761247E+01  0.86248141007E+02  0.00000000000E+00 0.  1.
</event>
<event>
12    1  0.8633375E-002  0.2906230E+03  0.7818608E-02  0.1090028E+00
         21   -1    0    0  503  502  0.00000000000E+00  0.00000000000E+00  0.10669781676E+04  0.10669781676E+04  0.00000000000E+00 0. -1.
         21   -1    0    0  501  503 -0.00000000000E+00 -0.00000000000E+00 -0.18803838137E+03  0.18803838137E+03  0.00000000000E+00 0. -1.
          6    2    1    2  501    0  0.18716589651E+03  0.14084001093E+03 -0.38047645466E+02  0.29307701987E+03  0.17198701914E+03 0.  0.
         24    2    3    3    0    0  0.20720505899E+03  0.97779044689E+02 -0.33738759554E+02  0.24515550753E+03  0.80425374890E+02 0.  0.
         -6    2    1    2    0  502 -0.18716589651E+03 -0.14084001093E+03  0.91698743165E+03  0.96193952906E+03  0.17203117819E+03 0.  0.
        -24    2    5    5    0    0 -0.11589095859E+03 -0.13559333309E+03  0.80977968015E+03  0.83300839866E+03  0.79646692357E+02 0.  0.
          5    1    3    3  501    0 -0.20039162481E+02  0.43060966246E+02 -0.43088859118E+01  0.47921512338E+02  0.47000000000E+01 0. -1.
        -11    1    4    4    0    0  0.10386985573E+02  0.15993068778E+02  0.17572174565E+02  0.25931622340E+02  0.00000000000E+00 0.  1.
         12    1    4    4    0    0  0.19681807341E+03  0.81785975911E+02 -0.51310934119E+02  0.21922388519E+03  0.00000000000E+00 0. -1.
         -5    1    5    5    0  502 -0.71274937913E+02 -0.52466778424E+01  0.10720775151E+03  0.12893113040E+03  0.47000000000E+01 0.  1.
         11    1    6    6    0    0 -0.11222483421E+03 -0.90669788501E+02  0.51597126480E+03  0.53576279272E+03  0.00000000000E+00 0. -1.
        -12    1    6    6    0    0 -0.36661243853E+01 -0.44923544592E+02  0.29380841535E+03  0.29724560595E+03  0.00000000000E+00 0.  1.
</event>
<event>
12    1  0.8633375E-002  0.2275074E+03  0.7818608E-02  0.1129326E+00
         21   -1    0    0  503  502  0.00000000000E+00  0.00000000000E+00  0.44098810707E+02  0.44098810707E+02  0.00000000000E+00 0. -1.
         21   -1    0    0  501  503 -0.00000000000E+00 -0.00000000000E+00 -0.11476778595E+04  0.11476778595E+04  0.00000000000E+00 0.  1.
          6    2    1    2  501    0 -0.10426814248E+03 -0.94659551266E+02 -0.56236376268E+03  0.60664043203E+03  0.17868222076E+03 0.  0.
         24    2    3    3    0    0 -0.35728249462E+02 -0.94312450747E+02 -0.49101694431E+03  0.50759349414E+03  0.79888481768E+02 0.  0.
         -6    2    1    2    0  502  0.10426814248E+03  0.94659551266E+02 -0.54121528614E+03  0.58513623821E+03  0.17215735571E+03 0.  0.
        -24    2    5    5    0    0  0.38202518532E+02  0.12350744139E+03 -0.35261687625E+03  0.38317505964E+03  0.75966732286E+02 0.  0.
          5    1    3    3  501    0 -0.68539893019E+02 -0.34710051851E+00 -0.71346818372E+02  0.99046937892E+02  0.47000000000E+01 0. -1.
        -11    1    4    4    0    0 -0.11844477813E+02 -0.30331488838E+02 -0.34344480304E+03  0.34498496142E+03  0.00000000000E+00 0.  1.
         12    1    4    4    0    0 -0.23883771649E+02 -0.63980961909E+02 -0.14757214127E+03  0.16260853272E+03  0.00000000000E+00 0. -1.
         -5    1    5    5    0  502  0.66065623949E+02 -0.28847890129E+02 -0.18859840990E+03  0.20196117857E+03  0.47000000000E+01 0.  1.
         11    1    6    6    0    0  0.56395804851E+02  0.54188169024E+02 -0.18988619751E+03  0.20536214956E+03  0.00000000000E+00 0. -1.
        -12    1    6    6    0    0 -0.18193286320E+02  0.69319272370E+02 -0.16273067874E+03  0.17781291008E+03  0.00000000000E+00 0.  1.
</event>
<event>
12    1  0.8633375E-002  0.4705433E+03  0.7818608E-02  0.1022028E+00
         21   -1    0    0  501  502  0.00000000000E+00  0.00000000000E+00  0.29276907839E+03  0.29276907839E+03  0.00000000000E+00 0. -1.
         21   -1    0    0  502  503 -0.00000000000E+00 -0.00000000000E+00 -0.20831423731E+04  0.20831423731E+04  0.00000000000E+00 0.  1.
         -6    2    1    2    0  503 -0.26619037457E+03  0.34456890327E+03 -0.18466655269E+04  0.19056716749E+04  0.17839820624E+03 0.  0.
        -24    2    3    3    0    0 -0.25041255881E+03  0.25370933885E+03 -0.16247739024E+04  0.16653336153E+04  0.79818156089E+02 0.  0.
          6    2    1    2  501    0  0.26619037457E+03 -0.34456890327E+03  0.56292232164E+02  0.47023977653E+03  0.16843867553E+03 0.  0.
         24    2    5    5    0    0  0.12612739756E+03 -0.10672319572E+03 -0.14587376347E+02  0.18522358921E+03  0.82444075184E+02 0.  0.
          5    1    5    5  501    0  0.14006297701E+03 -0.23784570755E+03  0.70879608512E+02  0.28501618732E+03  0.47000000000E+01 0. -1.
        -11    1    6    6    0    0  0.10941820977E+03 -0.41080434222E+02 -0.11008746521E+02  0.11739309692E+03  0.00000000000E+00 0.  1.
         12    1    6    6    0    0  0.16709187793E+02 -0.65642761494E+02 -0.35786298266E+01  0.67830492293E+02  0.00000000000E+00 0. -1.
         -5    1    3    3    0  503 -0.15777815760E+02  0.90859564420E+02 -0.22189162442E+03  0.24033805962E+03  0.47000000000E+01 0.  1.
         13    1    4    4    0    0 -0.51622329729E+02  0.13402035568E+02 -0.25099652273E+03  0.25660033887E+03  0.00000000000E+00 0. -1.
        -14    1    4    4    0    0 -0.19879022908E+03  0.24030730328E+03 -0.13737773797E+04  0.14087332765E+04  0.00000000000E+00 0.  1.
</event>
<event>
12    1  0.8633375E-002  0.2675884E+03  0.7818608E-02  0.1102714E+00
         21   -1    0    0  501  502  0.00000000000E+00  0.00000000000E+00  0.38238618034E+03  0.38238618034E+03  0.00000000000E+00 0. -1.
         21   -1    0    0  502  503 -0.00000000000E+00 -0.00000000000E+00 -0.18751766747E+03  0.18751766747E+03  0.00000000000E+00 0. -1.
         -6    2    1    2    0  503  0.26123466993E+02 -0.20365862729E+03  0.11203566472E+03  0.29009570689E+03  0.17159328946E+03 0.  0.
        -24    2    3    3    0    0  0.20375469315E+01 -0.19225997218E+03  0.14003637899E+03  0.25115741104E+03  0.80633796760E+02 0.  0.
          6    2    1    2  501    0 -0.26123466993E+02  0.20365862729E+03  0.82832848155E+02  0.27980814093E+03  0.17109074492E+03 0.  0.
         24    2    5    5    0    0  0.97272851421E+00  0.20807228982E+02  0.26622466132E+02  0.86545276613E+02  0.79670836712E+02 0.  0.
          5    1    5    5  501    0 -0.27096195507E+02  0.18285139831E+03  0.56210382023E+02  0.19326286431E+03  0.47000000000E+01 0. -1.
        -13    1    6    6    0    0  0.21183429372E+02  0.38721346118E+02  0.37018792774E+02  0.57606174527E+02  0.00000000000E+00 0.  1.
         14    1    6    6    0    0 -0.20210700857E+02 -0.17914117136E+02 -0.10396326642E+02  0.28939102086E+02  0.00000000000E+00 0. -1.
         -5    1    3    3    0  503  0.24085920061E+02 -0.11398655111E+02 -0.28000714272E+02  0.38938295844E+02  0.47000000000E+01 0.  1.
         11    1    4    4    0    0 -0.25642400516E+02 -0.17002078306E+03  0.10611962393E+03  0.20205438367E+03  0.00000000000E+00 0. -1.
        -12    1    4    4    0    0  0.27679947448E+02 -0.22239189122E+02  0.33916755057E+02  0.49103027372E+02  0.00000000000E+00 0.  1.
</event>
<event>
12    1  0.8633375E-002  0.1792596E+03  0.7818608E-02  0.1168906E+00
         21   -1    0    0  503  502  0.00000000000E+00  0.00000000000E+00  0.53603492797E+03  0.53603492797E+03  0.00000000000E+00 0.  1.
         21   -1    0    0  501  503 -0.00000000000E+00 -0.00000000000E+00 -0.74297211041E+02  0.74297211041E+02  0.00000000000E+00 0.  1.
          6    2    1    2  501    0  0.28761570101E+02  0.38115602359E+02  0.95141698253E+02  0.20294324366E+03  0.17278307308E+03 0.  0.
         24    2    3    3    0    0  0.69026156251E+02 -0.20791077538E+02  0.43576863603E+02  0.11478284435E+03  0.77969732357E+02 0.  0.
         -6    2    1    2    0  502 -0.28761570101E+02 -0.38115602359E+02  0.36659601868E+03  0.40738889535E+03  0.17115210804E+03 0.  0.
        -24    2    5    5    0    0 -0.76358719410E+02 -0.58843336683E+02  0.24831785061E+03  0.27813355645E+03  0.80020797237E+02 0.  0.
          5    1    3    3  501    0 -0.40264586150E+02  0.58906679897E+02  0.51564834650E+02  0.88160399312E+02  0.47000000000E+01 0. -1.
        -11    1    4    4    0    0  0.20311356186E+02 -0.43985000622E+02  0.55301586582E+01  0.48762835486E+02  0.00000000000E+00 0.  1.
         12    1    4    4    0    0  0.48714800065E+02  0.23193923083E+02  0.38046704945E+02  0.66020008865E+02  0.00000000000E+00 0. -1.
         -5    1    5    5    0  502  0.47597149310E+02  0.20727734324E+02  0.11827816807E+03  0.12925533890E+03  0.47000000000E+01 0.  1.
         13    1    6    6    0    0 -0.18208256252E+02 -0.45310290056E+02  0.45622221168E+02  0.66827764028E+02  0.00000000000E+00 0. -1.
        -14    1    6    6    0    0 -0.58150463158E+02 -0.13533046627E+02  0.20269562944E+03  0.21130579242E+03  0.00000000000E+00 0.  1.
</event>
<event>
12    1  0.8633375E-002  0.2029058E+03  0.7818608E-02  0.1147540E+00
         21   -1    0    0  503  502  0.00000000000E+00  0.00000000000E+00  0.54846315849E+03  0.54846315849E+03  0.00000000000E+00 0.  1.
         21   -1    0    0  501  503 -0.00000000000E+00 -0.00000000000E+00 -0.98463583489E+02  0.98463583489E+02  0.00000000000E+00 0.  1.
          6    2    1    2  501    0 -0.13740650022E+02  0.10789728955E+03  0.38358592190E+03  0.43342843000E+03  0.16997474488E+03 0.  0.
         24    2    3    3    0    0 -0.33022271771E+02  0.13106792644E+03  0.23890971511E+03  0.28557054498E+03  0.78761744602E+02 0.  0.
         -6    2    1    2    0  502  0.13740650022E+02 -0.10789728955E+03  0.66413653100E+02  0.21349831198E+03  0.17128959497E+03 0.  0.
        -24    2    5    5    0    0  0.71298374289E+02 -0.68600732378E+02  0.67348185233E+02  0.14364078283E+03  0.79419001370E+02 0.  0.
          5    1    3    3  501    0  0.19281621749E+02 -0.23170636892E+02  0.14467620679E+03  0.14785788502E+03  0.47000000000E+01 0. -1.
        -11    1    4    4    0    0  0.10352370558E+02  0.73882309565E+02  0.71110404484E+02  0.10306530390E+03  0.00000000000E+00 0.  1.
         12    1    4    4    0    0 -0.43374642329E+02  0.57185616877E+02  0.16779931062E+03  0.18250524108E+03  0.00000000000E+00 0. -1.
         -5    1    5    5    0  502 -0.57557724266E+02 -0.39296557171E+02 -0.93453213295E+00  0.69857529147E+02  0.47000000000E+01 0.  1.
         11    1    6    6    0    0  0.31834811632E+02  0.12411210280E+02  0.61652687335E+01  0.34720367377E+02  0.00000000000E+00 0. -1.
        -12    1    6    6    0    0  0.39463562657E+02 -0.81011942658E+02  0.61182916499E+02  0.10892041545E+03  0.00000000000E+00 0.  1.
</event>
<event>
12    1  0.8633375E-002  0.1909694E+03  0.7818608E-02  0.1158728E+00
         21   -1    0    0  501  502  0.00000000000E+00  0.00000000000E+00  0.33184824731E+03  0.33184824731E+03  0.00000000000E+00 0.  1.
         21   -1    0    0  502  503 -0.00000000000E+00 -0.00000000000E+00 -0.10985472557E+03  0.10985472557E+03  0.00000000000E+00 0.  1.
         -6    2    1    2    0  503  0.69504910796E+02  0.37859122950E+02  0.74176274051E+02  0.20020919940E+03  0.16827762204E+03 0.  0.
        -24    2    3    3    0    0  0.52567093912E+02 -0.42399582912E+02  0.34454008846E+02  0.10894969107E+03  0.78242779002E+02 0.  0.
          6    2    1    2  501    0 -0.69504910796E+02 -0.37859122950E+02  0.14781724769E+03  0.24149377348E+03  0.17379602441E+03 0.  0.
         24    2    5    5    0    0 -0.71939671780E+02  0.15666269830E+02  0.15281269443E+03  0.18747581145E+03  0.79841793035E+02 0.  0.
          5    1    5    5  501    0  0.24347609833E+01 -0.53525392780E+02 -0.49954467443E+01  0.54017962027E+02  0.47000000000E+01 0. -1.
        -11    1    6    6    0    0 -0.25997711798E+02  0.18694747227E+02  0.46908630687E+01  0.32363232053E+02  0.00000000000E+00 0.  1.
         12    1    6    6    0    0 -0.45941959981E+02 -0.30284773962E+01  0.14812183136E+03  0.15511257940E+03  0.00000000000E+00 0. -1.
         -5    1    3    3    0  503  0.16937816884E+02  0.80258705862E+02  0.39722265206E+02  0.91259508329E+02  0.47000000000E+01 0.  1.
         11    1    4    4    0    0  0.21055764854E+02  0.20445401179E+02 -0.26287870302E+01  0.29466424693E+02  0.00000000000E+00 0. -1.
        -12    1    4    4    0    0  0.31511329059E+02 -0.62844984091E+02  0.37082795876E+02  0.79483266380E+02  0.00000000000E+00 0.  1.
</event>
<event>
12    1  0.8633375E-002  0.2062921E+03  0.7818608E-02  0.1144570E+00
         21   -1    0    0  503  502  0.00000000000E+00  0.00000000000E+00  0.19583849086E+03  0.19583849086E+03  0.00000000000E+00 0.  1.
         21   -1    0    0  501  503 -0.00000000000E+00 -0.00000000000E+00 -0.30154885250E+03  0.30154885250E+03  0.00000000000E+00 0.  1.
          6    2    1    2  501    0 -0.88477440558E+01  0.11426028557E+03 -0.18445613620E+03  0.27673184915E+03  0.17153062327E+03 0.  0.
         24    2    3    3    0    0  0.30601108362E+02  0.13552368689E+03 -0.13441824083E+03  0.20939519371E+03  0.80467298570E+02 0.  0.
         -6    2    1    2    0  502  0.88477440558E+01 -0.11426028557E+03  0.78745774561E+02  0.22065549421E+03  0.17133083400E+03 0.  0.
        -24    2    5    5    0    0  0.23019271477E+02 -0.10297407908E+02 -0.41871967043E+01  0.86830683940E+02  0.82982598105E+02 0.  0.
          5    1    3    3  501    0 -0.39448852418E+02 -0.21263401322E+02 -0.50037895367E+02  0.67336655438E+02  0.47000000000E+01 0. -1.
        -11    1    4    4    0    0  0.58518520138E+01  0.93532174114E+02 -0.13026991842E+03  0.16047667560E+03  0.00000000000E+00 0.  1.
         12    1    4    4    0    0  0.24749256348E+02  0.41991512778E+02 -0.41483224098E+01  0.48918518109E+02  0.00000000000E+00 0. -1.
         -5    1    5    5    0  502 -0.14171527421E+02 -0.10396287766E+03  0.82932971266E+02  0.13382481027E+03  0.47000000000E+01 0.  1.
         11    1    6    6    0    0 -0.25913175723E+02 -0.19911040949E+02 -0.14753958479E+02  0.35855564680E+02  0.00000000000E+00 0. -1.
        -12    1    6    6    0    0  0.48932447199E+02  0.96136330410E+01  0.10566761775E+02  0.50975119260E+02  0.00000000000E+00 0.  1.
</event>
<event>
12    1  0.8633375E-002  0.1736446E+03  0.7818608E-02  0.1174362E+00
         21   -1    0    0  503  502  0.00000000000E+00  0.00000000000E+00  0.10803229347E+03  0.10803229347E+03  0.00000000000E+00 0. -1.
         21   -1    0    0  501  503 -0.00000000000E+00 -0.00000000000E+00 -0.59902087468E+03  0.59902087468E+03  0.00000000000E+00 0.  1.
          6    2    1    2  501    0 -0.13576275214E+02 -0.19042438929E+02 -0.50485721089E+03  0.53388506068E+03  0.17206256102E+03 0.  0.
         24    2    3    3    0    0  0.30031017901E+02  0.43093643901E+02 -0.32147093227E+03  0.33535268049E+03  0.79742935941E+02 0.  0.
         -6    2    1    2    0  502  0.13576275214E+02  0.19042438929E+02  0.13868629672E+02  0.17316810747E+03  0.17102024683E+03 0.  0.
        -24    2    5    5    0    0  0.20732632457E+02  0.23144207643E+02  0.71000825355E+02  0.11525251597E+03  0.85302572290E+02 0.  0.
          5    1    3    3  501    0 -0.43607293115E+02 -0.62136082830E+02 -0.18338627861E+03  0.19853238019E+03  0.47000000000E+01 0. -1.
        -11    1    4    4    0    0  0.57140388975E+02  0.34625633854E+02 -0.21359932409E+03  0.22380489231E+03  0.00000000000E+00 0.  1.
         12    1    4    4    0    0 -0.27109371075E+02  0.84680100463E+01 -0.10787160819E+03  0.11154778818E+03  0.00000000000E+00 0. -1.
         -5    1    5    5    0  502 -0.71563572428E+01 -0.41017687136E+01 -0.57132195683E+02  0.57915591503E+02  0.47000000000E+01 0.  1.
         13    1    6    6    0    0  0.17647868057E+02 -0.28221049841E+02  0.86124904259E+01  0.34380952465E+02  0.00000000000E+00 0. -1.
        -14    1    6    6    0    0  0.30847643997E+01  0.51365257484E+02  0.62388334929E+02  0.80871563500E+02  0.00000000000E+00 0.  1.
</event>
<event>
12    1  0.8633375E-002  0.2689825E+03  0.7818608E-02  0.1102168E+00
         21   -1    0    0  501  502  0.00000000000E+00  0.00000000000E+00  0.12020680436E+04  0.12020680436E+04  0.00000000000E+00 0. -1.
         21   -1    0    0  502  503 -0.00000000000E+00 -0.00000000000E+00 -0.59797941095E+02  0.59797941095E+02  0.00000000000E+00 0. -1.
         -6    2    1    2    0  503 -0.17508210321E+03 -0.10424485440E+03  0.55027043473E+03  0.61249417644E+03  0.17558710745E+03 0.  0.
        -24    2    3    3    0    0 -0.18773714326E+03 -0.10544753345E+03  0.39629843413E+03  0.45792683369E+03  0.79247200903E+02 0.  0.
          6    2    1    2  501    0  0.17508210321E+03  0.10424485440E+03  0.59199966780E+03  0.64937180828E+03  0.17233515653E+03 0.  0.
         24    2    5    5    0    0  0.11157107799E+03  0.92250613431E+02  0.54748909674E+03  0.57075378822E+03  0.71114658141E+02 0.  0.
          5    1    5    5  501    0  0.63511025220E+02  0.11994240974E+02  0.44510571066E+02  0.78618020057E+02  0.47000000000E+01 0. -1.
        -13    1    6    6    0    0  0.91855372390E+01  0.43154162242E+02  0.10426421302E+03  0.11321520185E+03  0.00000000000E+00 0.  1.
         14    1    6    6    0    0  0.10238554075E+03  0.49096451189E+02  0.44322488372E+03  0.45753858637E+03  0.00000000000E+00 0. -1.
         -5    1    3    3    0  503  0.12655040053E+02  0.12026790499E+01  0.15397200060E+03  0.15456734275E+03  0.47000000000E+01 0.  1.
         13    1    4    4    0    0 -0.11320698577E+03 -0.99653589200E+02  0.30223384295E+03  0.33777500691E+03  0.00000000000E+00 0. -1.
        -14    1    4    4    0    0 -0.74530157493E+02 -0.57939442545E+01  0.94064591174E+02  0.12015182678E+03  0.00000000000E+00 0.  1.
</event>
<event>
12    1  0.8633375E-002  0.2037120E+03  0.7818608E-02  0.1146687E+00
         21   -1    0    0  503  502  0.00000000000E+00  0.00000000000E+00  0.82304721156E+02  0.82304721156E+02  0.00000000000E+00 0.  1.
         21   -1    0    0  501  503 -0.00000000000E+00 -0.00000000000E+00 -0.68032606487E+03  0.68032606487E+03  0.00000000000E+00 0.  1.
          6    2    1    2  501    0 -0.17012333566E+02  0.10586641596E+03 -0.49319326198E+03  0.53352924974E+03  0.17296458926E+03 0.  0.
         24    2    3    3    0    0  0.25629326880E+02 -0.10377661310E+02 -0.19946365398E+03  0.21473437945E+03  0.74569070039E+02 0.  0.
         -6    2    1    2    0  502  0.17012333566E+02 -0.10586641596E+03 -0.10482808173E+03  0.22910153629E+03  0.17320932333E+03 0.  0.
        -24    2    5    5    0    0 -0.25411651126E+02  0.38791611836E+01 -0.63087710520E+02  0.10416861521E+03  0.78805084053E+02 0.  0.
          5    1    3    3  501    0 -0.42641660446E+02  0.11624407727E+03 -0.29372960800E+03  0.31879487029E+03  0.47000000000E+01 0. -1.
        -13    1    4    4    0    0  0.24568174261E+02  0.14930054691E+02 -0.18129965722E+03  0.18356488615E+03  0.00000000000E+00 0.  1.
         14    1    4    4    0    0  0.10611526185E+01 -0.25307716000E+02 -0.18163996763E+02  0.31169493298E+02  0.00000000000E+00 0. -1.
         -5    1    5    5    0  502  0.42423984692E+02 -0.10974557714E+03 -0.41740371211E+02  0.12493292108E+03  0.47000000000E+01 0.  1.
         11    1    6    6    0    0  0.19249267250E+02  0.26218857586E+02 -0.19779613774E+02  0.38068305765E+02  0.00000000000E+00 0. -1.
        -12    1    6    6    0    0 -0.44660918376E+02 -0.22339696402E+02 -0.43308096746E+02  0.66100309449E+02  0.00000000000E+00 0.  1.
</event>
<event>
12    1  0.8633375E-002  0.1762385E+03  0.7818608E-02  0.1172711E+00
         21   -1    0    0  503  502  0.00000000000E+00  0.00000000000E+00  0.52374568078E+03  0.52374568078E+03  0.00000000000E+00 0.  1.
         21   -1    0    0  501  503 -0.00000000000E+00 -0.00000000000E+00 -0.22883945080E+03  0.22883945080E+03  0.00000000000E+00 0.  1.
          6    2    1    2  501    0  0.75663420519E+01  0.37322493561E+02 -0.17847526306E+03  0.24746132179E+03  0.16713308530E+03 0.  0.
         24    2    3    3    0    0  0.69541299107E+02  0.39087477366E+02 -0.11119724486E+03  0.15585110291E+03  0.74571548508E+02 0.  0.
         -6    2    1    2    0  502 -0.75663420519E+01 -0.37322493561E+02  0.47338149304E+03  0.50512380980E+03  0.17207500462E+03 0.  0.
        -24    2    5    5    0    0 -0.21628523709E+02  0.33552381426E+02  0.16174541207E+03  0.18518611302E+03  0.80862616784E+02 0.  0.
          5    1    3    3  501    0 -0.61974957055E+02 -0.17649838053E+01 -0.67278018198E+02  0.91610218876E+02  0.47000000000E+01 0. -1.
        -11    1    4    4    0    0  0.17594864544E+02  0.44888818222E+02 -0.23210948944E+02  0.53510124375E+02  0.00000000000E+00 0.  1.
         12    1    4    4    0    0  0.51946434563E+02 -0.58013408560E+01 -0.87986295916E+02  0.10234097854E+03  0.00000000000E+00 0. -1.
         -5    1    5    5    0  502  0.14062181657E+02 -0.70874874986E+02  0.31163608097E+03  0.31993769678E+03  0.47000000000E+01 0.  1.
         13    1    6    6    0    0  0.21249210310E+02  0.29953731663E+02  0.11898529320E+03  0.12452411404E+03  0.00000000000E+00 0. -1.
        -14    1    6    6    0    0 -0.42877734019E+02  0.35986497629E+01  0.42760118869E+02  0.60661998982E+02  0.00000000000E+00 0.  1.
</event>
<event>
12    1  0.8633375E-002  0.1862589E+03  0.7818608E-02  0.1162011E+00
         21   -1    0    0  503  502  0.00000000000E+00  0.00000000000E+00  0.16316373891E+03  0.16316373891E+03  0.00000000000E+00 0.  1.
         21   -1    0    0  501  503 -0.00000000000E+00 -0.00000000000E+00 -0.24057182153E+03  0.24057182153E+03  0.00000000000E+00 0. -1.
          6    2    1    2  501    0  0.70187027542E+02 -0.10813980085E+02  0.30843122588E+02  0.18879530943E+03  0.17218945860E+03 0.  0.
         24    2    3    3    0    0  0.89348113629E+02  0.29371572171E+02 -0.15581254487E+02  0.12430237480E+03  0.79765470159E+02 0.  0.
         -6    2    1    2    0  502 -0.70187027542E+02  0.10813980085E+02 -0.10825120521E+03  0.21494025100E+03  0.17157455252E+03 0.  0.
        -24    2    5    5    0    0 -0.11063042889E+03 -0.12799488574E+02 -0.80923421158E+02  0.16051449978E+03  0.82543236222E+02 0.  0.
          5    1    3    3  501    0 -0.19161086087E+02 -0.40185552256E+02  0.46424377075E+02  0.64492934629E+02  0.47000000000E+01 0. -1.
        -11    1    4    4    0    0 -0.48143636376E+01 -0.10027239670E+02  0.14139968524E+02  0.17990618179E+02  0.00000000000E+00 0.  1.
         12    1    4    4    0    0  0.94162477267E+02  0.39398811841E+02 -0.29721223011E+02  0.10631175663E+03  0.00000000000E+00 0. -1.
         -5    1    5    5    0  502  0.40443401343E+02  0.23613468660E+02 -0.27327784057E+02  0.54425751220E+02  0.47000000000E+01 0.  1.
         13    1    6    6    0    0 -0.35660426456E+02  0.12926459266E+02 -0.71181302954E+02  0.80656910767E+02  0.00000000000E+00 0. -1.
        -14    1    6    6    0    0 -0.74970002430E+02 -0.25725947841E+02 -0.97421182033E+01  0.79857589018E+02  0.00000000000E+00 0.  1.
</event>
<event>
12    1  0.8633375E-002  0.1773745E+03  0.7818608E-02  0.1170525E+00
         21   -1    0    0  503  502  0.00000000000E+00  0.00000000000E+00  0.62402277842E+03  0.62402277842E+03  0.00000000000E+00 0.  1.
         21   -1    0    0  501  503 -0.00000000000E+00 -0.00000000000E+00 -0.92953944216E+02  0.92953944216E+02  0.00000000000E+00 0.  1.
          6    2    1    2  501    0 -0.24782756345E-01  0.42064795658E+02  0.22773164766E+02  0.17883045551E+03  0.17231444263E+03 0.  0.
         24    2    3    3    0    0 -0.10362079422E+02  0.87736347348E+02 -0.14101444504E+02  0.11904268800E+03  0.78531977513E+02 0.  0.
         -6    2    1    2    0  502  0.24782756345E-01 -0.42064795658E+02  0.50829566944E+03  0.53814626712E+03  0.17166091459E+03 0.  0.
        -24    2    5    5    0    0  0.66359744848E+02 -0.18138185578E+02  0.31879335263E+03  0.33589388038E+03  0.80392087208E+02 0.  0.
          5    1    3    3  501    0  0.10337296666E+02 -0.45671551690E+02  0.36874609270E+02  0.59787767519E+02  0.47000000000E+01 0. -1.
        -11    1    4    4    0    0  0.13124128272E+02  0.35108869612E+02 -0.40908107999E+02  0.55482869144E+02  0.00000000000E+00 0.  1.
         12    1    4    4    0    0 -0.23486207694E+02  0.52627477735E+02  0.26806663496E+02  0.63559818851E+02  0.00000000000E+00 0. -1.
         -5    1    5    5    0  502 -0.66334962091E+02 -0.23926610079E+02  0.18950231681E+03  0.20225238674E+03  0.47000000000E+01 0.  1.
         11    1    6    6    0    0  0.48410451161E+02  0.16378513967E+02  0.87338547406E+02  0.10119214082E+03  0.00000000000E+00 0. -1.
        -12    1    6    6    0    0  0.17949293687E+02 -0.34516699546E+02  0.23145480523E+03  0.23470173956E+03  0.00000000000E+00 0.  1.
</event>
<event>
12    1  0.8633375E-002  0.2448913E+03  0.7818608E-02  0.1116618E+00
         21   -1    0    0  503  502  0.00000000000E+00  0.00000000000E+00  0.95335014436E+02  0.95335014436E+02  0.00000000000E+00 0. -1.
         21   -1    0    0  501  503 -0.00000000000E+00 -0.00000000000E+00 -0.73055565258E+03  0.73055565258E+03  0.00000000000E+00 0.  1.
          6    2    1    2  501    0 -0.12620642926E+02 -0.17334363470E+03 -0.47187796397E+03  0.53152253939E+03  0.17216300615E+03 0.  0.
         24    2    3    3    0    0 -0.42000274254E+02 -0.18464764253E+03 -0.44341727393E+03  0.48882541763E+03  0.80452689002E+02 0.  0.
         -6    2    1    2    0  502  0.12620642926E+02  0.17334363470E+03 -0.16334267418E+03  0.29436812762E+03  0.17252382164E+03 0.  0.
        -24    2    5    5    0    0  0.27266129204E+02  0.14718835461E+03 -0.18866389147E+03  0.25484796833E+03  0.83340083279E+02 0.  0.
          5    1    3    3  501    0  0.29379631328E+02  0.11304007824E+02 -0.28460690033E+02  0.42697121765E+02  0.47000000000E+01 0. -1.
        -11    1    4    4    0    0  0.20706468250E+02 -0.70130460127E+02 -0.12729827969E+03  0.14680562413E+03  0.00000000000E+00 0.  1.
         12    1    4    4    0    0 -0.62706742504E+02 -0.11451718240E+03 -0.31611899425E+03  0.34201979350E+03  0.00000000000E+00 0. -1.
         -5    1    5    5    0  502 -0.14645486278E+02  0.26155280093E+02  0.25321217297E+02  0.39520159292E+02  0.47000000000E+01 0.  1.
         13    1    6    6    0    0  0.30930000374E+02  0.24809909461E+02 -0.15061487932E+02  0.42415149997E+02  0.00000000000E+00 0. -1.
        -14    1    6    6    0    0 -0.36638711695E+01  0.12237844515E+03 -0.17360240354E+03  0.21243281833E+03  0.00000000000E+00 0.  1.
</event>
<event>
12    1  0.8633375E-002  0.1947048E+03  0.7818608E-02  0.1155342E+00
         21   -1    0    0  503  502  0.00000000000E+00  0.00000000000E+00  0.18016635627E+03  0.18016635627E+03  0.00000000000E+00 0. -1.
         21   -1    0    0  501  503 -0.00000000000E+00 -0.00000000000E+00 -0.22162494208E+03  0.22162494208E+03  0.00000000000E+00 0.  1.
          6    2    1    2  501    0  0.15860195454E+02 -0.90237394955E+02 -0.75030919798E+02  0.20421332174E+03  0.16637039581E+03 0.  0.
         24    2    3    3    0    0  0.21309330356E+02  0.16856829507E+02 -0.33511605313E+02  0.89127225881E+02  0.77989707278E+02 0.  0.
         -6    2    1    2    0  502 -0.15860195454E+02  0.90237394955E+02  0.33572333982E+02  0.19757797661E+03  0.17180111171E+03 0.  0.
        -24    2    5    5    0    0 -0.16712814843E+02  0.13066601970E+02  0.73746058473E+02  0.11044545462E+03  0.79433387429E+02 0.  0.
          5    1    3    3  501    0 -0.54491349018E+01 -0.10709422446E+03 -0.41519314485E+02  0.11508609586E+03  0.47000000000E+01 0. -1.
        -11    1    4    4    0    0 -0.56291939175E+01  0.12170405643E+01 -0.52388669044E+02  0.52704284988E+02  0.00000000000E+00 0.  1.
         12    1    4    4    0    0  0.26938524273E+02  0.15639788943E+02  0.18877063731E+02  0.36422940893E+02  0.00000000000E+00 0. -1.
         -5    1    5    5    0  502  0.85261938841E+00  0.77170792984E+02 -0.40173724492E+02  0.87132521995E+02  0.47000000000E+01 0.  1.
         11    1    6    6    0    0  0.20478422482E+01  0.36904092610E+02  0.76832423976E+01  0.37750998967E+02  0.00000000000E+00 0. -1.
        -12    1    6    6    0    0 -0.18760657091E+02 -0.23837490640E+02  0.66062816076E+02  0.72694455651E+02  0.00000000000E+00 0.  1.
</event>
<event>
12    1  0.8633375E-002  0.3207157E+03  0.7818608E-02  0.1075565E+00
         21   -1    0    0  501  502  0.00000000000E+00  0.00000000000E+00  0.67794324347E+02  0.67794324347E+02  0.00000000000E+00 0.  1.
         21   -1    0    0  502  503 -0.00000000000E+00 -0.00000000000E+00 -0.16475986276E+04  0.16475986276E+04  0.00000000000E+00 0. -1.
         -6    2    1    2    0  503  0.10923665899E+03  0.24796090914E+03 -0.53711641063E+03  0.62449578562E+03  0.16758188314E+03 0.  0.
        -24    2    3    3    0    0 -0.98833186502E+01  0.80894005698E+02 -0.16845586835E+03  0.20255549987E+03  0.77523098508E+02 0.  0.
          6    2    1    2  501    0 -0.10923665899E+03 -0.24796090914E+03 -0.10426878926E+04  0.10908971663E+04  0.17158474862E+03 0.  0.
         24    2    5    5    0    0 -0.10459574517E+02 -0.14594466257E+03 -0.41481937608E+03  0.44715405682E+03  0.80388982612E+02 0.  0.
          5    1    5    5  501    0 -0.98777084473E+02 -0.10201624657E+03 -0.62786851651E+03  0.64374310948E+03  0.47000000000E+01 0. -1.
        -13    1    6    6    0    0 -0.17366190321E+02 -0.15222571772E+03 -0.35558476768E+03  0.38718830135E+03  0.00000000000E+00 0.  1.
         14    1    6    6    0    0  0.69066158040E+01  0.62810551503E+01 -0.59234608400E+02  0.59965755461E+02  0.00000000000E+00 0. -1.
         -5    1    3    3    0  503  0.11911997764E+03  0.16706690344E+03 -0.36866054228E+03  0.42194028574E+03  0.47000000000E+01 0.  1.
         13    1    4    4    0    0  0.29705914278E+02  0.41548860178E+02 -0.49360494378E+02  0.71029624316E+02  0.00000000000E+00 0. -1.
        -14    1    4    4    0    0 -0.39589232928E+02  0.39345145520E+02 -0.11909537397E+03  0.13152587556E+03  0.00000000000E+00 0.  1.
</event>
<event>
12    1  0.8633375E-002  0.2954576E+03  0.7818608E-02  0.1087615E+00
         21   -1    0    0  501  502  0.00000000000E+00  0.00000000000E+00  0.30449632470E+03  0.30449632470E+03  0.00000000000E+00 0. -1.
         21   -1    0    0  502  503 -0.00000000000E+00 -0.00000000000E+00 -0.32664435893E+03  0.32664435893E+03  0.00000000000E+00 0.  1.
         -6    2    1    2    0  503  0.23428378739E+03  0.51124176335E+02  0.10015481457E+03  0.31137018235E+03  0.17151626493E+03 0.  0.
        -24    2    3    3    0    0  0.54168954390E+02  0.10187241304E+02  0.83226719440E+02  0.12582817600E+03  0.76602790686E+02 0.  0.
          6    2    1    2  501    0 -0.23428378739E+03 -0.51124176335E+02 -0.12230284880E+03  0.31977050128E+03  0.17260536558E+03 0.  0.
         24    2    5    5    0    0 -0.25072335734E+03 -0.66452431077E+02 -0.10448613219E+03  0.29070608584E+03  0.79464136651E+02 0.  0.
          5    1    5    5  501    0  0.16439569957E+02  0.15328254742E+02 -0.17816716616E+02  0.29064415438E+02  0.47000000000E+01 0. -1.
        -13    1    6    6    0    0 -0.23320978650E+03 -0.36609229404E+02 -0.84422200051E+02  0.25070729558E+03  0.00000000000E+00 0.  1.
         14    1    6    6    0    0 -0.17513570847E+02 -0.29843201672E+02 -0.20063932136E+02  0.39998790265E+02  0.00000000000E+00 0. -1.
         -5    1    3    3    0  503  0.18011483300E+03  0.40936935031E+02  0.16928095127E+02  0.18554200635E+03  0.47000000000E+01 0.  1.
         13    1    4    4    0    0  0.38658039422E+02 -0.31094513133E+02  0.36608263595E+02  0.61656124776E+02  0.00000000000E+00 0. -1.
        -14    1    4    4    0    0  0.15510914968E+02  0.41281754437E+02  0.46618455846E+02  0.64172051222E+02  0.00000000000E+00 0.  1.
</event>
<event>
12    1  0.8633375E-002  0.3162229E+03  0.7818608E-02  0.1077643E+00
         21   -1    0    0  501  502  0.00000000000E+00  0.00000000000E+00  0.95850362825E+02  0.95850362825E+02  0.00000000000E+00 0. -1.
         21   -1    0    0  502  503 -0.00000000000E+00 -0.00000000000E+00 -0.10422636892E+04  0.10422636892E+04  0.00000000000E+00 0.  1.
         -6    2    1    2    0  503  0.26049759972E+03 -0.52005809358E+02 -0.42923713770E+03  0.53192254345E+03  0.16773034367E+03 0.  0.
        -24    2    3    3    0    0  0.12529761388E+03  0.34978115319E+02 -0.19895292746E+03  0.25103440414E+03  0.80703433140E+02 0.  0.
          6    2    1    2  501    0 -0.26049759972E+03  0.52005809358E+02 -0.51717618866E+03  0.60619150856E+03  0.17156145040E+03 0.  0.
         24    2    5    5    0    0 -0.12842344514E+03 -0.15364729969E+02 -0.16614466604E+03  0.22510412783E+03  0.79618855321E+02 0.  0.
          5    1    5    5  501    0 -0.13207415457E+03  0.67370539327E+02 -0.35103152262E+03  0.38108738073E+03  0.47000000000E+01 0. -1.
        -13    1    6    6    0    0 -0.10369216809E+03 -0.25755239798E+02 -0.16701348054E+03  0.19826472400E+03  0.00000000000E+00 0.  1.
         14    1    6    6    0    0 -0.24731277053E+02  0.10390509829E+02  0.86881450359E+00  0.26839403827E+02  0.00000000000E+00 0. -1.
         -5    1    3    3    0  503  0.13519998584E+03 -0.86983924678E+02 -0.23028421024E+03  0.28088813931E+03  0.47000000000E+01 0.  1.
         13    1    4    4    0    0 -0.51880740291E+01 -0.86730012526E+01 -0.37825817350E+02  0.39152643858E+02  0.00000000000E+00 0. -1.
        -14    1    4    4    0    0  0.13048568791E+03  0.43651116572E+02 -0.16112711011E+03  0.21188176028E+03  0.00000000000E+00 0.  1.
</event>
<event>
12    1  0.8633375E-002  0.1909723E+03  0.7818608E-02  0.1157837E+00
         21   -1    0    0  503  502  0.00000000000E+00  0.00000000000E+00  0.27480142269E+03  0.27480142269E+03  0.00000000000E+00 0. -1.
         21   -1    0    0  501  503 -0.00000000000E+00 -0.00000000000E+00 -0.13220060063E+03  0.13220060063E+03  0.00000000000E+00 0.  1.
          6    2    1    2  501    0 -0.62616004967E+02 -0.54321753958E+02  0.62146977248E+02  0.19977450949E+03  0.17080980894E+03 0.  0.
         24    2    3    3    0    0  0.14485047985E+02  0.17924074017E+02  0.84981122205E+01  0.81181412115E+02  0.77376448078E+02 0.  0.
         -6    2    1    2    0  502  0.62616004967E+02  0.54321753958E+02  0.80453844814E+02  0.20722751383E+03  0.17204303041E+03 0.  0.
        -24    2    5    5    0    0  0.14394793316E+02  0.43444847903E+02  0.11423016375E+03  0.14717318793E+03  0.80726402440E+02 0.  0.
          5    1    3    3  501    0 -0.77101052951E+02 -0.72245827975E+02  0.53648865027E+02  0.11859309737E+03  0.47000000000E+01 0. -1.
        -13    1    4    4    0    0  0.40100897193E+02 -0.97800448402E+01  0.12774929194E+02  0.43207985936E+02  0.00000000000E+00 0.  1.
         14    1    4    4    0    0 -0.25615849209E+02  0.27704118857E+02 -0.42768169732E+01  0.37973426179E+02  0.00000000000E+00 0. -1.
         -5    1    5    5    0  502  0.48221211651E+02  0.10876906054E+02 -0.33776318938E+02  0.60054325900E+02  0.47000000000E+01 0.  1.
         13    1    6    6    0    0 -0.48824933782E+01 -0.11891281726E+02 -0.54153605895E+01  0.13948743778E+02  0.00000000000E+00 0. -1.
        -14    1    6    6    0    0  0.19277286694E+02  0.55336129630E+02  0.11964552434E+03  0.13322444415E+03  0.00000000000E+00 0.  1.
</event>
<event>
12    1  0.8633375E-002  0.1828631E+03  0.7818608E-02  0.1165654E+00
         21   -1    0    0  501  502  0.00000000000E+00  0.00000000000E+00  0.31813616298E+02  0.31813616298E+02  0.00000000000E+00 0.  1.
         21   -1    0    0  502  503 -0.00000000000E+00 -0.00000000000E+00 -0.13336548117E+04  0.13336548117E+04  0.00000000000E+00 0.  1.
         -6    2    1    2    0  503  0.40784516985E+02 -0.42672683952E+02 -0.96952975384E+03  0.98616668637E+03  0.17044780710E+03 0.  0.
        -24    2    3    3    0    0  0.35011793322E+02 -0.29533469074E+02 -0.24738354836E+03  0.26386259848E+03  0.79541180569E+02 0.  0.
          6    2    1    2  501    0 -0.40784516985E+02  0.42672683952E+02 -0.33231144160E+03  0.37930174167E+03  0.17307392129E+03 0.  0.
         24    2    5    5    0    0  0.15764006937E+02 -0.12724690306E+01 -0.62921521418E+02  0.10051520841E+03  0.76772821831E+02 0.  0.
          5    1    5    5  501    0 -0.56548523922E+02  0.43945152983E+02 -0.26938992018E+03  0.27878653326E+03  0.47000000000E+01 0. -1.
        -11    1    6    6    0    0 -0.25005158103E+02 -0.20823491744E+02 -0.20140061324E+02  0.38268757627E+02  0.00000000000E+00 0.  1.
         12    1    6    6    0    0  0.40769165040E+02  0.19551022714E+02 -0.42781460094E+02  0.62246450782E+02  0.00000000000E+00 0. -1.
         -5    1    3    3    0  503  0.57727236631E+01 -0.13139214878E+02 -0.72214620547E+03  0.72230408789E+03  0.47000000000E+01 0.  1.
         13    1    4    4    0    0  0.53984211147E+02 -0.30353548885E+02 -0.22973929379E+03  0.23794069869E+03  0.00000000000E+00 0. -1.
        -14    1    4    4    0    0 -0.18972417825E+02  0.82007981079E+00 -0.17644254579E+02  0.25921899788E+02  0.00000000000E+00 0.  1.
</event>
<event>
12    1  0.8633375E-002  0.1728932E+03  0.7818608E-02  0.1175175E+00
         21   -1    0    0  503  502  0.00000000000E+00  0.00000000000E+00  0.12689817843E+03  0.12689817843E+03  0.00000000000E+00 0.  1.
         21   -1    0    0  501  503 -0.00000000000E+00 -0.00000000000E+00 -0.32096546076E+03  0.32096546076E+03  0.00000000000E+00 0.  1.
          6    2    1    2  501    0 -0.15768215961E+02 -0.62291956919E+01 -0.21340996753E+03  0.27389177867E+03  0.17083750369E+03 0.  0.
         24    2    3    3    0    0  0.54158907891E+02 -0.38856325399E+00 -0.10293665616E+03  0.14293240267E+03  0.83068515486E+02 0.  0.
         -6    2    1    2    0  502  0.15768215961E+02  0.62291956919E+01  0.19342685197E+02  0.17397186052E+03  0.17205995836E+03 0.  0.
        -24    2    5    5    0    0  0.62544623858E+02 -0.18310787038E+02 -0.22817824566E+02  0.10622349027E+03  0.80719649854E+02 0.  0.
          5    1    3    3  501    0 -0.69927123852E+02 -0.58406324379E+01 -0.11047331137E+03  0.13095937600E+03  0.47000000000E+01 0. -1.
        -11    1    4    4    0    0  0.48722823216E+02 -0.37588086535E+02 -0.65697748446E+02  0.90016509054E+02  0.00000000000E+00 0.  1.
         12    1    4    4    0    0  0.54360846756E+01  0.37199523281E+02 -0.37238907719E+02  0.52915893615E+02  0.00000000000E+00 0. -1.
         -5    1    5    5    0  502 -0.46776407897E+02  0.24539982730E+02  0.42160509764E+02  0.67748370251E+02  0.47000000000E+01 0.  1.
         11    1    6    6    0    0  0.74102108602E+02  0.24290197512E+01 -0.32018826652E+02  0.80760311394E+02  0.00000000000E+00 0. -1.
        -12    1    6    6    0    0 -0.11557484745E+02 -0.20739806789E+02  0.92010020853E+01  0.25463178880E+02  0.00000000000E+00 0.  1.
</event>
<event>
12    1  0.8633375E-002  0.1960400E+03  0.7818608E-02  0.1153443E+00
         21   -1    0    0  501  502  0.00000000000E+00  0.00000000000E+00  0.10169092308E+04  0.10169092308E+04  0.00000000000E+00 0. -1.
         21   -1    0    0  502  503 -0.00000000000E+00 -0.00000000000E+00 -0.37568698820E+02  0.37568698820E+02  0.00000000000E+00 0. -1.
         -6    2    1    2    0  503 -0.41451608105E+02  0.80994216221E+02  0.46698752015E+03  0.50590040810E+03  0.17198715087E+03 0.  0.
        -24    2    3    3    0    0 -0.57750064324E+02  0.72845517657E+02  0.16423622830E+03  0.20256482548E+03  0.73603196028E+02 0.  0.
          6    2    1    2  501    0  0.41451608105E+02 -0.80994216221E+02  0.51235301187E+03  0.54857752156E+03  0.17364731357E+03 0.  0.
         24    2    5    5    0    0 -0.19948993576E+02  0.13652294221E+02  0.20125996393E+03  0.21762590833E+03  0.79190374484E+02 0.  0.
          5    1    5    5  501    0  0.61400601682E+02 -0.94646510442E+02  0.31109304794E+03  0.33095161323E+03  0.47000000000E+01 0. -1.
        -13    1    6    6    0    0  0.25967511210E+01  0.42189484220E+02  0.14141053967E+03  0.14759280615E+03  0.00000000000E+00 0.  1.
         14    1    6    6    0    0 -0.22545744697E+02 -0.28537189999E+02  0.59849424258E+02  0.70033102180E+02  0.00000000000E+00 0. -1.
         -5    1    3    3    0  503  0.16298456218E+02  0.81486985641E+01  0.30275129185E+03  0.30333558261E+03  0.47000000000E+01 0.  1.
         13    1    4    4    0    0  0.56863481349E+01  0.35185809483E+02  0.20796720014E+02  0.41265958215E+02  0.00000000000E+00 0. -1.
        -14    1    4    4    0    0 -0.63436412459E+02  0.37659708174E+02  0.14343950828E+03  0.16129886727E+03  0.00000000000E+00 0.  1.
</event>
<event>
12    1  0.8633375E-002  0.1801534E+03  0.7818608E-02  0.1167864E+00
         21   -1    0    0  501  502  0.00000000000E+00  0.00000000000E+00  0.36297376180E+02  0.36297376180E+02  0.00000000000E+00 0. -1.
         21   -1    0    0  502  503 -0.00000000000E+00 -0.00000000000E+00 -0.11715387467E+04  0.11715387467E+04  0.00000000000E+00 0. -1.
         -6    2    1    2    0  503 -0.51592708254E+02  0.10233299843E+02 -0.86270621831E+03  0.88113955538E+03  0.17140119305E+03 0.  0.
        -24    2    3    3    0    0 -0.10023483031E+03 -0.16914527310E+01 -0.63916572037E+03  0.65200924316E+03  0.80829158383E+02 0.  0.
          6    2    1    2  501    0  0.51592708254E+02 -0.10233299843E+02 -0.27253515222E+03  0.32669656751E+03  0.17230412083E+03 0.  0.
         24    2    5    5    0    0  0.97081021502E+02  0.16723048504E+02 -0.19168225477E+03  0.22997473758E+03  0.80261497896E+02 0.  0.
          5    1    5    5  501    0 -0.45488313249E+02 -0.26956348347E+02 -0.80852897451E+02  0.96721829928E+02  0.47000000000E+01 0. -1.
        -11    1    6    6    0    0 -0.64524514274E+01  0.22037280410E+02 -0.42525910738E+02  0.48329379692E+02  0.00000000000E+00 0.  1.
         12    1    6    6    0    0  0.10353347293E+03 -0.53142319064E+01 -0.14915634404E+03  0.18164535789E+03  0.00000000000E+00 0. -1.
         -5    1    3    3    0  503  0.48642122058E+02  0.11924752574E+02 -0.22354049794E+03  0.22913031223E+03  0.47000000000E+01 0.  1.
         11    1    4    4    0    0 -0.37277544498E+02  0.22654233166E+02 -0.43033763362E+03  0.43254284009E+03  0.00000000000E+00 0. -1.
        -12    1    4    4    0    0 -0.62957285813E+02 -0.24345685897E+02 -0.20882808675E+03  0.21946640307E+03  0.00000000000E+00 0.  1.
</event>
<event>
12    1  0.8633375E-002  0.2658498E+03  0.7818608E-02  0.1104034E+00
         21   -1    0    0  501  502  0.00000000000E+00  0.00000000000E+00  0.38721859844E+03  0.38721859844E+03  0.00000000000E+00 0. -1.
         21   -1    0    0  502  503 -0.00000000000E+00 -0.00000000000E+00 -0.20701520467E+03  0.20701520467E+03  0.00000000000E+00 0. -1.
         -6    2    1    2    0  503  0.13302088986E+03  0.15016711065E+03 -0.15142189666E+02  0.26628069030E+03  0.17444598550E+03 0.  0.
        -24    2    3    3    0    0  0.12987978441E+03  0.75514786355E+02 -0.57877599899E+02  0.18007604220E+03  0.80661781825E+02 0.  0.
          6    2    1    2  501    0 -0.13302088986E+03 -0.15016711065E+03  0.19534558344E+03  0.32795311281E+03  0.17072969562E+03 0.  0.
         24    2    5    5    0    0 -0.20307838539E+02 -0.11310755434E+03  0.13780218605E+03  0.19600245826E+03  0.78878349425E+02 0.  0.
          5    1    5    5  501    0 -0.11271305132E+03 -0.37059556315E+02  0.57543397394E+02  0.13195065455E+03  0.47000000000E+01 0. -1.
        -11    1    6    6    0    0 -0.15898217962E+01  0.11232081366E+00  0.53708418043E+02  0.53732060430E+02  0.00000000000E+00 0.  1.
         12    1    6    6    0    0 -0.18718016743E+02 -0.11321987515E+03  0.84093768007E+02  0.14227039783E+03  0.00000000000E+00 0. -1.
         -5    1    3    3    0  503  0.31411054479E+01  0.74652324300E+02  0.42735410233E+02  0.86204648103E+02  0.47000000000E+01 0.  1.
         11    1    4    4    0    0  0.55047032018E+02  0.22073607077E+02 -0.64820297545E+02  0.87858356672E+02  0.00000000000E+00 0. -1.
        -12    1    4    4    0    0  0.74832752394E+02  0.53441179278E+02  0.69426976459E+01  0.92217685528E+02  0.00000000000E+00 0.  1.
</event>
<event>
12    1  0.8633375E-002  0.1759616E+03  0.7818608E-02  0.1172388E+00
         21   -1    0    0  501  502  0.00000000000E+00  0.00000000000E+00  0.38867137940E+03  0.38867137940E+03  0.00000000000E+00 0.  1.
         21   -1    0    0  502  503 -0.00000000000E+00 -0.00000000000E+00 -0.92506567309E+02  0.92506567309E+02  0.00000000000E+00 0.  1.
         -6    2    1    2    0  503  0.24984368404E+02  0.12320204757E+02  0.53755487093E+02  0.18163699812E+03  0.17124935207E+03 0.  0.
        -24    2    3    3    0    0 -0.47626127912E+01  0.12368739161E+02  0.10509840980E+03  0.12211329732E+03  0.60747950171E+02 0.  0.
          6    2    1    2  501    0 -0.24984368404E+02 -0.12320204757E+02  0.24240932500E+03  0.29954094859E+03  0.17374260538E+03 0.  0.
         24    2    5    5    0    0  0.13352458445E+02  0.25270827009E+02  0.22854064347E+03  0.24388820122E+03  0.80210511355E+02 0.  0.
          5    1    5    5  501    0 -0.38336826849E+02 -0.37591031766E+02  0.13868681526E+02  0.55652747366E+02  0.47000000000E+01 0. -1.
        -11    1    6    6    0    0 -0.27948863620E+02 -0.48580292973E+01  0.12788993517E+03  0.13099837764E+03  0.00000000000E+00 0.  1.
         12    1    6    6    0    0  0.41301322065E+02  0.30128856307E+02  0.10065070831E+03  0.11288982359E+03  0.00000000000E+00 0. -1.
         -5    1    3    3    0  503  0.29746981195E+02 -0.48534404757E-01 -0.51342922706E+02  0.59523700807E+02  0.47000000000E+01 0.  1.
         13    1    4    4    0    0 -0.63024320489E+01 -0.13546159203E+02  0.11640640015E+01  0.14985797406E+02  0.00000000000E+00 0. -1.
        -14    1    4    4    0    0  0.15398192577E+01  0.25914898364E+02  0.10393434580E+03  0.10712749991E+03  0.00000000000E+00 0.  1.
</event>
<event>
12    1  0.8633375E-002  0.2007380E+03  0.7818608E-02  0.1149170E+00
         21   -1    0    0  501  502  0.00000000000E+00  0.00000000000E+00  0.11789484423E+03  0.11789484423E+03  0.00000000000E+00 0. -1.
         21   -1    0    0  502  503 -0.00000000000E+00 -0.00000000000E+00 -0.97620701674E+03  0.97620701674E+03  0.00000000000E+00 0.  1.
         -6    2    1    2    0  503  0.81815325082E+02  0.62662694016E+02 -0.87040037902E+03  0.89324832617E+03  0.17226546887E+03 0.  0.
        -24    2    3    3    0    0  0.10312728596E+03  0.42181969645E+02 -0.38618305841E+03  0.40810694128E+03  0.70706189623E+02 0.  0.
          6    2    1    2  501    0 -0.81815325082E+02 -0.62662694016E+02  0.12088206507E+02  0.20085353480E+03  0.17197574557E+03 0.  0.
         24    2    5    5    0    0 -0.33077562935E+02  0.30931252610E+02 -0.10938925576E+02  0.92744630836E+02  0.80193758475E+02 0.  0.
          5    1    5    5  501    0 -0.48737762147E+02 -0.93593946625E+02  0.23027132083E+02  0.10810890396E+03  0.47000000000E+01 0. -1.
        -11    1    6    6    0    0 -0.16778432037E+02 -0.25078379419E+02 -0.16070601547E+02  0.34186329577E+02  0.00000000000E+00 0.  1.
         12    1    6    6    0    0 -0.16299130898E+02  0.56009632029E+02  0.51316759710E+01  0.58558301258E+02  0.00000000000E+00 0. -1.
         -5    1    3    3    0  503 -0.21311960876E+02  0.20480724371E+02 -0.48421732061E+03  0.48514138488E+03  0.47000000000E+01 0.  1.
         11    1    4    4    0    0  0.38557943660E+02  0.23967029416E+01 -0.48469103005E+02  0.61981554921E+02  0.00000000000E+00 0. -1.
        -12    1    4    4    0    0  0.64569342298E+02  0.39785266703E+02 -0.33771395540E+03  0.34612538636E+03  0.00000000000E+00 0.  1.
</event>
<event>
12    1  0.8633375E-002  0.2315071E+03  0.7818608E-02  0.1125849E+00
         21   -1    0    0  501  502  0.00000000000E+00  0.00000000000E+00  0.23919710144E+03  0.23919710144E+03  0.00000000000E+00 0.  1.
         21   -1    0    0  502  503 -0.00000000000E+00 -0.00000000000E+00 -0.24466765850E+03  0.24466765850E+03  0.00000000000E+00 0. -1.
         -6    2    1    2    0  503  0.70536563538E+02 -0.13528264457E+03 -0.75399565431E+02  0.24347612877E+03  0.17412274434E+03 0.  0.
        -24    2    3    3    0    0 -0.16710326704E+02 -0.10395921319E+03 -0.14182864899E+02  0.13228821740E+03  0.78817928044E+02 0.  0.
          6    2    1    2  501    0 -0.70536563538E+02  0.13528264457E+03  0.69929008374E+02  0.24038863117E+03  0.17210411694E+03 0.  0.
         24    2    5    5    0    0 -0.83045983352E+02  0.11612984928E+03  0.10779269416E+03  0.19590196067E+03  0.79846953818E+02 0.  0.
          5    1    5    5  501    0  0.12509419814E+02  0.19152795287E+02 -0.37863685784E+02  0.44486670504E+02  0.47000000000E+01 0. -1.
        -13    1    6    6    0    0  0.13295686486E+02  0.14729316323E+02  0.90056286005E+00  0.19863007122E+02  0.00000000000E+00 0.  1.
         14    1    6    6    0    0 -0.96341669838E+02  0.10140053296E+03  0.10689213130E+03  0.17603895354E+03  0.00000000000E+00 0. -1.
         -5    1    3    3    0  503  0.87246890242E+02 -0.31323431375E+02 -0.61216700532E+02  0.11118791137E+03  0.47000000000E+01 0.  1.
         13    1    4    4    0    0 -0.27196120032E+02 -0.14429545494E+02 -0.27361290342E+02  0.41188359243E+02  0.00000000000E+00 0. -1.
        -14    1    4    4    0    0  0.10485793328E+02 -0.89529667698E+02  0.13178425443E+02  0.91099858161E+02  0.00000000000E+00 0.  1.
</event>
<event>
12    1  0.8633375E-002  0.1995206E+03  0.7818608E-02  0.1150410E+00
         21   -1    0    0  501  502  0.00000000000E+00  0.00000000000E+00  0.14051784980E+03  0.14051784980E+03  0.00000000000E+00 0.  1.
         21   -1    0    0  502  503 -0.00000000000E+00 -0.00000000000E+00 -0.10193039379E+04  0.10193039379E+04  0.00000000000E+00 0.  1.
         -6    2    1    2    0  503  0.72514131574E+02 -0.66390040067E+02 -0.93238093830E+03  0.95322825156E+03  0.17217418148E+03 0.  0.
        -24    2    3    3    0    0 -0.27618462153E+02 -0.44022778014E+02 -0.42762688369E+03  0.43813061384E+03  0.79955604517E+02 0.  0.
          6    2    1    2  501    0 -0.72514131574E+02  0.66390040067E+02  0.53594850172E+02  0.20659353617E+03  0.17361608372E+03 0.  0.
         24    2    5    5    0    0 -0.11706043034E+03  0.47674804023E+02  0.49360075852E+02  0.15786309284E+03  0.80674083213E+02 0.  0.
          5    1    5    5  501    0  0.44546298766E+02  0.18715236044E+02  0.42347743200E+01  0.48730443334E+02  0.47000000000E+01 0. -1.
        -13    1    6    6    0    0 -0.12118847876E+03  0.47264322004E+02  0.24134949201E+02  0.13229912809E+03  0.00000000000E+00 0.  1.
         14    1    6    6    0    0  0.41280484239E+01  0.41048201929E+00  0.25225126650E+02  0.25563964751E+02  0.00000000000E+00 0. -1.
         -5    1    3    3    0  503  0.10013259373E+03 -0.22367262053E+02 -0.50475405461E+03  0.51509763772E+03  0.47000000000E+01 0.  1.
         13    1    4    4    0    0 -0.20637095662E+02 -0.12052396064E+02 -0.26553528276E+02  0.35724499047E+02  0.00000000000E+00 0. -1.
        -14    1    4    4    0    0 -0.69813664915E+01 -0.31970381950E+02 -0.40107335542E+03  0.40240611480E+03  0.00000000000E+00 0.  1.
</event>
<event>
12    1  0.8633375E-002  0.1784807E+03  0.7818608E-02  0.1169381E+00
         21   -1    0    0  503  502  0.00000000000E+00  0.00000000000E+00  0.11695133317E+03  0.11695133317E+03  0.00000000000E+00 0.  1.
         21   -1    0    0  501  503 -0.00000000000E+00 -0.00000000000E+00 -0.33084154133E+03  0.33084154133E+03  0.00000000000E+00 0.  1.
          6    2    1    2  501    0  0.29824999426E+02  0.35309531992E+02 -0.20146028677E+03  0.26887984482E+03  0.17197043399E+03 0.  0.
         24    2    3    3    0    0  0.51242587383E+02  0.54688229918E+02 -0.21133556443E+03  0.23799525131E+03  0.79764739078E+02 0.  0.
         -6    2    1    2    0  502 -0.29824999426E+02 -0.35309531992E+02 -0.12429921393E+02  0.17891302969E+03  0.17239221446E+03 0.  0.
        -24    2    5    5    0    0  0.40637331030E+02 -0.45636242413E+02 -0.24374543563E+02  0.10655043603E+03  0.83814185854E+02 0.  0.
          5    1    3    3  501    0 -0.21417587957E+02 -0.19378697926E+02  0.98752776639E+01  0.30884593508E+02  0.47000000000E+01 0. -1.
        -11    1    4    4    0    0  0.62774576243E+02  0.10343646697E+02 -0.12142233718E+03  0.13708035022E+03  0.00000000000E+00 0.  1.
         12    1    4    4    0    0 -0.11531988860E+02  0.44344583221E+02 -0.89913227249E+02  0.10091490109E+03  0.00000000000E+00 0. -1.
         -5    1    5    5    0  502 -0.70462330456E+02  0.10326710421E+02  0.11944622170E+02  0.72362593653E+02  0.47000000000E+01 0.  1.
         11    1    6    6    0    0  0.37526405612E+02 -0.70157142780E+01 -0.47876572543E+02  0.61234120909E+02  0.00000000000E+00 0. -1.
        -12    1    6    6    0    0  0.31109254182E+01 -0.38620528135E+02  0.23502028980E+02  0.45316315126E+02  0.00000000000E+00 0.  1.
</event>
<event>
12    1  0.8633375E-002  0.2517584E+03  0.7818608E-02  0.1112867E+00
         21   -1    0    0  501  502  0.00000000000E+00  0.00000000000E+00  0.81091073424E+03  0.81091073424E+03  0.00000000000E+00 0. -1.
         21   -1    0    0  502  503 -0.00000000000E+00 -0.00000000000E+00 -0.86101400140E+02  0.86101400140E+02  0.00000000000E+00 0. -1.
         -6    2    1    2    0  503 -0.45847557666E+02  0.17155695472E+03  0.21268789153E+03  0.32635402246E+03  0.17244425626E+03 0.  0.
        -24    2    3    3    0    0 -0.57189611645E+02  0.80307813702E+02  0.46105715234E+02  0.13602073745E+03  0.81583744806E+02 0.  0.
          6    2    1    2  501    0  0.45847557666E+02 -0.17155695472E+03  0.51212144258E+03  0.57065811192E+03  0.17846154067E+03 0.  0.
         24    2    5    5    0    0  0.92845648595E+02 -0.12207951388E+03  0.28243114076E+03  0.33099884869E+03  0.79178067627E+02 0.  0.
          5    1    5    5  501    0 -0.46998090929E+02 -0.49477440845E+02  0.22969030182E+03  0.23965926323E+03  0.47000000000E+01 0. -1.
        -13    1    6    6    0    0 -0.28510519654E+01  0.42888912262E+00 -0.41009165370E+01  0.50129791175E+01  0.00000000000E+00 0.  1.
         14    1    6    6    0    0  0.95696700560E+02 -0.12250840300E+03  0.28653205729E+03  0.32598586957E+03  0.00000000000E+00 0. -1.
         -5    1    3    3    0  503  0.11342053979E+02  0.91249141020E+02  0.16658217629E+03  0.19033328501E+03  0.47000000000E+01 0.  1.
         11    1    4    4    0    0 -0.16685421403E+01  0.22637152895E+02 -0.21481460661E+02  0.31251845965E+02  0.00000000000E+00 0. -1.
        -12    1    4    4    0    0 -0.55521069505E+02  0.57670660807E+02  0.67587175895E+02  0.10476889148E+03  0.00000000000E+00 0.  1.
</event>
<event>
12    1  0.8633375E-002  0.2041111E+03  0.7818608E-02  0.1146802E+00
         21   -1    0    0  501  502  0.00000000000E+00  0.00000000000E+00  0.69683575388E+02  0.69683575388E+02  0.00000000000E+00 0.  1.
         21   -1    0    0  502  503 -0.00000000000E+00 -0.00000000000E+00 -0.72861153179E+03  0.72861153179E+03  0.00000000000E+00 0.  1.
         -6    2    1    2    0  503 -0.10265416834E+03  0.18458062809E+02 -0.50447793512E+03  0.54420524264E+03  0.17545022294E+03 0.  0.
        -24    2    3    3    0    0 -0.13374106190E+03  0.44511036730E+01 -0.47107409478E+03  0.49624175230E+03  0.80240824997E+02 0.  0.
          6    2    1    2  501    0  0.10265416834E+03 -0.18458062809E+02 -0.15445002128E+03  0.25408986454E+03  0.17270863275E+03 0.  0.
         24    2    5    5    0    0  0.77425388848E+02  0.53197531998E+02 -0.11476009057E+03  0.16825050188E+03  0.79458698371E+02 0.  0.
          5    1    5    5  501    0  0.25228779492E+02 -0.71655594807E+02 -0.39689930711E+02  0.85839362658E+02  0.47000000000E+01 0. -1.
        -11    1    6    6    0    0  0.52116221654E+02  0.53077597234E+02 -0.12113422062E+03  0.14215073441E+03  0.00000000000E+00 0.  1.
         12    1    6    6    0    0  0.25309167194E+02  0.11993476375E+00  0.63741300473E+01  0.26099767476E+02  0.00000000000E+00 0. -1.
         -5    1    3    3    0  503  0.31086893560E+02  0.14006959136E+02 -0.33403840344E+02  0.47963490336E+02  0.47000000000E+01 0.  1.
         11    1    4    4    0    0 -0.17310793852E+02 -0.16857856391E+02 -0.25152310064E+02  0.34878211070E+02  0.00000000000E+00 0. -1.
        -12    1    4    4    0    0 -0.11643026805E+03  0.21308960065E+02 -0.44592178471E+03  0.46136354123E+03  0.00000000000E+00 0.  1.
</event>
<event>
12    1  0.8633375E-002  0.1905554E+03  0.7818608E-02  0.1160294E+00
         21   -1    0    0  503  502  0.00000000000E+00  0.00000000000E+00  0.17551180997E+03  0.17551180997E+03  0.00000000000E+00 0.  1.
         21   -1    0    0  501  503 -0.00000000000E+00 -0.00000000000E+00 -0.29310353515E+03  0.29310353515E+03  0.00000000000E+00 0.  1.
          6    2    1    2  501    0  0.20801465491E+02  0.56823331550E+02 -0.19463719621E+03  0.27238761827E+03  0.18069251358E+03 0.  0.
         24    2    3    3    0    0 -0.55079781010E+02  0.20813042173E+02 -0.66926680732E+02  0.11946028169E+03  0.79527437443E+02 0.  0.
         -6    2    1    2    0  502 -0.20801465491E+02 -0.56823331550E+02  0.77045471030E+02  0.19622772685E+03  0.17002271672E+03 0.  0.
        -24    2    5    5    0    0  0.14470063178E+02 -0.25018145326E+02 -0.20078618159E+02  0.88011141674E+02  0.80669199993E+02 0.  0.
          5    1    3    3  501    0  0.75881246501E+02  0.36010289377E+02 -0.12771051548E+03  0.15292733659E+03  0.47000000000E+01 0. -1.
        -13    1    4    4    0    0 -0.27619225747E+02  0.50751474912E+02 -0.45411367630E+02  0.73489632919E+02  0.00000000000E+00 0.  1.
         14    1    4    4    0    0 -0.27460555263E+02 -0.29938432739E+02 -0.21515313102E+02  0.45970648768E+02  0.00000000000E+00 0. -1.
         -5    1    5    5    0  502 -0.35271528669E+02 -0.31805186224E+02  0.97124089190E+02  0.10821658517E+03  0.47000000000E+01 0.  1.
         11    1    6    6    0    0 -0.33521057079E+02 -0.12701420735E+02 -0.48260140722E+01  0.36170122590E+02  0.00000000000E+00 0. -1.
        -12    1    6    6    0    0  0.47991120257E+02 -0.12316724592E+02 -0.15252604087E+02  0.51841019083E+02  0.00000000000E+00 0.  1.
</event>
<event>
12    1  0.8633375E-002  0.1796899E+03  0.7818608E-02  0.1168218E+00
         21   -1    0    0  503  502  0.00000000000E+00  0.00000000000E+00  0.23316828937E+03  0.23316828937E+03  0.00000000000E+00 0.  1.
         21   -1    0    0  501  503 -0.00000000000E+00 -0.00000000000E+00 -0.14407486375E+03  0.14407486375E+03  0.00000000000E+00 0.  1.
          6    2    1    2  501    0 -0.36127771153E+02  0.35685998971E+02  0.62367776819E+01  0.17979814919E+03  0.17236522470E+03 0.  0.
         24    2    3    3    0    0 -0.64862695938E+02 -0.11384108229E+02 -0.36189755121E+02  0.11006012814E+03  0.80416205997E+02 0.  0.
         -6    2    1    2    0  502  0.36127771153E+02 -0.35685998971E+02  0.82856647932E+02  0.19744500393E+03  0.17187378828E+03 0.  0.
        -24    2    5    5    0    0  0.45756689151E+02  0.39287725668E+02  0.33071282841E+02  0.10681141178E+03  0.81717611003E+02 0.  0.
          5    1    3    3  501    0  0.28734924785E+02  0.47070107200E+02  0.42426532803E+02  0.69738021050E+02  0.47000000000E+01 0. -1.
        -11    1    4    4    0    0 -0.50515913753E+02  0.69970790477E+01  0.15543928381E+02  0.53314448014E+02  0.00000000000E+00 0.  1.
         12    1    4    4    0    0 -0.14346782185E+02 -0.18381187277E+02 -0.51733683503E+02  0.56745680131E+02  0.00000000000E+00 0. -1.
         -5    1    5    5    0  502 -0.96289179981E+01 -0.74973724639E+02  0.49785365090E+02  0.90633592146E+02  0.47000000000E+01 0.  1.
         13    1    6    6    0    0  0.58577527242E+02  0.70718756557E+01  0.15620335595E+00  0.59003072146E+02  0.00000000000E+00 0. -1.
        -14    1    6    6    0    0 -0.12820838091E+02  0.32215850013E+02  0.32915079485E+02  0.47808339638E+02  0.00000000000E+00 0.  1.
</event>
<event>
12    1  0.8633375E-002  0.1758571E+03  0.7818608E-02  0.1174378E+00
         21   -1    0    0  501  502  0.00000000000E+00  0.00000000000E+00  0.36229352906E+03  0.36229352906E+03  0.00000000000E+00 0. -1.
         21   -1    0    0  502  503 -0.00000000000E+00 -0.00000000000E+00 -0.94919192553E+02  0.94919192553E+02  0.00000000000E+00 0. -1.
         -6    2    1    2    0  503  0.10456260367E+02 -0.53155963159E+01  0.41996506081E+02  0.17134405667E+03  0.16570301835E+03 0.  0.
        -24    2    3    3    0    0  0.24554715013E+02 -0.68416994226E+02  0.10543388005E+02  0.99288928623E+02  0.66808002427E+02 0.  0.
          6    2    1    2  501    0 -0.10456260367E+02  0.53155963159E+01  0.22537783042E+03  0.28586866494E+03  0.17546549006E+03 0.  0.
         24    2    5    5    0    0 -0.71760395663E+01  0.62874173788E+02  0.80518807631E+02  0.12988797327E+03  0.79893366083E+02 0.  0.
          5    1    5    5  501    0 -0.32802208005E+01 -0.57558577472E+02  0.14485902279E+03  0.15598069167E+03  0.47000000000E+01 0. -1.
        -13    1    6    6    0    0  0.13466872923E+02 -0.10015595115E+02 -0.30877149404E+01  0.17064665112E+02  0.00000000000E+00 0.  1.
         14    1    6    6    0    0 -0.20642912489E+02  0.72889768904E+02  0.83606522572E+02  0.11282330816E+03  0.00000000000E+00 0. -1.
         -5    1    3    3    0  503 -0.14098454646E+02  0.63101397910E+02  0.31453118076E+02  0.72055128050E+02  0.47000000000E+01 0.  1.
         13    1    4    4    0    0  0.37401881033E+02 -0.42932626824E+02 -0.17206349014E+02  0.59482515054E+02  0.00000000000E+00 0. -1.
        -14    1    4    4    0    0 -0.12847166020E+02 -0.25484367402E+02  0.27749737019E+02  0.39806413569E+02  0.00000000000E+00 0.  1.
</event>
<event>
12    1  0.8633375E-002  0.1906324E+03  0.7818608E-02  0.1162286E+00
         21   -1    0    0  501  502  0.00000000000E+00  0.00000000000E+00  0.11132274517E+04  0.11132274517E+04  0.00000000000E+00 0. -1.
         21   -1    0    0  502  503 -0.00000000000E+00 -0.00000000000E+00 -0.29550181687E+02  0.29550181687E+02  0.00000000000E+00 0. -1.
         -6    2    1    2    0  503 -0.25020530087E+02  0.78234863298E+02  0.57429258326E+03  0.60510552611E+03  0.17202908413E+03 0.  0.
        -24    2    3    3    0    0 -0.77184672939E+02  0.30010332270E+02  0.28831332961E+03  0.31039732007E+03  0.79773595228E+02 0.  0.
          6    2    1    2  501    0  0.25020530087E+02 -0.78234863298E+02  0.50938468678E+03  0.53767210730E+03  0.15123430524E+03 0.  0.
         24    2    5    5    0    0 -0.31118036380E+02 -0.24743717416E+02  0.18004453337E+03  0.19929381606E+03  0.75639985354E+02 0.  0.
          5    1    5    5  501    0  0.56138566467E+02 -0.53491145882E+02  0.32934015341E+03  0.33837829124E+03  0.47000000000E+01 0. -1.
        -11    1    6    6    0    0 -0.19120454977E+02 -0.46531286687E+01  0.20694907788E+01  0.19787020923E+02  0.00000000000E+00 0.  1.
         12    1    6    6    0    0 -0.11997581403E+02 -0.20090588747E+02  0.17797504259E+03  0.17950679514E+03  0.00000000000E+00 0. -1.
         -5    1    3    3    0  503  0.52164142852E+02  0.48224531028E+02  0.28597925364E+03  0.29470820604E+03  0.47000000000E+01 0.  1.
         11    1    4    4    0    0 -0.39710968851E+02  0.37352999354E+02  0.25155135391E+03  0.25739131932E+03  0.00000000000E+00 0. -1.
        -12    1    4    4    0    0 -0.37473704088E+02 -0.73426670844E+01  0.36761975702E+02  0.53006000750E+02  0.00000000000E+00 0.  1.
</event>
<event>
12    1  0.8633375E-002  0.1742578E+03  0.7818608E-02  0.1173702E+00
         21   -1    0    0  501  502  0.00000000000E+00  0.00000000000E+00  0.66035086549E+03  0.66035086549E+03  0.00000000000E+00 0. -1.
         21   -1    0    0  502  503 -0.00000000000E+00 -0.00000000000E+00 -0.71453513627E+02  0.71453513627E+02  0.00000000000E+00 0. -1.
         -6    2    1    2    0  503  0.12807740419E+02  0.21656946257E+02  0.75479527948E+02  0.18990249237E+03  0.17243182981E+03 0.  0.
        -24    2    3    3    0    0  0.76362200019E+02  0.14340824627E+02  0.39284337429E+02  0.11624872948E+03  0.77030273891E+02 0.  0.
          6    2    1    2  501    0 -0.12807740419E+02 -0.21656946257E+02  0.51341782392E+03  0.54190188675E+03  0.17154221467E+03 0.  0.
         24    2    5    5    0    0 -0.25187473938E+02  0.17608497124E+02  0.11808506877E+03  0.14440332054E+03  0.77225433005E+02 0.  0.
          5    1    5    5  501    0  0.12379733519E+02 -0.39265443381E+02  0.39533275514E+03  0.39749856621E+03  0.47000000000E+01 0. -1.
        -13    1    6    6    0    0 -0.12790609805E+02  0.39536303963E+02  0.11056418736E+03  0.11811502257E+03  0.00000000000E+00 0.  1.
         14    1    6    6    0    0 -0.12396864133E+02 -0.21927806839E+02  0.75208814111E+01  0.26288297972E+02  0.00000000000E+00 0. -1.
         -5    1    3    3    0  503 -0.63554459600E+02  0.73161216309E+01  0.36195190519E+02  0.73653762887E+02  0.47000000000E+01 0.  1.
         13    1    4    4    0    0  0.55228092163E+02  0.14039011688E+02 -0.14210520654E+02  0.58729676573E+02  0.00000000000E+00 0. -1.
        -14    1    4    4    0    0  0.21134107857E+02  0.30181293822E+00  0.53494858084E+02  0.57519052907E+02  0.00000000000E+00 0.  1.
</event>
<event>
12    1  0.8633375E-002  0.1964566E+03  0.7818608E-02  0.1152838E+00
         21   -1    0    0  503  502  0.00000000000E+00  0.00000000000E+00  0.48535101669E+03  0.48535101669E+03  0.00000000000E+00 0. -1.
         21   -1    0    0  501  503 -0.00000000000E+00 -0.00000000000E+00 -0.13109065825E+03  0.13109065825E+03  0.00000000000E+00 0.  1.
          6    2    1    2  501    0 -0.87757947946E+02  0.32363539404E+02 -0.16547106838E+02  0.19680686375E+03  0.17236669854E+03 0.  0.
         24    2    3    3    0    0 -0.58622604102E+02  0.87797984428E+02 -0.16780362567E+01  0.13226985719E+03  0.79670593910E+02 0.  0.
         -6    2    1    2    0  502  0.87757947946E+02 -0.32363539404E+02  0.37080746527E+03  0.41963481118E+03  0.17276093986E+03 0.  0.
        -24    2    5    5    0    0  0.59993897884E+02 -0.17493343929E+02  0.86506806237E+02  0.13355629063E+03  0.80302991088E+02 0.  0.
          5    1    3    3  501    0 -0.29135343843E+02 -0.55434445024E+02 -0.14869070581E+02  0.64537006562E+02  0.47000000000E+01 0. -1.
        -11    1    4    4    0    0 -0.71613304434E+02  0.61699005555E+02 -0.21596143816E+02  0.96961982685E+02  0.00000000000E+00 0.  1.
         12    1    4    4    0    0  0.12990700332E+02  0.26098978873E+02  0.19918107559E+02  0.35307874505E+02  0.00000000000E+00 0. -1.
         -5    1    5    5    0  502  0.27764050062E+02 -0.14870195475E+02  0.28430065904E+03  0.28607852055E+03  0.47000000000E+01 0.  1.
         13    1    6    6    0    0 -0.19371044968E+02  0.20500649164E+01  0.11500689708E+02  0.22620919810E+02  0.00000000000E+00 0. -1.
        -14    1    6    6    0    0  0.79364942852E+02 -0.19543408845E+02  0.75006116529E+02  0.11093537082E+03  0.00000000000E+00 0.  1.
</event>
<event>
12    1  0.8633375E-002  0.2210756E+03  0.7818608E-02  0.1133114E+00
         21   -1    0    0  503  502  0.00000000000E+00  0.00000000000E+00  0.10730220667E+04  0.10730220667E+04  0.00000000000E+00 0. -1.
         21   -1    0    0  501  503 -0.00000000000E+00 -0.00000000000E+00 -0.13235001242E+03  0.13235001242E+03  0.00000000000E+00 0. -1.
          6    2    1    2  501    0 -0.13688269222E+03 -0.15141997177E+02 -0.17899748266E+02  0.22163718638E+03  0.17273242281E+03 0.  0.
         24    2    3    3    0    0 -0.13374977911E+03 -0.39329020020E+02  0.34204710444E+02  0.16391551076E+03  0.79136320512E+02 0.  0.
         -6    2    1    2    0  502  0.13688269222E+03  0.15141997177E+02  0.95857180259E+03  0.98373489279E+03  0.17294012567E+03 0.  0.
        -24    2    5    5    0    0 -0.24666582267E+00 -0.12355738310E+02  0.40345074737E+03  0.41124728398E+03  0.78734350278E+02 0.  0.
          5    1    3    3  501    0 -0.31329131101E+01  0.24187022843E+02 -0.52104458710E+02  0.57721675617E+02  0.47000000000E+01 0. -1.
        -11    1    4    4    0    0 -0.12071951854E+02  0.19974577390E+02  0.13552990825E+02  0.26988874074E+02  0.00000000000E+00 0.  1.
         12    1    4    4    0    0 -0.12167782726E+03 -0.59303597410E+02  0.20651719619E+02  0.13692663669E+03  0.00000000000E+00 0. -1.
         -5    1    5    5    0  502  0.13712935804E+03  0.27497735487E+02  0.55512105522E+03  0.57248760882E+03  0.47000000000E+01 0.  1.
         11    1    6    6    0    0  0.15124624685E+02  0.30282416938E+02  0.19618304114E+03  0.19908180398E+03  0.00000000000E+00 0. -1.
        -12    1    6    6    0    0 -0.15371290508E+02 -0.42638155248E+02  0.20726770623E+03  0.21216547999E+03  0.00000000000E+00 0.  1.
</event>
<event>
12    1  0.8633375E-002  0.3403161E+03  0.7818608E-02  0.1066751E+00
         21   -1    0    0  501  502  0.00000000000E+00  0.00000000000E+00  0.10597034551E+03  0.10597034551E+03  0.00000000000E+00 0. -1.
         21   -1    0    0  502  503 -0.00000000000E+00 -0.00000000000E+00 -0.11916613928E+04  0.11916613928E+04  0.00000000000E+00 0. -1.
         -6    2    1    2    0  503 -0.20828912692E+01  0.29340773828E+03 -0.73277882887E+03  0.80794794852E+03  0.17240254103E+03 0.  0.
        -24    2    3    3    0    0 -0.52903276117E+02  0.14422079591E+03 -0.28445640385E+03  0.33270638671E+03  0.78611064556E+02 0.  0.
          6    2    1    2  501    0  0.20828912692E+01 -0.29340773828E+03 -0.35291221845E+03  0.48968378984E+03  0.17073588016E+03 0.  0.
         24    2    5    5    0    0  0.36047200907E+02 -0.26784890887E+03 -0.24791550234E+03  0.37631171001E+03  0.84296904531E+02 0.  0.
          5    1    5    5  501    0 -0.33964309638E+02 -0.25558829412E+02 -0.10499671611E+03  0.11337207983E+03  0.47000000000E+01 0. -1.
        -11    1    6    6    0    0  0.58214098130E+02 -0.18974695064E+03 -0.14806596482E+03  0.24762131661E+03  0.00000000000E+00 0.  1.
         12    1    6    6    0    0 -0.22166897223E+02 -0.78101958224E+02 -0.99849537521E+02  0.12869039340E+03  0.00000000000E+00 0. -1.
         -5    1    3    3    0  503  0.50820384848E+02  0.14918694236E+03 -0.44832242502E+03  0.47524156180E+03  0.47000000000E+01 0.  1.
         13    1    4    4    0    0  0.11151978557E+02  0.17397355528E+02 -0.85469776430E+01  0.22362590010E+02  0.00000000000E+00 0. -1.
        -14    1    4    4    0    0 -0.64055254674E+02  0.12682344038E+03 -0.27590942620E+03  0.31034379670E+03  0.00000000000E+00 0.  1.
</event>
<event>
12    1  0.8633375E-002  0.1970222E+03  0.7818608E-02  0.1152822E+00
         21   -1    0    0  503  502  0.00000000000E+00  0.00000000000E+00  0.73862783992E+03  0.73862783992E+03  0.00000000000E+00 0.  1.
         21   -1    0    0  501  503 -0.00000000000E+00 -0.00000000000E+00 -0.65686796583E+02  0.65686796583E+02  0.00000000000E+00 0.  1.
          6    2    1    2  501    0  0.14159259354E+02 -0.91336310566E+02  0.15383447669E+03  0.24996560492E+03  0.17399698610E+03 0.  0.
         24    2    3    3    0    0  0.66266914629E+02 -0.76934692710E+02  0.14670341161E+03  0.19523392832E+03  0.79272598477E+02 0.  0.
         -6    2    1    2    0  502 -0.14159259354E+02  0.91336310566E+02  0.51910656665E+03  0.55434903158E+03  0.17113858426E+03 0.  0.
        -24    2    5    5    0    0 -0.15910156310E+02  0.53316263382E+02  0.50348187868E+03  0.51293876109E+03  0.80724305231E+02 0.  0.
          5    1    3    3  501    0 -0.52107655274E+02 -0.14401617856E+02  0.71310650726E+01  0.54731676606E+02  0.47000000000E+01 0. -1.
        -11    1    4    4    0    0  0.35772059131E+02  0.65280366011E+01  0.23375114843E+02  0.43227901525E+02  0.00000000000E+00 0.  1.
         12    1    4    4    0    0  0.30494855497E+02 -0.83462729311E+02  0.12332829677E+03  0.15200602679E+03  0.00000000000E+00 0. -1.
         -5    1    5    5    0  502  0.17508969556E+01  0.38020047184E+02  0.15624687971E+02  0.41410270492E+02  0.47000000000E+01 0.  1.
         11    1    6    6    0    0  0.26884493981E+02  0.44410755945E+02  0.21589801821E+03  0.22205189827E+03  0.00000000000E+00 0. -1.
        -12    1    6    6    0    0 -0.42794650291E+02  0.89055074376E+01  0.28758386047E+03  0.29088686282E+03  0.00000000000E+00 0.  1.
</event>
<event>
12    1  0.8633375E-002  0.2098767E+03  0.7818608E-02  0.1141880E+00
         21   -1    0    0  501  502  0.00000000000E+00  0.00000000000E+00  0.33322331133E+03  0.33322331133E+03  0.00000000000E+00 0. -1.
         21   -1    0    0  502  503 -0.00000000000E+00 -0.00000000000E+00 -0.28104142492E+03  0.28104142492E+03  0.00000000000E+00 0. -1.
         -6    2    1    2    0  503  0.36337951869E+02  0.11336952510E+03 -0.19797502064E+03  0.28772727965E+03  0.17152195980E+03 0.  0.
        -24    2    3    3    0    0 -0.53667520821E+01 -0.63556728436E+01 -0.42550100879E+02  0.87097269343E+02  0.75539570008E+02 0.  0.
          6    2    1    2  501    0 -0.36337951869E+02 -0.11336952510E+03  0.25015690705E+03  0.32653745660E+03  0.17284425488E+03 0.  0.
         24    2    5    5    0    0 -0.30891239509E+01 -0.20547060674E+02  0.37086785272E+02  0.91713136611E+02  0.81265893190E+02 0.  0.
          5    1    5    5  501    0 -0.33248827918E+02 -0.92822464427E+02  0.21307012178E+03  0.23482431999E+03  0.47000000000E+01 0. -1.
        -11    1    6    6    0    0  0.30567490327E+02 -0.11805976775E+02  0.45370996476E+02  0.55966774731E+02  0.00000000000E+00 0.  1.
         12    1    6    6    0    0 -0.33656614278E+02 -0.87410838989E+01 -0.82842112041E+01  0.35746361880E+02  0.00000000000E+00 0. -1.
         -5    1    3    3    0  503  0.41704703951E+02  0.11972519795E+03 -0.15542491976E+03  0.20063001031E+03  0.47000000000E+01 0.  1.
         11    1    4    4    0    0  0.26987974800E+02  0.47325562541E+01 -0.45131777189E+02  0.52797965725E+02  0.00000000000E+00 0. -1.
        -12    1    4    4    0    0 -0.32354726882E+02 -0.11088229098E+02  0.25816763099E+01  0.34299303618E+02  0.00000000000E+00 0.  1.
</event>
<event>
12    1  0.8633375E-002  0.1767493E+03  0.7818608E-02  0.1171805E+00
         21   -1    0    0  503  502  0.00000000000E+00  0.00000000000E+00  0.46429424919E+03  0.46429424919E+03  0.00000000000E+00 0. -1.
         21   -1    0    0  501  503 -0.00000000000E+00 -0.00000000000E+00 -0.68337061983E+02  0.68337061983E+02  0.00000000000E+00 0. -1.
          6    2    1    2  501    0 -0.39394552507E+02 -0.13547727504E+01  0.24494001724E+03  0.30015225728E+03  0.16894377564E+03 0.  0.
         24    2    3    3    0    0 -0.61797452859E+01  0.49766320156E+02  0.21142923423E+03  0.23042670862E+03  0.76676404993E+02 0.  0.
         -6    2    1    2    0  502  0.39394552507E+02  0.13547727504E+01  0.15101716997E+03  0.23247905389E+03  0.17229787781E+03 0.  0.
        -24    2    5    5    0    0  0.66424390183E+02  0.34201670918E+02  0.26535438007E+02  0.10084576617E+03  0.62320022302E+02 0.  0.
          5    1    3    3  501    0 -0.33214807221E+02 -0.51121092906E+02  0.33510783009E+02  0.69725548664E+02  0.47000000000E+01 0. -1.
        -13    1    4    4    0    0 -0.38160082654E+02  0.40907484358E+02  0.15711178237E+03  0.16677447750E+03  0.00000000000E+00 0.  1.
         14    1    4    4    0    0  0.31980337368E+02  0.88588357973E+01  0.54317451858E+02  0.63652231118E+02  0.00000000000E+00 0. -1.
         -5    1    5    5    0  502 -0.27029837676E+02 -0.32846898168E+02  0.12448173196E+03  0.13163328772E+03  0.47000000000E+01 0.  1.
         11    1    6    6    0    0  0.23316101505E+02  0.46138617501E+02  0.75129661722E+01  0.52238465473E+02  0.00000000000E+00 0. -1.
        -12    1    6    6    0    0  0.43108288678E+02 -0.11936946583E+02  0.19022471835E+02  0.48607300699E+02  0.00000000000E+00 0.  1.
</event>
<event>
12    1  0.8633375E-002  0.2480775E+03  0.7818608E-02  0.1115044E+00
         21   -1    0    0  501  502  0.00000000000E+00  0.00000000000E+00  0.39021127959E+03  0.39021127959E+03  0.00000000000E+00 0. -1.
         21   -1    0    0  502  503 -0.00000000000E+00 -0.00000000000E+00 -0.30288540405E+03  0.30288540405E+03  0.00000000000E+00 0. -1.
         -6    2    1    2    0  503  0.14456671717E+03 -0.10477702087E+03 -0.19778918689E+03  0.31727438127E+03  0.17223446444E+03 0.  0.
        -24    2    3    3    0    0  0.43786064891E+01 -0.45751426065E+02 -0.55182264271E+02  0.10871850962E+03  0.81622710461E+02 0.  0.
          6    2    1    2  501    0 -0.14456671717E+03  0.10477702087E+03  0.28511506243E+03  0.37582230238E+03  0.16755310897E+03 0.  0.
         24    2    5    5    0    0 -0.15013459353E+03  0.13044608759E+03  0.27049226537E+03  0.34539503784E+03  0.81086920065E+02 0.  0.
          5    1    5    5  501    0  0.55678763586E+01 -0.25669066712E+02  0.14622797063E+02  0.30427264533E+02  0.47000000000E+01 0. -1.
        -13    1    6    6    0    0 -0.24881853437E+02  0.43979028205E+02  0.24574627066E+02  0.56188734171E+02  0.00000000000E+00 0.  1.
         14    1    6    6    0    0 -0.12525274009E+03  0.86467059381E+02  0.24591763830E+03  0.28920630367E+03  0.00000000000E+00 0. -1.
         -5    1    3    3    0  503  0.14018811068E+03 -0.59025594809E+02 -0.14260692262E+03  0.20855587164E+03  0.47000000000E+01 0.  1.
         13    1    4    4    0    0  0.18440063886E+02  0.18892499434E+02 -0.23600691048E+02  0.35411228571E+02  0.00000000000E+00 0. -1.
        -14    1    4    4    0    0 -0.14061457396E+02 -0.64643925500E+02 -0.31581573223E+02  0.73307281053E+02  0.00000000000E+00 0.  1.
</event>
<event>
12    1  0.8633375E-002  0.1769191E+03  0.7818608E-02  0.1170923E+00
         21   -1    0    0  501  502  0.00000000000E+00  0.00000000000E+00  0.13973191982E+03  0.13973191982E+03  0.00000000000E+00 0. -1.
         21   -1    0    0  502  503 -0.00000000000E+00 -0.00000000000E+00 -0.28110522291E+03  0.28110522291E+03  0.00000000000E+00 0. -1.
         -6    2    1    2    0  503  0.41945914849E+02 -0.84063322961E+01 -0.16603327482E+03  0.24262611315E+03  0.17166903109E+03 0.  0.
        -24    2    3    3    0    0  0.41445284712E+02  0.59360050044E+02 -0.91983656181E+02  0.14213746092E+03  0.80627151910E+02 0.  0.
          6    2    1    2  501    0 -0.41945914849E+02  0.84063322961E+01  0.24659971726E+02  0.17821102959E+03  0.17123355590E+03 0.  0.
         24    2    5    5    0    0 -0.81689951796E+02 -0.19783969025E+02 -0.13271176187E+02  0.11628249381E+03  0.79251754517E+02 0.  0.
          5    1    5    5  501    0  0.39744036947E+02  0.28190301321E+02  0.37931147914E+02  0.61928535777E+02  0.47000000000E+01 0. -1.
        -11    1    6    6    0    0 -0.72430846886E+02 -0.88768013716E+01  0.23631175562E+02  0.76703700312E+02  0.00000000000E+00 0.  1.
         12    1    6    6    0    0 -0.92591049109E+01 -0.10907167653E+02 -0.36902351749E+02  0.39578793496E+02  0.00000000000E+00 0. -1.
         -5    1    3    3    0  503  0.50063013694E+00 -0.67766382340E+02 -0.74049618643E+02  0.10048865223E+03  0.47000000000E+01 0.  1.
         11    1    4    4    0    0  0.63234225201E+02  0.46256566662E+02 -0.85357642839E+02  0.11586269627E+03  0.00000000000E+00 0. -1.
        -12    1    4    4    0    0 -0.21788940489E+02  0.13103483381E+02 -0.66260133423E+01  0.26274764645E+02  0.00000000000E+00 0.  1.
</event>
<event>
12    1  0.8633375E-002  0.2815108E+03  0.7818608E-02  0.1096156E+00
         21   -1    0    0  503  502  0.00000000000E+00  0.00000000000E+00  0.20363398224E+03  0.20363398224E+03  0.00000000000E+00 0. -1.
         21   -1    0    0  501  503 -0.00000000000E+00 -0.00000000000E+00 -0.45729870218E+03  0.45729870218E+03  0.00000000000E+00 0.  1.
          6    2    1    2  501    0  0.86531545469E+02 -0.20282820012E+03 -0.26407775909E+03  0.37922935445E+03  0.15953323575E+03 0.  0.
         24    2    3    3    0    0  0.23794533580E+02 -0.14554643793E+03 -0.23798368529E+03  0.29023427803E+03  0.76483699275E+02 0.  0.
         -6    2    1    2    0  502 -0.86531545469E+02  0.20282820012E+03  0.10413039152E+02  0.28170332997E+03  0.17498956428E+03 0.  0.
        -24    2    5    5    0    0 -0.11730007563E+03  0.20481411174E+03  0.72333520476E+01  0.25035294396E+03  0.83163375702E+02 0.  0.
          5    1    3    3  501    0  0.62737011889E+02 -0.57281762193E+02 -0.26094073795E+02  0.88995076425E+02  0.47000000000E+01 0. -1.
        -13    1    4    4    0    0  0.47233870986E+02 -0.64405758850E+02 -0.13705863024E+03  0.15863230587E+03  0.00000000000E+00 0.  1.
         14    1    4    4    0    0 -0.23439337406E+02 -0.81140679075E+02 -0.10092505505E+03  0.13160197216E+03  0.00000000000E+00 0. -1.
         -5    1    5    5    0  502  0.30768530157E+02 -0.19859116178E+01  0.31796871039E+01  0.31350386011E+02  0.47000000000E+01 0.  1.
         11    1    6    6    0    0 -0.75432829452E+02  0.18762097600E+03 -0.86093201643E+01  0.20240025392E+03  0.00000000000E+00 0. -1.
        -12    1    6    6    0    0 -0.41867246174E+02  0.17193135735E+02  0.15842672212E+02  0.47952690033E+02  0.00000000000E+00 0.  1.
</event>
<event>
12    1  0.8633375E-002  0.1935735E+03  0.7818608E-02  0.1155419E+00
         21   -1    0    0  501  502  0.00000000000E+00  0.00000000000E+00  0.19188995291E+03  0.19188995291E+03  0.00000000000E+00 0.  1.
         21   -1    0    0  502  503 -0.00000000000E+00 -0.00000000000E+00 -0.95902480075E+03  0.95902480075E+03  0.00000000000E+00 0.  1.
         -6    2    1    2    0  503 -0.64717018108E+02 -0.60890929580E+02 -0.89719605468E+03  0.91770537863E+03  0.17124953634E+03 0.  0.
        -24    2    3    3    0    0 -0.13507081854E+01 -0.75114326646E+02 -0.35187284502E+03  0.36850861312E+03  0.79624822757E+02 0.  0.
          6    2    1    2  501    0  0.64717018108E+02  0.60890929580E+02  0.13006120683E+03  0.23320937503E+03  0.17197295526E+03 0.  0.
         24    2    5    5    0    0  0.29655662575E+01  0.85174193181E+02  0.11751405597E+03  0.16551565529E+03  0.79513778867E+02 0.  0.
          5    1    5    5  501    0  0.61751451850E+02 -0.24283263601E+02  0.12547150864E+02  0.67693719735E+02  0.47000000000E+01 0. -1.
        -11    1    6    6    0    0  0.22655504297E+02  0.89501025376E+02  0.11089687411E+03  0.14429768573E+03  0.00000000000E+00 0.  1.
         12    1    6    6    0    0 -0.19689938040E+02 -0.43268321947E+01  0.66171818582E+01  0.21217969568E+02  0.00000000000E+00 0. -1.
         -5    1    3    3    0  503 -0.63366309922E+02  0.14223397066E+02 -0.54532320966E+03  0.54919676551E+03  0.47000000000E+01 0.  1.
         11    1    4    4    0    0 -0.30077688065E+02 -0.23700992239E+02 -0.63255796475E+02  0.73943898600E+02  0.00000000000E+00 0. -1.
        -12    1    4    4    0    0  0.28726979880E+02 -0.51413334407E+02 -0.28861704854E+03  0.29456471452E+03  0.00000000000E+00 0.  1.
</event>
<event>
12    1  0.8633375E-002  0.1876318E+03  0.7818608E-02  0.1160798E+00
         21   -1    0    0  503  502  0.00000000000E+00  0.00000000000E+00  0.26461253721E+03  0.26461253721E+03  0.00000000000E+00 0.  1.
         21   -1    0    0  501  503 -0.00000000000E+00 -0.00000000000E+00 -0.15453405776E+03  0.15453405776E+03  0.00000000000E+00 0.  1.
          6    2    1    2  501    0 -0.34469221091E+01 -0.73781172236E+02 -0.24027225050E+02  0.18916390531E+03  0.17248226831E+03 0.  0.
         24    2    3    3    0    0 -0.58187307195E+01  0.65209184991E+01  0.35373410088E+02  0.89141024390E+02  0.81353943253E+02 0.  0.
         -6    2    1    2    0  502  0.34469221091E+01  0.73781172236E+02  0.13410570451E+03  0.22998268966E+03  0.17161630142E+03 0.  0.
        -24    2    5    5    0    0  0.58243129144E+01 -0.23064215652E+02  0.97254633279E+02  0.12622926758E+03  0.76873165904E+02 0.  0.
          5    1    3    3  501    0  0.23718086104E+01 -0.80302090735E+02 -0.59400635138E+02  0.10002288092E+03  0.47000000000E+01 0. -1.
        -11    1    4    4    0    0 -0.38337502821E+01  0.14155007072E+02 -0.24606267272E+02  0.28644899293E+02  0.00000000000E+00 0.  1.
         12    1    4    4    0    0 -0.19849804374E+01 -0.76340885728E+01  0.59979677360E+02  0.60496125098E+02  0.00000000000E+00 0. -1.
         -5    1    5    5    0  502 -0.23773908053E+01  0.96845387888E+02  0.36851071227E+02  0.10375342208E+03  0.47000000000E+01 0.  1.
         11    1    6    6    0    0 -0.83407076758E+01 -0.34691084788E+02  0.10135387510E+03  0.10745067132E+03  0.00000000000E+00 0. -1.
        -12    1    6    6    0    0  0.14165020590E+02  0.11626869136E+02 -0.40992418236E+01  0.18778596267E+02  0.00000000000E+00 0.  1.
</event>
<event>
12    1  0.8633375E-002  0.2251359E+03  0.7818608E-02  0.1130496E+00
         21   -1    0    0  501  502  0.00000000000E+00  0.00000000000E+00  0.12361574611E+03  0.12361574611E+03  0.00000000000E+00 0.  1.
         21   -1    0    0  502  503 -0.00000000000E+00 -0.00000000000E+00 -0.40981579762E+03  0.40981579762E+03  0.00000000000E+00 0. -1.
         -6    2    1    2    0  503 -0.12282855603E+03 -0.71519493580E+02 -0.16753113240E+03  0.27893503195E+03  0.17186093095E+03 0.  0.
        -24    2    3    3    0    0 -0.66938838252E+02 -0.37290006541E+02 -0.18581781440E+03  0.21073084531E+03  0.63307790711E+02 0.  0.
          6    2    1    2  501    0  0.12282855603E+03  0.71519493580E+02 -0.11866891911E+03  0.25449651178E+03  0.17459745131E+03 0.  0.
         24    2    5    5    0    0  0.30679971062E+02  0.89505192629E+02 -0.35305893313E+02  0.12885284440E+03  0.80025678848E+02 0.  0.
          5    1    5    5  501    0  0.92148584970E+02 -0.17985699049E+02 -0.83363025799E+02  0.12564366738E+03  0.47000000000E+01 0. -1.
        -11    1    6    6    0    0  0.34177598977E+02  0.71008096133E+02 -0.59106042473E+02  0.98507777586E+02  0.00000000000E+00 0.  1.
         12    1    6    6    0    0 -0.34976279150E+01  0.18497096496E+02  0.23800149160E+02  0.30345066812E+02  0.00000000000E+00 0. -1.
         -5    1    3    3    0  503 -0.55889717780E+02 -0.34229487038E+02  0.18286681997E+02  0.68204186638E+02  0.47000000000E+01 0.  1.
         11    1    4    4    0    0 -0.11360216755E+02 -0.87322745648E+01 -0.11661348453E+03  0.11749047586E+03  0.00000000000E+00 0. -1.
        -12    1    4    4    0    0 -0.55578621497E+02 -0.28557731976E+02 -0.69204329865E+02  0.93240369450E+02  0.00000000000E+00 0.  1.
</event>
<event>
12    1  0.8633375E-002  0.1923718E+03  0.7818608E-02  0.1158891E+00
         21   -1    0    0  503  502  0.00000000000E+00  0.00000000000E+00  0.31737448310E+02  0.31737448310E+02  0.00000000000E+00 0. -1.
         21   -1    0    0  501  503 -0.00000000000E+00 -0.00000000000E+00 -0.12639423079E+04  0.12639423079E+04  0.00000000000E+00 0. -1.
          6    2    1    2  501    0  0.85337957557E+02  0.11383305726E+02 -0.83370937049E+03  0.85318054897E+03  0.15947911474E+03 0.  0.
         24    2    3    3    0    0  0.58114197076E+02  0.34263609282E+02 -0.78888085191E+03  0.79576689637E+03  0.79753996977E+02 0.  0.
         -6    2    1    2    0  502 -0.85337957557E+02 -0.11383305726E+02 -0.39849548910E+03  0.44249920725E+03  0.17203123824E+03 0.  0.
        -24    2    5    5    0    0 -0.82251607203E+02  0.46567772506E+02 -0.33129800102E+03  0.35358663540E+03  0.79569208466E+02 0.  0.
          5    1    3    3  501    0  0.27223760480E+02 -0.22880303555E+02 -0.44828518584E+02  0.57413652591E+02  0.47000000000E+01 0. -1.
        -11    1    4    4    0    0  0.57177786412E+02  0.13721679329E+02 -0.26338794823E+03  0.26987181219E+03  0.00000000000E+00 0.  1.
         12    1    4    4    0    0  0.93641066473E+00  0.20541929953E+02 -0.52549290368E+03  0.52589508418E+03  0.00000000000E+00 0. -1.
         -5    1    5    5    0  502 -0.30863503541E+01 -0.57951078233E+02 -0.67197488086E+02  0.88912571844E+02  0.47000000000E+01 0.  1.
         13    1    6    6    0    0 -0.97505208066E+02  0.33982114537E+02 -0.28904285750E+03  0.30693292944E+03  0.00000000000E+00 0. -1.
        -14    1    6    6    0    0  0.15253600864E+02  0.12585657969E+02 -0.42255143520E+02  0.46653705959E+02  0.00000000000E+00 0.  1.
</event>
<event>
12    1  0.8633375E-002  0.2366971E+03  0.7818608E-02  0.1122077E+00
         21   -1    0    0  503  502  0.00000000000E+00  0.00000000000E+00  0.57046401808E+03  0.57046401808E+03  0.00000000000E+00 0.  1.
         21   -1    0    0  501  503 -0.00000000000E+00 -0.00000000000E+00 -0.18412510399E+03  0.18412510399E+03  0.00000000000E+00 0. -1.
          6    2    1    2  501    0  0.16112398222E+03 -0.22118511927E+02 -0.64874243174E+02  0.24506107311E+03  0.17145289706E+03 0.  0.
         24    2    3    3    0    0  0.14949949448E+03  0.37759081096E+02 -0.36734663401E+02  0.17772326195E+03  0.80375837711E+02 0.  0.
         -6    2    1    2    0  502 -0.16112398222E+03  0.22118511927E+02  0.45121315726E+03  0.50952804897E+03  0.17197486206E+03 0.  0.
        -24    2    5    5    0    0 -0.73037819215E+02 -0.20854999693E+01  0.37613446171E+03  0.39118994509E+03  0.78826185392E+02 0.  0.
          5    1    3    3  501    0  0.11624487736E+02 -0.59877593022E+02 -0.28139579773E+02  0.67337811154E+02  0.47000000000E+01 0. -1.
        -11    1    4    4    0    0  0.95181948689E+02 -0.73251951117E+01  0.52206525505E+01  0.95606051340E+02  0.00000000000E+00 0.  1.
         12    1    4    4    0    0  0.54317545795E+02  0.45084276207E+02 -0.41955315951E+02  0.82117210613E+02  0.00000000000E+00 0. -1.
         -5    1    5    5    0  502 -0.88086163006E+02  0.24204011896E+02  0.75078695552E+02  0.11833810388E+03  0.47000000000E+01 0.  1.
         11    1    6    6    0    0 -0.35710356073E+01  0.14781220182E+02  0.10134211322E+02  0.18273998044E+02  0.00000000000E+00 0. -1.
        -12    1    6    6    0    0 -0.69466783607E+02 -0.16866720151E+02  0.36600025039E+03  0.37291594704E+03  0.00000000000E+00 0.  1.
</event>
<event>
12    1  0.8633375E-002  0.1757517E+03  0.7818608E-02  0.1171995E+00
         21   -1    0    0  503  502  0.00000000000E+00  0.00000000000E+00  0.34639016088E+02  0.34639016088E+02  0.00000000000E+00 0. -1.
         21   -1    0    0  501  503 -0.00000000000E+00 -0.00000000000E+00 -0.13768980267E+04  0.13768980267E+04  0.00000000000E+00 0. -1.
          6    2    1    2  501    0  0.31150272766E+02 -0.19738492972E+02 -0.10901352642E+04  0.11042016443E+04  0.17177435598E+03 0.  0.
         24    2    3    3    0    0  0.50185520038E+02 -0.60624342087E+02 -0.95687958142E+03  0.96344241620E+03  0.80055347838E+02 0.  0.
         -6    2    1    2    0  502 -0.31150272766E+02  0.19738492972E+02 -0.25212374636E+03  0.30733539846E+03  0.17183921575E+03 0.  0.
        -24    2    5    5    0    0 -0.71964718796E+02  0.39619912650E+02 -0.22907281133E+03  0.25620296786E+03  0.80105865072E+02 0.  0.
          5    1    3    3  501    0 -0.19035247273E+02  0.40885849116E+02 -0.13325568283E+03  0.14075922813E+03  0.47000000000E+01 0. -1.
        -13    1    4    4    0    0 -0.21735147500E+02 -0.20604507626E+02 -0.26019004143E+03  0.26190803736E+03  0.00000000000E+00 0.  1.
         14    1    4    4    0    0  0.71920667538E+02 -0.40019834462E+02 -0.69668953998E+03  0.70153437884E+03  0.00000000000E+00 0. -1.
         -5    1    5    5    0  502  0.40814446031E+02 -0.19881419678E+02 -0.23050935027E+02  0.51132430598E+02  0.47000000000E+01 0.  1.
         11    1    6    6    0    0 -0.60615393995E+02  0.11408896473E+02 -0.66061951026E+02  0.90380143180E+02  0.00000000000E+00 0. -1.
        -12    1    6    6    0    0 -0.11349324802E+02  0.28211016177E+02 -0.16301086031E+03  0.16582282468E+03  0.00000000000E+00 0.  1.
</event>
<event>
12    1  0.8633375E-002  0.2385177E+03  0.7818608E-02  0.1121461E+00
         21   -1    0    0  503  502  0.00000000000E+00  0.00000000000E+00  0.23287614524E+03  0.23287614524E+03  0.00000000000E+00 0. -1.
         21   -1    0    0  501  503 -0.00000000000E+00 -0.00000000000E+00 -0.24245507461E+03  0.24245507461E+03  0.00000000000E+00 0. -1.
          6    2    1    2  501    0 -0.36560626288E+02  0.16213133403E+03  0.17983070737E+02  0.23919463727E+03  0.17107727726E+03 0.  0.
         24    2    3    3    0    0 -0.81367431818E+02  0.66957522186E+02  0.22766552656E+02  0.13378744595E+03  0.79226233251E+02 0.  0.
         -6    2    1    2    0  502  0.36560626288E+02 -0.16213133403E+03 -0.27562000102E+02  0.23613658258E+03  0.16546169621E+03 0.  0.
        -24    2    5    5    0    0  0.56945845093E+02 -0.18048546322E+03 -0.33514123370E+02  0.20767698006E+03  0.78668290157E+02 0.  0.
          5    1    3    3  501    0  0.44806805530E+02  0.95173811846E+02 -0.47834819192E+01  0.10540719132E+03  0.47000000000E+01 0. -1.
        -11    1    4    4    0    0 -0.55450913997E+02  0.14966952129E+01  0.29910846534E+02  0.63021446350E+02  0.00000000000E+00 0.  1.
         12    1    4    4    0    0 -0.25916517821E+02  0.65460826973E+02 -0.71442938781E+01  0.70765999597E+02  0.00000000000E+00 0. -1.
         -5    1    5    5    0  502 -0.20385218805E+02  0.18354129189E+02  0.59521232681E+01  0.28459602516E+02  0.47000000000E+01 0.  1.
         11    1    6    6    0    0  0.63653533928E+00 -0.12653419864E+03 -0.27289935567E+02  0.12944515899E+03  0.00000000000E+00 0. -1.
        -12    1    6    6    0    0  0.56309309754E+02 -0.53951264579E+02 -0.62241878034E+01  0.78231821073E+02  0.00000000000E+00 0.  1.
</event>
<event>
12    1  0.8633375E-002  0.2294112E+03  0.7818608E-02  0.1127062E+00
         21   -1    0    0  503  502  0.00000000000E+00  0.00000000000E+00  0.57695368410E+03  0.57695368410E+03  0.00000000000E+00 0. -1.
         21   -1    0    0  501  503 -0.00000000000E+00 -0.00000000000E+00 -0.12662327025E+03  0.12662327025E+03  0.00000000000E+00 0. -1.
          6    2    1    2  501    0  0.92928824112E+01  0.15239804214E+03  0.39122741061E+02  0.23272315224E+03  0.17122486914E+03 0.  0.
         24    2    3    3    0    0 -0.15489153618E+02  0.43148188170E+01  0.43447275426E+02  0.82444804048E+02  0.68197862366E+02 0.  0.
         -6    2    1    2    0  502 -0.92928824112E+01 -0.15239804214E+03  0.41120767278E+03  0.47085380211E+03  0.17117252085E+03 0.  0.
        -24    2    5    5    0    0 -0.11849697986E+02 -0.17117099812E+03  0.40944478045E+03  0.45125382835E+03  0.80901566268E+02 0.  0.
          5    1    3    3  501    0  0.24782036029E+02  0.14808322332E+03 -0.43245343655E+01  0.15027834819E+03  0.47000000000E+01 0. -1.
        -11    1    4    4    0    0  0.25015530868E+02  0.10939207747E+02  0.86617473586E+01  0.28643828620E+02  0.00000000000E+00 0.  1.
         12    1    4    4    0    0 -0.40504684486E+02 -0.66243889300E+01  0.34785528068E+02  0.53800975428E+02  0.00000000000E+00 0. -1.
         -5    1    5    5    0  502  0.25568155747E+01  0.18772955978E+02  0.17628923334E+01  0.19599973761E+02  0.47000000000E+01 0.  1.
         11    1    6    6    0    0  0.29740498001E+02 -0.35566709209E+02  0.12693040840E+03  0.13513258897E+03  0.00000000000E+00 0. -1.
        -12    1    6    6    0    0 -0.41590195987E+02 -0.13560428891E+03  0.28251437205E+03  0.31612123938E+03  0.00000000000E+00 0.  1.
</event>
<event>
12    1  0.8633375E-002  0.2104556E+03  0.7818608E-02  0.1141712E+00
         21   -1    0    0  503  502  0.00000000000E+00  0.00000000000E+00  0.66542742366E+03  0.66542742366E+03  0.00000000000E+00 0. -1.
         21   -1    0    0  501  503 -0.00000000000E+00 -0.00000000000E+00 -0.87731222611E+02  0.87731222611E+02  0.00000000000E+00 0. -1.
          6    2    1    2  501    0  0.12103274966E+03 -0.41708432982E+01  0.99069130727E+02  0.23030549950E+03  0.16899588165E+03 0.  0.
         24    2    3    3    0    0  0.95240205066E+02  0.60561846493E+02  0.68948117812E+02  0.15424669394E+03  0.79371063559E+02 0.  0.
         -6    2    1    2    0  502 -0.12103274966E+03  0.41708432982E+01  0.47862707032E+03  0.52285314676E+03  0.17211977869E+03 0.  0.
        -24    2    5    5    0    0 -0.12159037157E+03  0.57383038597E+02  0.37632722009E+03  0.40744431683E+03  0.79445976343E+02 0.  0.
          5    1    3    3  501    0  0.25792544597E+02 -0.64732689791E+02  0.30121012915E+02  0.76058805561E+02  0.47000000000E+01 0. -1.
        -11    1    4    4    0    0  0.34977856282E+02  0.91812397182E+01  0.65690771547E+02  0.74986819237E+02  0.00000000000E+00 0.  1.
         12    1    4    4    0    0  0.60262348785E+02  0.51380606774E+02  0.32573462655E+01  0.79259874705E+02  0.00000000000E+00 0. -1.
         -5    1    5    5    0  502  0.55762190781E+00 -0.53212195298E+02  0.10229985022E+03  0.11540882993E+03  0.47000000000E+01 0.  1.
         13    1    6    6    0    0 -0.14050812089E+02 -0.60923890895E+01  0.13363345422E+03  0.13450815073E+03  0.00000000000E+00 0. -1.
        -14    1    6    6    0    0 -0.10753955948E+03  0.63475427686E+02  0.24269376587E+03  0.27293616610E+03  0.00000000000E+00 0.  1.
</event>
<event>
12    1  0.8633375E-002  0.1790297E+03  0.7818608E-02  0.1168903E+00
         21   -1    0    0  501  502  0.00000000000E+00  0.00000000000E+00  0.54570550046E+02  0.54570550046E+02  0.00000000000E+00 0. -1.
         21   -1    0    0  502  503 -0.00000000000E+00 -0.00000000000E+00 -0.70639088377E+03  0.70639088377E+03  0.00000000000E+00 0. -1.
         -6    2    1    2    0  503 -0.41632417226E+02 -0.25993299032E+02 -0.48397492025E+03  0.51602651026E+03  0.17217063080E+03 0.  0.
        -24    2    3    3    0    0 -0.44361761153E+02  0.33935220403E+02 -0.40904136742E+03  0.41992237872E+03  0.76814053763E+02 0.  0.
          6    2    1    2  501    0  0.41632417226E+02  0.25993299032E+02 -0.16784541348E+03  0.24493492356E+03  0.17149963321E+03 0.  0.
         24    2    5    5    0    0 -0.31357406177E+02 -0.18750739421E+02 -0.10639445565E+03  0.13944628191E+03  0.82405146655E+02 0.  0.
          5    1    5    5  501    0  0.72989823403E+02  0.44744038453E+02 -0.61450957836E+02  0.10548864165E+03  0.47000000000E+01 0. -1.
        -11    1    6    6    0    0 -0.39552148766E+02  0.34489702444E+01 -0.11053133122E+02  0.41212129520E+02  0.00000000000E+00 0.  1.
         12    1    6    6    0    0  0.81947425883E+01 -0.22199709666E+02 -0.95341322523E+02  0.98234152390E+02  0.00000000000E+00 0. -1.
         -5    1    3    3    0  503  0.27293439266E+01 -0.59928519434E+02 -0.74933552827E+02  0.96104131541E+02  0.47000000000E+01 0.  1.
         11    1    4    4    0    0  0.36382161646E+00  0.45701022142E+02 -0.25594204647E+03  0.25999047471E+03  0.00000000000E+00 0. -1.
        -12    1    4    4    0    0 -0.44725582769E+02 -0.11765801739E+02 -0.15309932095E+03  0.15993190401E+03  0.00000000000E+00 0.  1.
</event>
<event>
12    1  0.8633375E-002  0.1829172E+03  0.7818608E-02  0.1165266E+00
         21   -1    0    0  503  502  0.00000000000E+00  0.00000000000E+00  0.13357652391E+03  0.13357652391E+03  0.00000000000E+00 0. -1.
         21   -1    0    0  501  503 -0.00000000000E+00 -0.00000000000E+00 -0.35069330817E+03  0.35069330817E+03  0.00000000000E+00 0. -1.
          6    2    1    2  501    0  0.39953448227E+02  0.44980405871E+02 -0.23917122551E+03  0.30110060875E+03  0.17274022850E+03 0.  0.
         24    2    3    3    0    0  0.47988607615E+01  0.39061349397E+02 -0.38270351483E+02  0.97007170757E+02  0.79980955823E+02 0.  0.
         -6    2    1    2    0  502 -0.39953448227E+02 -0.44980405871E+02  0.22054441246E+02  0.18316922332E+03  0.17159560326E+03 0.  0.
        -24    2    5    5    0    0 -0.33180595056E+02 -0.59139772705E+02  0.74255454497E+02  0.12845729598E+03  0.79930843635E+02 0.  0.
          5    1    3    3  501    0  0.35154587465E+02  0.59190564738E+01 -0.20090087402E+03  0.20409343800E+03  0.47000000000E+01 0. -1.
        -13    1    4    4    0    0  0.26422391166E+02  0.55633742564E+02 -0.22777844600E+02  0.65666477530E+02  0.00000000000E+00 0.  1.
         14    1    4    4    0    0 -0.21623530405E+02 -0.16572393167E+02 -0.15492506884E+02  0.31340693227E+02  0.00000000000E+00 0. -1.
         -5    1    5    5    0  502 -0.67728531708E+01  0.14159366834E+02 -0.52201013251E+02  0.54711927343E+02  0.47000000000E+01 0.  1.
         13    1    6    6    0    0 -0.58676686118E+02 -0.51071080490E+02  0.50996568419E+02  0.93015368337E+02  0.00000000000E+00 0. -1.
        -14    1    6    6    0    0  0.25496091062E+02 -0.80686922144E+01  0.23258886078E+02  0.35441927644E+02  0.00000000000E+00 0.  1.
</event>
<event>
12    1  0.8633375E-002  0.1959710E+03  0.7818608E-02  0.1153327E+00
         21   -1    0    0  501  502  0.00000000000E+00  0.00000000000E+00  0.14132558009E+03  0.14132558009E+03  0.00000000000E+00 0. -1.
         21   -1    0    0  502  503 -0.00000000000E+00 -0.00000000000E+00 -0.27751000534E+03  0.27751000534E+03  0.00000000000E+00 0. -1.
         -6    2    1    2    0  503  0.92369415829E+02  0.12077190482E+02 -0.35492320629E+02  0.19850963092E+03  0.17166362816E+03 0.  0.
        -24    2    3    3    0    0  0.39501178340E+02 -0.54821289058E+02 -0.24291410378E+02  0.11238177544E+03  0.86451570302E+02 0.  0.
          6    2    1    2  501    0 -0.92369415829E+02 -0.12077190482E+02 -0.10069210462E+03  0.22032595450E+03  0.17241420703E+03 0.  0.
         24    2    5    5    0    0 -0.36187691972E+02 -0.71580612437E+02 -0.66160066576E+02  0.13137880744E+03  0.80311291281E+02 0.  0.
          5    1    5    5  501    0 -0.56181723857E+02  0.59503421954E+02 -0.34532038045E+02  0.88947147067E+02  0.47000000000E+01 0. -1.
        -11    1    6    6    0    0 -0.13814102527E+01 -0.65127777602E+02 -0.11339053047E+02  0.66121931563E+02  0.00000000000E+00 0.  1.
         12    1    6    6    0    0 -0.34806281719E+02 -0.64528348351E+01 -0.54821013529E+02  0.65256875874E+02  0.00000000000E+00 0. -1.
         -5    1    3    3    0  503  0.52868237489E+02  0.66898479540E+02 -0.11200910250E+02  0.86127855485E+02  0.47000000000E+01 0.  1.
         11    1    4    4    0    0  0.58338766239E+02 -0.88760873397E+01 -0.54152500589E+01  0.59258092325E+02  0.00000000000E+00 0. -1.
        -12    1    4    4    0    0 -0.18837587900E+02 -0.45945201718E+02 -0.18876160319E+02  0.53123683110E+02  0.00000000000E+00 0.  1.
</event>
<event>
12    1  0.8633375E-002  0.1913840E+03  0.7818608E-02  0.1157253E+00
         21   -1    0    0  501  502  0.00000000000E+00  0.00000000000E+00  0.24656474292E+03  0.24656474292E+03  0.00000000000E+00 0.  1.
         21   -1    0    0  502  503 -0.00000000000E+00 -0.00000000000E+00 -0.15964804985E+03  0.15964804985E+03  0.00000000000E+00 0.  1.
         -6    2    1    2    0  503  0.16377445099E+02 -0.82510358501E+02  0.97269084149E+02  0.21454905335E+03  0.17173771163E+03 0.  0.
        -24    2    3    3    0    0 -0.19838811748E+01 -0.23951644616E+02 -0.19318894283E+02  0.82711623201E+02  0.76748784173E+02 0.  0.
          6    2    1    2  501    0 -0.16377445099E+02  0.82510358501E+02 -0.10352391081E+02  0.19166373942E+03  0.17190589589E+03 0.  0.
         24    2    5    5    0    0 -0.63875722993E+02  0.65306631875E+01 -0.39645440541E+01  0.10170877796E+03  0.78779441191E+02 0.  0.
          5    1    5    5  501    0  0.47498277894E+02  0.75979695313E+02 -0.63878470273E+01  0.89954961466E+02  0.47000000000E+01 0. -1.
        -13    1    6    6    0    0 -0.54382508752E+02  0.11213269774E+02 -0.37195019741E+02  0.66833106846E+02  0.00000000000E+00 0.  1.
         14    1    6    6    0    0 -0.94932142406E+01 -0.46826065869E+01  0.33230475686E+02  0.34875671111E+02  0.00000000000E+00 0. -1.
         -5    1    3    3    0  503  0.18361326274E+02 -0.58558713885E+02  0.11658797843E+03  0.13183743015E+03  0.47000000000E+01 0.  1.
         11    1    4    4    0    0 -0.35354088834E+02 -0.27779831545E+02 -0.22113894546E+01  0.45016895509E+02  0.00000000000E+00 0. -1.
        -12    1    4    4    0    0  0.33370207659E+02  0.38281869298E+01 -0.17107504828E+02  0.37694727692E+02  0.00000000000E+00 0.  1.
</event>
<event>
12    1  0.8633375E-002  0.2084027E+03  0.7818608E-02  0.1143696E+00
         21   -1    0    0  501  502  0.00000000000E+00  0.00000000000E+00  0.11072509499E+03  0.11072509499E+03  0.00000000000E+00 0.  1.
         21   -1    0    0  502  503 -0.00000000000E+00 -0.00000000000E+00 -0.43987759717E+03  0.43987759717E+03  0.00000000000E+00 0.  1.
         -6    2    1    2    0  503 -0.10167062557E+03  0.40511338460E+02 -0.65236727444E+02  0.21432417792E+03  0.17233960074E+03 0.  0.
        -24    2    3    3    0    0 -0.42966823119E+02 -0.37366875244E+02 -0.58799610507E+02  0.11647388887E+03  0.82863389616E+02 0.  0.
          6    2    1    2  501    0  0.10167062557E+03 -0.40511338460E+02 -0.26391577473E+03  0.33627851425E+03  0.17735167984E+03 0.  0.
         24    2    5    5    0    0  0.64496731125E+02 -0.60007383412E+01 -0.26752843063E+03  0.28520972503E+03  0.74681248456E+02 0.  0.
          5    1    5    5  501    0  0.37173894448E+02 -0.34510600119E+02  0.36126558978E+01  0.51068789212E+02  0.47000000000E+01 0. -1.
        -13    1    6    6    0    0  0.74303335792E+02 -0.14241532274E+02 -0.25899332706E+03  0.26981725373E+03  0.00000000000E+00 0.  1.
         14    1    6    6    0    0 -0.98066046670E+01  0.82407939326E+01 -0.85351035744E+01  0.15392471301E+02  0.00000000000E+00 0. -1.
         -5    1    3    3    0  503 -0.58703802454E+02  0.77878213704E+02 -0.64371169376E+01  0.97850289048E+02  0.47000000000E+01 0.  1.
         11    1    4    4    0    0 -0.15675875924E+02  0.63220156112E+01 -0.62580549525E+02  0.64823037157E+02  0.00000000000E+00 0. -1.
        -12    1    4    4    0    0 -0.27290947195E+02 -0.43688890855E+02  0.37809390186E+01  0.51650851714E+02  0.00000000000E+00 0.  1.
</event>
<event>
12    1  0.8633375E-002  0.2068222E+03  0.7818608E-02  0.1144112E+00
         21   -1    0    0  503  502  0.00000000000E+00  0.00000000000E+00  0.19935261097E+03  0.19935261097E+03  0.00000000000E+00 0.  1.
         21   -1    0    0  501  503 -0.00000000000E+00 -0.00000000000E+00 -0.22784842935E+03  0.22784842935E+03  0.00000000000E+00 0.  1.
          6    2    1    2  501    0 -0.11467465041E+03 -0.47743057457E+01 -0.65858425079E+02  0.21705472711E+03  0.17205334336E+03 0.  0.
         24    2    3    3    0    0 -0.27807784697E+02 -0.58507289888E+02 -0.42234785599E+02  0.11211068351E+03  0.81170514243E+02 0.  0.
         -6    2    1    2    0  502  0.11467465041E+03  0.47743057457E+01  0.37362606704E+02  0.21014631322E+03  0.17202453062E+03 0.  0.
        -24    2    5    5    0    0  0.44683859111E+02 -0.28895462675E+01 -0.44170894537E+02  0.10231659876E+03  0.80700816075E+02 0.  0.
          5    1    3    3  501    0 -0.86866865714E+02  0.53732984143E+02 -0.23623639480E+02  0.10494404360E+03  0.47000000000E+01 0. -1.
        -11    1    4    4    0    0 -0.52569835811E+02 -0.16618669960E+02 -0.24281486682E+02  0.60244156762E+02  0.00000000000E+00 0.  1.
         12    1    4    4    0    0  0.24762051114E+02 -0.41888619928E+02 -0.17953298917E+02  0.51866526748E+02  0.00000000000E+00 0. -1.
         -5    1    5    5    0  502  0.69990791301E+02  0.76638520132E+01  0.81533501242E+02  0.10782971445E+03  0.47000000000E+01 0.  1.
         13    1    6    6    0    0 -0.15313003767E+02 -0.24165337688E+02 -0.14797622122E+02  0.32209024363E+02  0.00000000000E+00 0. -1.
        -14    1    6    6    0    0  0.59996862878E+02  0.21275791420E+02 -0.29373272415E+02  0.70107574399E+02  0.00000000000E+00 0.  1.
</event>
<event>
12    1  0.8633375E-002  0.1840891E+03  0.7818608E-02  0.1164073E+00
         21   -1    0    0  501  502  0.00000000000E+00  0.00000000000E+00  0.51844895940E+02  0.51844895940E+02  0.00000000000E+00 0.  1.
         21   -1    0    0  502  503 -0.00000000000E+00 -0.00000000000E+00 -0.75323082833E+03  0.75323082833E+03  0.00000000000E+00 0.  1.
         -6    2    1    2    0  503  0.97653994489E+01  0.65099916211E+02 -0.20187860227E+03  0.27272585923E+03  0.17114631787E+03 0.  0.
        -24    2    3    3    0    0 -0.38606271004E+02  0.45858239586E+02 -0.19610258941E+03  0.22013771469E+03  0.80068505397E+02 0.  0.
          6    2    1    2  501    0 -0.97653994489E+01 -0.65099916211E+02 -0.49950733012E+03  0.53234986503E+03  0.17191696788E+03 0.  0.
         24    2    5    5    0    0  0.40871751309E+02 -0.27420413034E+02 -0.15949678732E+03  0.18649855998E+03  0.83187190134E+02 0.  0.
          5    1    5    5  501    0 -0.50637150758E+02 -0.37679503177E+02 -0.34001054280E+03  0.34585130506E+03  0.47000000000E+01 0. -1.
        -11    1    6    6    0    0 -0.20120228199E+02 -0.20922966013E+02 -0.86016636617E+02  0.90782464521E+02  0.00000000000E+00 0.  1.
         12    1    6    6    0    0  0.60991979509E+02 -0.64974470210E+01 -0.73480150701E+02  0.95716095456E+02  0.00000000000E+00 0. -1.
         -5    1    3    3    0  503  0.48371670453E+02  0.19241676626E+02 -0.57760128599E+01  0.52588144542E+02  0.47000000000E+01 0.  1.
         13    1    4    4    0    0 -0.29509306466E+02  0.68364254140E+02 -0.13139927704E+03  0.15103059431E+03  0.00000000000E+00 0. -1.
        -14    1    4    4    0    0 -0.90969645385E+01 -0.22506014554E+02 -0.64703312372E+02  0.69107120378E+02  0.00000000000E+00 0.  1.
</event>
<event>
12    1  0.8633375E-002  0.1907752E+03  0.7818608E-02  0.1158003E+00
         21   -1    0    0  503  502  0.00000000000E+00  0.00000000000E+00  0.18531945844E+03  0.18531945844E+03  0.00000000000E+00 0.  1.
         21   -1    0    0  501  503 -0.00000000000E+00 -0.00000000000E+00 -0.19689309808E+03  0.19689309808E+03  0.00000000000E+00 0.  1.
          6    2    1    2  501    0  0.71261899448E+02 -0.41320233017E+02  0.11384245903E+02  0.19111452737E+03  0.17207423266E+03 0.  0.
         24    2    3    3    0    0  0.84480865842E+01 -0.72558636018E+02 -0.41067673292E+02  0.10339504985E+03  0.60562832798E+02 0.  0.
         -6    2    1    2    0  502 -0.71261899448E+02  0.41320233017E+02 -0.22957885540E+02  0.19109802915E+03  0.17089696389E+03 0.  0.
        -24    2    5    5    0    0 -0.21880581628E+02 -0.32516895826E+02  0.21957764842E+02  0.91448935852E+02  0.79653349365E+02 0.  0.
          5    1    3    3  501    0  0.62813812864E+02  0.31238403001E+02  0.52451919195E+02  0.87719477516E+02  0.47000000000E+01 0. -1.
        -11    1    4    4    0    0 -0.14053937519E+02 -0.63514889578E+02 -0.13064009947E+02  0.66350001611E+02  0.00000000000E+00 0.  1.
         12    1    4    4    0    0  0.22502024103E+02 -0.90437464405E+01 -0.28003663345E+02  0.37045048241E+02  0.00000000000E+00 0. -1.
         -5    1    5    5    0  502 -0.49381317819E+02  0.73837128843E+02 -0.44915650382E+02  0.99649093295E+02  0.47000000000E+01 0.  1.
         13    1    6    6    0    0  0.20377325575E+02  0.14138344774E+02  0.62768389857E-01  0.24801857399E+02  0.00000000000E+00 0. -1.
        -14    1    6    6    0    0 -0.42257907204E+02 -0.46655240600E+02  0.21894996452E+02  0.66647078453E+02  0.00000000000E+00 0.  1.
</event>
<event>
12    1  0.8633375E-002  0.2259707E+03  0.7818608E-02  0.1129702E+00
         21   -1    0    0  503  502  0.00000000000E+00  0.00000000000E+00  0.64321056135E+03  0.64321056135E+03  0.00000000000E+00 0.  1.
         21   -1    0    0  501  503 -0.00000000000E+00 -0.00000000000E+00 -0.19805825282E+03  0.19805825282E+03  0.00000000000E+00 0.  1.
          6    2    1    2  501    0 -0.13669462859E+03 -0.47150715978E+02 -0.10374625449E+03  0.24767603021E+03  0.17225422815E+03 0.  0.
         24    2    3    3    0    0 -0.12549119496E+03  0.24389644417E+02 -0.80932569757E+02  0.17160964932E+03  0.80974663476E+02 0.  0.
         -6    2    1    2    0  502  0.13669462859E+03  0.47150715978E+02  0.54889856301E+03  0.59359278396E+03  0.17364950098E+03 0.  0.
        -24    2    5    5    0    0  0.15056051202E+03 -0.50817129669E+01  0.38308859409E+03  0.41913498061E+03  0.78885800110E+02 0.  0.
          5    1    3    3  501    0 -0.11203433635E+02 -0.71540360395E+02 -0.22813684732E+02  0.76066380890E+02  0.47000000000E+01 0. -1.
        -13    1    4    4    0    0 -0.10497993452E+03  0.10384540034E+02 -0.22145964454E+02  0.10779178570E+03  0.00000000000E+00 0.  1.
         14    1    4    4    0    0 -0.20511260439E+02  0.14005104384E+02 -0.58786605303E+02  0.63817863617E+02  0.00000000000E+00 0. -1.
         -5    1    5    5    0  502 -0.13865883433E+02  0.52232428945E+02  0.16580996892E+03  0.17445780335E+03  0.47000000000E+01 0.  1.
         11    1    6    6    0    0 -0.41954630735E+01 -0.72275213983E+01  0.32356237080E+01  0.89614863021E+01  0.00000000000E+00 0. -1.
        -12    1    6    6    0    0  0.15475597510E+03  0.21458084314E+01  0.37985297038E+03  0.41017349430E+03  0.00000000000E+00 0.  1.
</event>
<event>
12    1  0.8633375E-002  0.1732818E+03  0.7818608E-02  0.1175286E+00
         21   -1    0    0  501  502  0.00000000000E+00  0.00000000000E+00  0.21349521168E+03  0.21349521168E+03  0.00000000000E+00 0.  1.
         21   -1    0    0  502  503 -0.00000000000E+00 -0.00000000000E+00 -0.13910559978E+03  0.13910559978E+03  0.00000000000E+00 0.  1.
         -6    2    1    2    0  503  0.30803562065E+02 -0.99707392779E+01  0.52064613773E+02  0.17788679337E+03  0.16698716169E+03 0.  0.
        -24    2    3    3    0    0 -0.41048982194E+02 -0.18588569198E+02  0.49440973517E+02  0.10531938610E+03  0.81346231523E+02 0.  0.
          6    2    1    2  501    0 -0.30803562065E+02  0.99707392779E+01  0.22324998127E+02  0.17471401808E+03  0.17023016036E+03 0.  0.
         24    2    5    5    0    0 -0.63405326358E+02  0.52470664787E+02 -0.96034935338E+01  0.11217892967E+03  0.75620626155E+02 0.  0.
          5    1    5    5  501    0  0.32601764293E+02 -0.42499925509E+02  0.31928491661E+02  0.62535088414E+02  0.47000000000E+01 0. -1.
        -11    1    6    6    0    0 -0.32592084904E+02 -0.16013331874E+02 -0.73414092274E+01  0.37048172500E+02  0.00000000000E+00 0.  1.
         12    1    6    6    0    0 -0.30813241454E+02  0.68483996661E+02 -0.22620843064E+01  0.75130757170E+02  0.00000000000E+00 0. -1.
         -5    1    3    3    0  503  0.71852544260E+02  0.86178299199E+01  0.26236402560E+01  0.72567407266E+02  0.47000000000E+01 0.  1.
         13    1    4    4    0    0 -0.19532957736E+02  0.10798303090E+02 -0.17999390228E+02  0.28672597303E+02  0.00000000000E+00 0. -1.
        -14    1    4    4    0    0 -0.21516024458E+02 -0.29386872288E+02  0.67440363745E+02  0.76646788801E+02  0.00000000000E+00 0.  1.
</event>
<event>
12    1  0.8633375E-002  0.2200042E+03  0.7818608E-02  0.1134042E+00
         21   -1    0    0  501  502  0.00000000000E+00  0.00000000000E+00  0.61410747997E+03  0.61410747997E+03  0.00000000000E+00 0.  1.
         21   -1    0    0  502  503 -0.00000000000E+00 -0.00000000000E+00 -0.95720494844E+02  0.95720494844E+02  0.00000000000E+00 0. -1.
         -6    2    1    2    0  503  0.11489792442E+03 -0.74819089811E+02  0.10910351591E+03  0.24557163805E+03  0.17205354688E+03 0.  0.
        -24    2    3    3    0    0  0.14496471244E+03 -0.61065496845E+02  0.11632688567E+03  0.21140381499E+03  0.80099100515E+02 0.  0.
          6    2    1    2  501    0 -0.11489792442E+03  0.74819089811E+02  0.40928346921E+03  0.46425633677E+03  0.17094314500E+03 0.  0.
         24    2    5    5    0    0 -0.70735515407E+01  0.55285116935E+02  0.11542665224E+03  0.15059793920E+03  0.79056612360E+02 0.  0.
          5    1    5    5  501    0 -0.10782437288E+03  0.19533972876E+02  0.29385681697E+03  0.31365839757E+03  0.47000000000E+01 0. -1.
        -13    1    6    6    0    0 -0.26277983176E+01 -0.64730753717E+01  0.77864474334E+02  0.78177249837E+02  0.00000000000E+00 0.  1.
         14    1    6    6    0    0 -0.44457532231E+01  0.61758192307E+02  0.37562177907E+02  0.72420689364E+02  0.00000000000E+00 0. -1.
         -5    1    3    3    0  503 -0.30066788026E+02 -0.13753592967E+02 -0.72233697601E+01  0.34167823056E+02  0.47000000000E+01 0.  1.
         13    1    4    4    0    0  0.47534051362E+02 -0.55654837605E+02  0.23888969474E+02  0.76991102410E+02  0.00000000000E+00 0. -1.
        -14    1    4    4    0    0  0.97430661082E+02 -0.54106592404E+01  0.92437916197E+02  0.13441271258E+03  0.00000000000E+00 0.  1.
</event>
<event>
12    1  0.8633375E-002  0.2628580E+03  0.7818608E-02  0.1105545E+00
         21   -1    0    0  501  502  0.00000000000E+00  0.00000000000E+00  0.55382664828E+03  0.55382664828E+03  0.00000000000E+00 0.  1.
         21   -1    0    0  502  503 -0.00000000000E+00 -0.00000000000E+00 -0.15135135270E+03  0.15135135270E+03  0.00000000000E+00 0. -1.
         -6    2    1    2    0  503  0.18387538743E+03 -0.74081058217E+02  0.52720209551E+02  0.26809275473E+03  0.17261559418E+03 0.  0.
        -24    2    3    3    0    0  0.18333937052E+03 -0.10534884827E+03  0.27560306405E+02  0.22768146008E+03  0.79797068600E+02 0.  0.
          6    2    1    2  501    0 -0.18387538743E+03  0.74081058217E+02  0.34975508603E+03  0.43708524625E+03  0.17151306364E+03 0.  0.
         24    2    5    5    0    0 -0.16098361508E+03 -0.52641231041E+01  0.23790807646E+03  0.29797545296E+03  0.79029629913E+02 0.  0.
          5    1    5    5  501    0 -0.22891772342E+02  0.79345181322E+02  0.11184700956E+03  0.13910979329E+03  0.47000000000E+01 0. -1.
        -11    1    6    6    0    0 -0.11195502172E+03 -0.14848100681E+02  0.21534005798E+03  0.24315783671E+03  0.00000000000E+00 0.  1.
         12    1    6    6    0    0 -0.49028593361E+02  0.95839775767E+01  0.22568018480E+02  0.54817616250E+02  0.00000000000E+00 0. -1.
         -5    1    3    3    0  503  0.53601690470E+00  0.31267790056E+02  0.25159903146E+02  0.40411294651E+02  0.47000000000E+01 0.  1.
         13    1    4    4    0    0  0.42908537562E+02 -0.68487979865E+02  0.97660575008E+01  0.81407136424E+02  0.00000000000E+00 0. -1.
        -14    1    4    4    0    0  0.14043083296E+03 -0.36860868408E+02  0.17794248904E+02  0.14627432365E+03  0.00000000000E+00 0.  1.
</event>
<event>
12    1  0.8633375E-002  0.2004217E+03  0.7818608E-02  0.1149500E+00
         21   -1    0    0  503  502  0.00000000000E+00  0.00000000000E+00  0.92522177752E+02  0.92522177752E+02  0.00000000000E+00 0. -1.
         21   -1    0    0  501  503 -0.00000000000E+00 -0.00000000000E+00 -0.55345501287E+03  0.55345501287E+03  0.00000000000E+00 0. -1.
          6    2    1    2  501    0 -0.73971354192E+02 -0.70779653885E+02 -0.80010278656E+02  0.21580197758E+03  0.17230011083E+03 0.  0.
         24    2    3    3    0    0 -0.29979440934E+02 -0.35094037631E+01 -0.10130428431E+03  0.13251872801E+03  0.79922290125E+02 0.  0.
         -6    2    1    2    0  502  0.73971354192E+02  0.70779653885E+02 -0.38092255646E+03  0.43017521304E+03  0.17166012713E+03 0.  0.
        -24    2    5    5    0    0  0.84596567149E+02  0.10725182230E+03 -0.27395049672E+03  0.31656083990E+03  0.80637200721E+02 0.  0.
          5    1    3    3  501    0 -0.43991913259E+02 -0.67270250122E+02  0.21294005655E+02  0.83283249579E+02  0.47000000000E+01 0. -1.
        -13    1    4    4    0    0 -0.50838983777E+02  0.10388337610E+02 -0.37656996493E+02  0.64113720954E+02  0.00000000000E+00 0.  1.
         14    1    4    4    0    0  0.20859542844E+02 -0.13897741373E+02 -0.63647287819E+02  0.68405007051E+02  0.00000000000E+00 0. -1.
         -5    1    5    5    0  502 -0.10625212957E+02 -0.36472168418E+02 -0.10697205974E+03  0.11361437314E+03  0.47000000000E+01 0.  1.
         13    1    6    6    0    0  0.43395528274E+02  0.10163511116E+03 -0.23453077216E+03  0.25926347754E+03  0.00000000000E+00 0. -1.
        -14    1    6    6    0    0  0.41201038875E+02  0.56167111387E+01 -0.39419724562E+02  0.57297362356E+02  0.00000000000E+00 0.  1.
</event>
<event>
12    1  0.8633375E-002  0.1768292E+03  0.7818608E-02  0.1172073E+00
         21   -1    0    0  503  502  0.00000000000E+00  0.00000000000E+00  0.11386044739E+03  0.11386044739E+03  0.00000000000E+00 0. -1.
         21   -1    0    0  501  503 -0.00000000000E+00 -0.00000000000E+00 -0.47413146756E+03  0.47413146756E+03  0.00000000000E+00 0. -1.
          6    2    1    2  501    0 -0.12360342943E+02  0.14268258006E+02 -0.37557825720E+03  0.41512358537E+03  0.17581866392E+03 0.  0.
         24    2    3    3    0    0  0.26611684517E+02  0.24540318416E+01 -0.36250152029E+03  0.37209468912E+03  0.79579528989E+02 0.  0.
         -6    2    1    2    0  502  0.12360342943E+02 -0.14268258006E+02  0.15307237024E+02  0.17286832958E+03  0.17115135583E+03 0.  0.
        -24    2    5    5    0    0  0.66267839350E+02 -0.17764677454E+02 -0.63403897062E+01  0.11448209096E+03  0.91427229593E+02 0.  0.
          5    1    3    3  501    0 -0.38972027461E+02  0.11814226165E+02 -0.13076736912E+02  0.43028896250E+02  0.47000000000E+01 0. -1.
        -11    1    4    4    0    0  0.11639239839E+02  0.45363090400E+01 -0.37751688511E+01  0.13049977149E+02  0.00000000000E+00 0.  1.
         12    1    4    4    0    0  0.14972444678E+02 -0.20822771984E+01 -0.35872635144E+03  0.35904471197E+03  0.00000000000E+00 0. -1.
         -5    1    5    5    0  502 -0.53907496407E+02  0.34964194479E+01  0.21647626730E+02  0.58386238626E+02  0.47000000000E+01 0.  1.
         13    1    6    6    0    0  0.22818645858E+02  0.20976065456E+02  0.32179628430E+02  0.44679015283E+02  0.00000000000E+00 0. -1.
        -14    1    6    6    0    0  0.43449193492E+02 -0.38740742910E+02 -0.38520018136E+02  0.69803075674E+02  0.00000000000E+00 0.  1.
</event>
<event>
12    1  0.8633375E-002  0.1998251E+03  0.7818608E-02  0.1150003E+00
         21   -1    0    0  501  502  0.00000000000E+00  0.00000000000E+00  0.16193211784E+04  0.16193211784E+04  0.00000000000E+00 0. -1.
         21   -1    0    0  502  503 -0.00000000000E+00 -0.00000000000E+00 -0.53061908325E+02  0.53061908325E+02  0.00000000000E+00 0. -1.
         -6    2    1    2    0  503 -0.76262249435E+02 -0.68100716673E+02  0.17010914497E+03  0.26200538619E+03  0.17104403787E+03 0.  0.
        -24    2    3    3    0    0  0.94202443432E+01 -0.76567891323E+02  0.76514312532E+02  0.13474476602E+03  0.79688951322E+02 0.  0.
          6    2    1    2  501    0  0.76262249435E+02  0.68100716673E+02  0.13961501251E+04  0.14103777006E+04  0.17168706428E+03 0.  0.
         24    2    5    5    0    0 -0.10304648548E+02  0.37446329451E+02  0.27125466895E+03  0.28173010427E+03  0.65454891744E+02 0.  0.
          5    1    5    5  501    0  0.86566897983E+02  0.30654387222E+02  0.11248954562E+04  0.11286475963E+04  0.47000000000E+01 0. -1.
        -13    1    6    6    0    0  0.26538776153E+02  0.92600571981E+01  0.75734144401E+02  0.80781903463E+02  0.00000000000E+00 0.  1.
         14    1    6    6    0    0 -0.36843424700E+02  0.28186272253E+02  0.19552052455E+03  0.20094820081E+03  0.00000000000E+00 0. -1.
         -5    1    3    3    0  503 -0.85682493778E+02  0.84671746494E+01  0.93594832440E+02  0.12726062017E+03  0.47000000000E+01 0.  1.
         11    1    4    4    0    0 -0.66524597426E+01 -0.59101082763E+02  0.53362892672E+01  0.59713224562E+02  0.00000000000E+00 0. -1.
        -12    1    4    4    0    0  0.16072704086E+02 -0.17466808559E+02  0.71178023265E+02  0.75031541459E+02  0.00000000000E+00 0.  1.
</event>
<event>
12    1  0.8633375E-002  0.1769089E+03  0.7818608E-02  0.1171522E+00
         21   -1    0    0  501  502  0.00000000000E+00  0.00000000000E+00  0.13034166408E+03  0.13034166408E+03  0.00000000000E+00 0. -1.
         21   -1    0    0  502  503 -0.00000000000E+00 -0.00000000000E+00 -0.69820894432E+03  0.69820894432E+03  0.00000000000E+00 0. -1.
         -6    2    1    2    0  503  0.16186522858E+02 -0.32987279299E+02 -0.62162643043E+03  0.64630965240E+03  0.17305081237E+03 0.  0.
        -24    2    3    3    0    0  0.23638742729E+02  0.47650637342E+02 -0.37181841453E+03  0.38366132480E+03  0.78215761658E+02 0.  0.
          6    2    1    2  501    0 -0.16186522858E+02  0.32987279299E+02  0.53759150194E+02  0.18224095600E+03  0.17021032782E+03 0.  0.
         24    2    5    5    0    0  0.13532968836E+02  0.69462629792E+02  0.74827553566E+02  0.13047545590E+03  0.80102956479E+02 0.  0.
          5    1    5    5  501    0 -0.29719491695E+02 -0.36475350493E+02 -0.21068403372E+02  0.51765500102E+02  0.47000000000E+01 0. -1.
        -11    1    6    6    0    0  0.42391484944E+01 -0.14812610364E+02  0.31934606536E+02  0.35457057130E+02  0.00000000000E+00 0.  1.
         12    1    6    6    0    0  0.92938203418E+01  0.84275240156E+02  0.42892947030E+02  0.95018398770E+02  0.00000000000E+00 0. -1.
         -5    1    3    3    0  503 -0.74522198705E+01 -0.80637916641E+02 -0.24980801590E+03  0.26264832760E+03  0.47000000000E+01 0.  1.
         11    1    4    4    0    0  0.41023606667E+02  0.25010964664E+02 -0.32709553521E+03  0.33060546549E+03  0.00000000000E+00 0. -1.
        -12    1    4    4    0    0 -0.17384863938E+02  0.22639672679E+02 -0.44722879319E+02  0.53055859315E+02  0.00000000000E+00 0.  1.
</event>
<event>
12    1  0.8633375E-002  0.2112753E+03  0.7818608E-02  0.1140675E+00
         21   -1    0    0  501  502  0.00000000000E+00  0.00000000000E+00  0.69703386656E+02  0.69703386656E+02  0.00000000000E+00 0.  1.
         21   -1    0    0  502  503 -0.00000000000E+00 -0.00000000000E+00 -0.95901864188E+03  0.95901864188E+03  0.00000000000E+00 0.  1.
         -6    2    1    2    0  503 -0.10367689659E+03  0.60318400593E+02 -0.14694078762E+03  0.25686898357E+03  0.17321336933E+03 0.  0.
        -24    2    3    3    0    0 -0.10359698863E+03  0.10309721848E+03 -0.10429832318E+03  0.19628430383E+03  0.79297006258E+02 0.  0.
          6    2    1    2  501    0  0.10367689659E+03 -0.60318400593E+02 -0.74237446761E+03  0.77185304497E+03  0.17392545684E+03 0.  0.
         24    2    5    5    0    0  0.13623104156E+03 -0.47980144201E+02 -0.49630973916E+03  0.52329330264E+03  0.81556927807E+02 0.  0.
          5    1    5    5  501    0 -0.32554144964E+02 -0.12338256392E+02 -0.24606472844E+03  0.24855974233E+03  0.47000000000E+01 0. -1.
        -11    1    6    6    0    0  0.52181186037E+02 -0.31974015268E+02 -0.33651073231E+03  0.34203024250E+03  0.00000000000E+00 0.  1.
         12    1    6    6    0    0  0.84049855521E+02 -0.16006128933E+02 -0.15979900686E+03  0.18126306013E+03  0.00000000000E+00 0. -1.
         -5    1    3    3    0  503 -0.79907962263E-01 -0.42778817887E+02 -0.42642464444E+02  0.60584679738E+02  0.47000000000E+01 0.  1.
         11    1    4    4    0    0 -0.12964046206E+01  0.51389723247E+02 -0.37319343236E+02  0.63524150525E+02  0.00000000000E+00 0. -1.
        -12    1    4    4    0    0 -0.10230058401E+03  0.51707495232E+02 -0.66978979941E+02  0.13276015331E+03  0.00000000000E+00 0.  1.
</event>
<event>
12    1  0.8633375E-002  0.1875953E+03  0.7818608E-02  0.1161095E+00
         21   -1    0    0  501  502  0.00000000000E+00  0.00000000000E+00  0.10790237239E+04  0.10790237239E+04  0.00000000000E+00 0.  1.
         21   -1    0    0  502  503 -0.00000000000E+00 -0.00000000000E+00 -0.33504508071E+02  0.33504508071E+02  0.00000000000E+00 0.  1.
         -6    2    1    2    0  503 -0.44241859487E+02  0.54334273583E+02  0.63178033830E+03  0.65904355631E+03  0.17401855599E+03 0.  0.
        -24    2    3    3    0    0 -0.17605619602E+02  0.87024939872E+02  0.27734562189E+03  0.30207825388E+03  0.80295575754E+02 0.  0.
          6    2    1    2  501    0  0.44241859487E+02 -0.54334273583E+02  0.41373887757E+03  0.45348467571E+03  0.17192712663E+03 0.  0.
         24    2    5    5    0    0  0.75812792953E+02 -0.54535208059E+02  0.17275163009E+03  0.21039270203E+03  0.75500297203E+02 0.  0.
          5    1    5    5  501    0 -0.31570933466E+02  0.20093447653E+00  0.24098724749E+03  0.24309197368E+03  0.47000000000E+01 0. -1.
        -11    1    6    6    0    0  0.32152427018E+02  0.13277533349E+02  0.27864140198E+02  0.44569964819E+02  0.00000000000E+00 0.  1.
         12    1    6    6    0    0  0.43660365935E+02 -0.67812741409E+02  0.14488748989E+03  0.16582273722E+03  0.00000000000E+00 0. -1.
         -5    1    3    3    0  503 -0.26636239885E+02 -0.32690666289E+02  0.35443471641E+03  0.35696530242E+03  0.47000000000E+01 0.  1.
         13    1    4    4    0    0 -0.85589682205E+01 -0.11247027667E+02  0.10613041689E+02  0.17674507694E+02  0.00000000000E+00 0. -1.
        -14    1    4    4    0    0 -0.90466513817E+01  0.98271967539E+02  0.26673258020E+03  0.28440374619E+03  0.00000000000E+00 0.  1.
</event>
<event>
12    1  0.8633375E-002  0.2411182E+03  0.7818608E-02  0.1119072E+00
         21   -1    0    0  501  502  0.00000000000E+00  0.00000000000E+00  0.60795783270E+03  0.60795783270E+03  0.00000000000E+00 0.  1.
         21   -1    0    0  502  503 -0.00000000000E+00 -0.00000000000E+00 -0.14381226192E+03  0.14381226192E+03  0.00000000000E+00 0.  1.
         -6    2    1    2    0  503 -0.14739179680E+03 -0.82647027084E+02  0.14340855188E+02  0.24141505046E+03  0.17181587125E+03 0.  0.
        -24    2    3    3    0    0 -0.32232324503E+02 -0.64451401781E+02  0.51398901951E+02  0.11898885363E+03  0.79521030128E+02 0.  0.
          6    2    1    2  501    0  0.14739179680E+03  0.82647027084E+02  0.44980471560E+03  0.51035504416E+03  0.17199743043E+03 0.  0.
         24    2    5    5    0    0  0.15214965576E+03  0.64419998770E+02  0.45436399360E+03  0.49041165430E+03  0.82204002394E+02 0.  0.
          5    1    5    5  501    0 -0.47578589558E+01  0.18227028314E+02 -0.45592780014E+01  0.19943389855E+02  0.47000000000E+01 0. -1.
        -13    1    6    6    0    0  0.11117386937E+03  0.79149631582E+02  0.38542948858E+03  0.40887673458E+03  0.00000000000E+00 0.  1.
         14    1    6    6    0    0  0.40975786388E+02 -0.14729632811E+02  0.68934505015E+02  0.81534919724E+02  0.00000000000E+00 0. -1.
         -5    1    3    3    0  503 -0.11515947230E+03 -0.18195625303E+02 -0.37058046763E+02  0.12242619683E+03  0.47000000000E+01 0.  1.
         13    1    4    4    0    0 -0.19785578828E+02 -0.81403583345E+02  0.50752396068E+02  0.97948038355E+02  0.00000000000E+00 0. -1.
        -14    1    4    4    0    0 -0.12446745675E+02  0.16952181564E+02  0.64650588273E+00  0.21040815277E+02  0.00000000000E+00 0.  1.
</event>
<event>
12    1  0.8633375E-002  0.1748420E+03  0.7818608E-02  0.1172910E+00
         21   -1    0    0  503  502  0.00000000000E+00  0.00000000000E+00  0.17887153296E+03  0.17887153296E+03  0.00000000000E+00 0.  1.
         21   -1    0    0  501  503 -0.00000000000E+00 -0.00000000000E+00 -0.18060384016E+03  0.18060384016E+03  0.00000000000E+00 0.  1.
          6    2    1    2  501    0 -0.28380379023E+02 -0.20985580779E+02 -0.42683936860E+02  0.17997673778E+03  0.17124213022E+03 0.  0.
         24    2    3    3    0    0 -0.37025188652E+01  0.40149422271E+02  0.16857163115E+02  0.91017657486E+02  0.79839622190E+02 0.  0.
         -6    2    1    2    0  502  0.28380379023E+02  0.20985580779E+02  0.40951629653E+02  0.17949863534E+03  0.17116332436E+03 0.  0.
        -24    2    5    5    0    0  0.67294113627E+02 -0.15926448052E+02 -0.88649693042E+01  0.10614633378E+03  0.80039409152E+02 0.  0.
          5    1    3    3  501    0 -0.24677860158E+02 -0.61135003050E+02 -0.59541099974E+02  0.88959080290E+02  0.47000000000E+01 0. -1.
        -13    1    4    4    0    0 -0.25758998445E+02 -0.38960783835E+01 -0.17122668288E+02  0.31175169558E+02  0.00000000000E+00 0.  1.
         14    1    4    4    0    0  0.22056479579E+02  0.44045500655E+02  0.33979831403E+02  0.59842487929E+02  0.00000000000E+00 0. -1.
         -5    1    5    5    0  502 -0.38913734604E+02  0.36912028831E+02  0.49816598958E+02  0.73352301565E+02  0.47000000000E+01 0.  1.
         11    1    6    6    0    0 -0.51532152362E+01  0.67872928965E+01 -0.26808436341E+02  0.28130325828E+02  0.00000000000E+00 0. -1.
        -12    1    6    6    0    0  0.72447328863E+02 -0.22713740949E+02  0.17943467037E+02  0.78016007951E+02  0.00000000000E+00 0.  1.
</event>
<event>
12    1  0.8633375E-002  0.1765752E+03  0.7818608E-02  0.1171426E+00
         21   -1    0    0  503  502  0.00000000000E+00  0.00000000000E+00  0.12657426742E+04  0.12657426742E+04  0.00000000000E+00 0. -1.
         21   -1    0    0  501  503 -0.00000000000E+00 -0.00000000000E+00 -0.25179347198E+02  0.25179347198E+02  0.00000000000E+00 0. -1.
          6    2    1    2  501    0  0.34138173568E+02  0.10257851216E+02  0.72572829074E+03  0.74664827054E+03  0.17184716906E+03 0.  0.
         24    2    3    3    0    0  0.17585630084E+02 -0.47384308299E+02  0.30027813203E+03  0.31696637332E+03  0.88012488794E+02 0.  0.
         -6    2    1    2    0  502 -0.34138173568E+02 -0.10257851216E+02  0.51483503626E+03  0.54427375085E+03  0.17293976670E+03 0.  0.
        -24    2    5    5    0    0 -0.25807782188E+02  0.23427476593E+02  0.12422712590E+03  0.15209939375E+03  0.80541656868E+02 0.  0.
          5    1    3    3  501    0  0.16552543484E+02  0.57642159515E+02  0.42545015871E+03  0.42968189722E+03  0.47000000000E+01 0. -1.
        -11    1    4    4    0    0  0.39805297994E+02 -0.47855832762E+02  0.11868046507E+03  0.13401378760E+03  0.00000000000E+00 0.  1.
         12    1    4    4    0    0 -0.22219667910E+02  0.47152446249E+00  0.18159766696E+03  0.18295258572E+03  0.00000000000E+00 0. -1.
         -5    1    5    5    0  502 -0.83303913808E+01 -0.33685327809E+02  0.39060791036E+03  0.39217435710E+03  0.47000000000E+01 0.  1.
         11    1    6    6    0    0  0.22881693713E+02 -0.12065244286E+02  0.51693593843E+02  0.57804581750E+02  0.00000000000E+00 0. -1.
        -12    1    6    6    0    0 -0.48689475901E+02  0.35492720879E+02  0.72533532053E+02  0.94294812005E+02  0.00000000000E+00 0.  1.
</event>
<event>
12    1  0.8633375E-002  0.1997412E+03  0.7818608E-02  0.1150354E+00
         21   -1    0    0  501  502  0.00000000000E+00  0.00000000000E+00  0.33376116979E+03  0.33376116979E+03  0.00000000000E+00 0. -1.
         21   -1    0    0  502  503 -0.00000000000E+00 -0.00000000000E+00 -0.13391466206E+03  0.13391466206E+03  0.00000000000E+00 0. -1.
         -6    2    1    2    0  503 -0.10082043742E+03  0.18844332765E+02  0.17904466753E+03  0.26685439429E+03  0.16921703609E+03 0.  0.
        -24    2    3    3    0    0 -0.67064986195E+02  0.66300662018E+02  0.16651143943E+03  0.20709901394E+03  0.79186185396E+02 0.  0.
          6    2    1    2  501    0  0.10082043742E+03 -0.18844332765E+02  0.20801840205E+02  0.20082143757E+03  0.17139621861E+03 0.  0.
         24    2    5    5    0    0 -0.10691520328E+02 -0.11392108411E+02  0.28108431239E+02  0.88723584598E+02  0.82690397364E+02 0.  0.
          5    1    5    5  501    0  0.11151195774E+03 -0.74522243537E+01 -0.73065910335E+01  0.11209785297E+03  0.47000000000E+01 0. -1.
        -13    1    6    6    0    0 -0.26688651092E+02  0.13216143664E+02 -0.17458648438E+02  0.34521804063E+02  0.00000000000E+00 0.  1.
         14    1    6    6    0    0  0.15997130765E+02 -0.24608252075E+02  0.45567079677E+02  0.54201780535E+02  0.00000000000E+00 0. -1.
         -5    1    3    3    0  503 -0.33755451222E+02 -0.47456329254E+02  0.12533228096E+02  0.59755380343E+02  0.47000000000E+01 0.  1.
         13    1    4    4    0    0 -0.81726396079E+02  0.35654581345E+02  0.11982186775E+03  0.14935773492E+03  0.00000000000E+00 0. -1.
        -14    1    4    4    0    0  0.14661409885E+02  0.30646080673E+02  0.46689571676E+02  0.57741279027E+02  0.00000000000E+00 0.  1.
</event>
<event>
12    1  0.8633375E-002  0.2272677E+03  0.7818608E-02  0.1128637E+00
         21   -1    0    0  501  502  0.00000000000E+00  0.00000000000E+00  0.52824743199E+03  0.52824743199E+03  0.00000000000E+00 0. -1.
         21   -1    0    0  502  503 -0.00000000000E+00 -0.00000000000E+00 -0.10302238080E+03  0.10302238080E+03  0.00000000000E+00 0.  1.
         -6    2    1    2    0  503 -0.78772713395E+02 -0.12592674659E+03  0.14028000656E+03  0.26679170919E+03  0.17157112219E+03 0.  0.
        -24    2    3    3    0    0 -0.12442965254E+03 -0.11094490068E+03  0.98489869136E+02  0.20293626788E+03  0.60756605229E+02 0.  0.
          6    2    1    2  501    0  0.78772713395E+02  0.12592674659E+03  0.28494504464E+03  0.36447810360E+03  0.17201140561E+03 0.  0.
         24    2    5    5    0    0  0.15146068799E+02  0.13824283156E+03  0.22387921368E+03  0.27530881762E+03  0.79577376587E+02 0.  0.
          5    1    5    5  501    0  0.63626644597E+02 -0.12316084971E+02  0.61065830952E+02  0.89169285976E+02  0.47000000000E+01 0. -1.
        -13    1    6    6    0    0  0.27468865569E+02  0.24884153529E+02  0.21048958309E+02  0.42624151820E+02  0.00000000000E+00 0.  1.
         14    1    6    6    0    0 -0.12322796770E+02  0.11335867803E+03  0.20283025537E+03  0.23268466580E+03  0.00000000000E+00 0. -1.
         -5    1    3    3    0  503  0.45656939149E+02 -0.14981845903E+02  0.41790137420E+02  0.63855441308E+02  0.47000000000E+01 0.  1.
         11    1    4    4    0    0 -0.80326254838E+02 -0.85392587077E+02  0.96638853041E+02  0.15193179082E+03  0.00000000000E+00 0. -1.
        -12    1    4    4    0    0 -0.44103397706E+02 -0.25552313605E+02  0.18510160953E+01  0.51004477062E+02  0.00000000000E+00 0.  1.
</event>
<event>
12    1  0.8633375E-002  0.4950256E+03  0.7818608E-02  0.1015124E+00
         21   -1    0    0  501  502  0.00000000000E+00  0.00000000000E+00  0.22729414763E+04  0.22729414763E+04  0.00000000000E+00 0. -1.
         21   -1    0    0  502  503 -0.00000000000E+00 -0.00000000000E+00 -0.11478410633E+03  0.11478410633E+03  0.00000000000E+00 0.  1.
         -6    2    1    2    0  503 -0.36820011048E+03  0.28223740403E+03  0.78157308408E+03  0.92483987054E+03  0.17100592615E+03 0.  0.
        -24    2    3    3    0    0 -0.28939866823E+03  0.28600772950E+03  0.67406697062E+03  0.79140997476E+03  0.80071572741E+02 0.  0.
          6    2    1    2  501    0  0.36820011048E+03 -0.28223740403E+03  0.13765842859E+04  0.14628857121E+04  0.17268768605E+03 0.  0.
         24    2    5    5    0    0  0.15387430066E+03 -0.64182348088E+02  0.42662879126E+03  0.46492725006E+03  0.79677776741E+02 0.  0.
          5    1    5    5  501    0  0.21432580981E+03 -0.21805505594E+03  0.94995549466E+03  0.99795846206E+03  0.47000000000E+01 0. -1.
        -13    1    6    6    0    0  0.46515634161E+02 -0.35218824312E+02  0.68743180498E+02  0.90164819482E+02  0.00000000000E+00 0.  1.
         14    1    6    6    0    0  0.10735866650E+03 -0.28963523777E+02  0.35788561077E+03  0.37476243058E+03  0.00000000000E+00 0. -1.
         -5    1    3    3    0  503 -0.78801442249E+02 -0.37703254706E+01  0.10750611347E+03  0.13342989578E+03  0.47000000000E+01 0.  1.
         13    1    4    4    0    0 -0.31596941360E+02  0.59004832428E+02  0.15667784071E+03  0.17037571048E+03  0.00000000000E+00 0. -1.
        -14    1    4    4    0    0 -0.25780172687E+03  0.22700289707E+03  0.51738912991E+03  0.62103426428E+03  0.00000000000E+00 0.  1.
</event>
<event>
12    1  0.8633375E-002  0.2025655E+03  0.7818608E-02  0.1150987E+00
         21   -1    0    0  503  502  0.00000000000E+00  0.00000000000E+00  0.11174481744E+04  0.11174481744E+04  0.00000000000E+00 0.  1.
         21   -1    0    0  501  503 -0.00000000000E+00 -0.00000000000E+00 -0.15457339359E+03  0.15457339359E+03  0.00000000000E+00 0.  1.
          6    2    1    2  501    0  0.92207602439E+02  0.55381822754E+02 -0.76087463725E+02  0.21638413502E+03  0.17164907082E+03 0.  0.
         24    2    3    3    0    0  0.11124681831E+03 -0.16893551391E+00 -0.25999477987E+02  0.13905836441E+03  0.79280342676E+02 0.  0.
         -6    2    1    2    0  502 -0.92207602439E+02 -0.55381822754E+02  0.10389622445E+04  0.10556374330E+04  0.15283473444E+03 0.  0.
        -24    2    5    5    0    0 -0.10027918707E+03 -0.78956493745E+02  0.98050439030E+03  0.99191674312E+03  0.78866486122E+02 0.  0.
          5    1    3    3  501    0 -0.19039215870E+02  0.55550758267E+02 -0.50087985738E+02  0.77325770609E+02  0.47000000000E+01 0. -1.
        -11    1    4    4    0    0  0.81018048355E+02 -0.67754906704E+01 -0.53776808147E+02  0.97477056417E+02  0.00000000000E+00 0.  1.
         12    1    4    4    0    0  0.30228769954E+02  0.66065551565E+01  0.27777330160E+02  0.41581307997E+02  0.00000000000E+00 0. -1.
         -5    1    5    5    0  502  0.80715846285E+01  0.23574670992E+02  0.58457854233E+02  0.63720689829E+02  0.47000000000E+01 0.  1.
         13    1    6    6    0    0 -0.61417672094E+01 -0.16459765294E+02  0.30356664684E+02  0.35073811722E+02  0.00000000000E+00 0. -1.
        -14    1    6    6    0    0 -0.94137419858E+02 -0.62496728451E+02  0.95014772561E+03  0.95684293140E+03  0.00000000000E+00 0.  1.
</event>
<event>
12    1  0.8633375E-002  0.2094598E+03  0.7818608E-02  0.1142072E+00
         21   -1    0    0  503  502  0.00000000000E+00  0.00000000000E+00  0.23759986010E+03  0.23759986010E+03  0.00000000000E+00 0. -1.
         21   -1    0    0  501  503 -0.00000000000E+00 -0.00000000000E+00 -0.48902900561E+03  0.48902900561E+03  0.00000000000E+00 0. -1.
          6    2    1    2  501    0  0.99994359968E+02  0.63581148806E+02 -0.41254876634E+03  0.46267687891E+03  0.17271935373E+03 0.  0.
         24    2    3    3    0    0 -0.10863060256E+01 -0.18317248712E+02 -0.17350679259E+03  0.19048613004E+03  0.76443815975E+02 0.  0.
         -6    2    1    2    0  502 -0.99994359968E+02 -0.63581148806E+02  0.16111962084E+03  0.26395198680E+03  0.17224890307E+03 0.  0.
        -24    2    5    5    0    0 -0.49018758520E+02 -0.74407882016E+02  0.17177589844E+03  0.21055370642E+03  0.82985133675E+02 0.  0.
          5    1    3    3  501    0  0.10108066599E+03  0.81898397518E+02 -0.23904197375E+03  0.27219074887E+03  0.47000000000E+01 0. -1.
        -13    1    4    4    0    0 -0.74938885237E+01 -0.42818060599E+02 -0.59421232411E+02  0.73623552888E+02  0.00000000000E+00 0.  1.
         14    1    4    4    0    0  0.64075824981E+01  0.24500811887E+02 -0.11408556018E+03  0.11686257715E+03  0.00000000000E+00 0. -1.
         -5    1    5    5    0  502 -0.50975601449E+02  0.10826733210E+02 -0.10656277600E+02  0.53398280378E+02  0.47000000000E+01 0.  1.
         11    1    6    6    0    0 -0.52271337675E+02 -0.51703616481E+02  0.55714845739E+02  0.92248039195E+02  0.00000000000E+00 0. -1.
        -12    1    6    6    0    0  0.32525791551E+01 -0.22704265535E+02  0.11606105270E+03  0.11830566723E+03  0.00000000000E+00 0.  1.
</event>
<event>
12    1  0.8633375E-002  0.2529957E+03  0.7818608E-02  0.1111454E+00
         21   -1    0    0  501  502  0.00000000000E+00  0.00000000000E+00  0.50188677254E+02  0.50188677254E+02  0.00000000000E+00 0. -1.
         21   -1    0    0  502  503 -0.00000000000E+00 -0.00000000000E+00 -0.12800234561E+04  0.12800234561E+04  0.00000000000E+00 0. -1.
         -6    2    1    2    0  503  0.18234197973E+03  0.30324715124E+02 -0.65915947810E+03  0.70604395323E+03  0.17273870559E+03 0.  0.
        -24    2    3    3    0    0  0.16512653240E+03  0.79626501806E+02 -0.52239853105E+03  0.55957660385E+03  0.81354771473E+02 0.  0.
          6    2    1    2  501    0 -0.18234197973E+03 -0.30324715124E+02 -0.57067530073E+03  0.62416818011E+03  0.17247443948E+03 0.  0.
         24    2    5    5    0    0 -0.14391173183E+03  0.36282259630E+02 -0.45588956881E+03  0.48592481754E+03  0.79124208912E+02 0.  0.
          5    1    5    5  501    0 -0.38430247903E+02 -0.66606974754E+02 -0.11478573192E+03  0.13824336256E+03  0.47000000000E+01 0. -1.
        -13    1    6    6    0    0 -0.37494480445E+02  0.40164256751E+02 -0.96006658850E+02  0.11061772972E+03  0.00000000000E+00 0.  1.
         14    1    6    6    0    0 -0.10641725138E+03 -0.38819971210E+01 -0.35988290996E+03  0.37530708783E+03  0.00000000000E+00 0. -1.
         -5    1    3    3    0  503  0.17215447329E+02 -0.49301786682E+02 -0.13676094704E+03  0.14646734937E+03  0.47000000000E+01 0.  1.
         11    1    4    4    0    0  0.59894489922E+02 -0.80266653968E+01 -0.20897332822E+03  0.21753535158E+03  0.00000000000E+00 0. -1.
        -12    1    4    4    0    0  0.10523204248E+03  0.87653167203E+02 -0.31342520284E+03  0.34204125228E+03  0.00000000000E+00 0.  1.
</event>
<event>
12    1  0.8633375E-002  0.2311456E+03  0.7818608E-02  0.1126702E+00
         21   -1    0    0  503  502  0.00000000000E+00  0.00000000000E+00  0.10930406646E+04  0.10930406646E+04  0.00000000000E+00 0.  1.
         21   -1    0    0  501  503 -0.00000000000E+00 -0.00000000000E+00 -0.67480575472E+02  0.67480575472E+02  0.00000000000E+00 0. -1.
          6    2    1    2  501    0  0.13593439947E+03 -0.55905258323E+02  0.20372241300E+03  0.30810891951E+03  0.17839485937E+03 0.  0.
         24    2    3    3    0    0 -0.94165867362E+00 -0.39295534784E+02  0.11453676254E+03  0.14383138465E+03  0.77612959371E+02 0.  0.
         -6    2    1    2    0  502 -0.13593439947E+03  0.55905258323E+02  0.82183767611E+03  0.85241232055E+03  0.17200592863E+03 0.  0.
        -24    2    5    5    0    0  0.11059289274E+01  0.21228364913E+02  0.35729991675E+03  0.36681994168E+03  0.80260653809E+02 0.  0.
          5    1    3    3  501    0  0.13687605815E+03 -0.16609723540E+02  0.89185650463E+02  0.16427753486E+03  0.47000000000E+01 0. -1.
        -11    1    4    4    0    0 -0.12818484400E+02  0.19571896930E+02  0.52561135167E+02  0.57532995940E+02  0.00000000000E+00 0.  1.
         12    1    4    4    0    0  0.11876825727E+02 -0.58867431713E+02  0.61975627373E+02  0.86298388711E+02  0.00000000000E+00 0. -1.
         -5    1    5    5    0  502 -0.13704032840E+03  0.34676893410E+02  0.46453775936E+03  0.48559237887E+03  0.47000000000E+01 0.  1.
         11    1    6    6    0    0  0.14071742823E+02  0.31471144361E+02  0.61060975289E+02  0.70120536056E+02  0.00000000000E+00 0. -1.
        -12    1    6    6    0    0 -0.12965813896E+02 -0.10242779448E+02  0.29623894146E+03  0.29669940562E+03  0.00000000000E+00 0.  1.
</event>
<event>
12    1  0.8633375E-002  0.1790011E+03  0.7818608E-02  0.1169079E+00
         21   -1    0    0  501  502  0.00000000000E+00  0.00000000000E+00  0.82271499755E+02  0.82271499755E+02  0.00000000000E+00 0.  1.
         21   -1    0    0  502  503 -0.00000000000E+00 -0.00000000000E+00 -0.38698399830E+03  0.38698399830E+03  0.00000000000E+00 0.  1.
         -6    2    1    2    0  503 -0.21323617928E+02 -0.40791152246E+02 -0.15768712843E+03  0.23761383881E+03  0.17168718979E+03 0.  0.
        -24    2    3    3    0    0 -0.32528535491E+02 -0.14388764673E+02 -0.10297851616E+02  0.87386260891E+02  0.79152831121E+02 0.  0.
          6    2    1    2  501    0  0.21323617928E+02  0.40791152246E+02 -0.14702537011E+03  0.23164165924E+03  0.17298203391E+03 0.  0.
         24    2    5    5    0    0  0.27478116849E+02  0.83000528761E+02 -0.61195772906E+02  0.13568167238E+03  0.83788178863E+02 0.  0.
          5    1    5    5  501    0 -0.61544989217E+01 -0.42209376516E+02 -0.85829597202E+02  0.95959986863E+02  0.47000000000E+01 0. -1.
        -13    1    6    6    0    0  0.36631906061E+02  0.44602527671E+02 -0.74304995946E+02  0.94087801754E+02  0.00000000000E+00 0.  1.
         14    1    6    6    0    0 -0.91537892121E+01  0.38398001091E+02  0.13109223040E+02  0.41593870623E+02  0.00000000000E+00 0. -1.
         -5    1    3    3    0  503  0.11204917564E+02 -0.26402387573E+02 -0.14738927682E+03  0.15022757792E+03  0.47000000000E+01 0.  1.
         11    1    4    4    0    0  0.25571568501E+02  0.37603214724E+01 -0.45832868175E+01  0.26249793356E+02  0.00000000000E+00 0. -1.
        -12    1    4    4    0    0 -0.58100103992E+02 -0.18149086146E+02 -0.57145647986E+01  0.61136467535E+02  0.00000000000E+00 0.  1.
</event>
<event>
12    1  0.8633375E-002  0.1867598E+03  0.7818608E-02  0.1161655E+00
         21   -1    0    0  503  502  0.00000000000E+00  0.00000000000E+00  0.47676899937E+03  0.47676899937E+03  0.00000000000E+00 0.  1.
         21   -1    0    0  501  503 -0.00000000000E+00 -0.00000000000E+00 -0.94511542579E+02  0.94511542579E+02  0.00000000000E+00 0.  1.
          6    2    1    2  501    0  0.53699451781E+02  0.47789089078E+02  0.53674482697E+02  0.19333081280E+03  0.17125543766E+03 0.  0.
         24    2    3    3    0    0  0.53998822556E+02 -0.28835274936E+01  0.87768906223E+02  0.13207460161E+03  0.82559868720E+02 0.  0.
         -6    2    1    2    0  502 -0.53699451781E+02 -0.47789089078E+02  0.32858297409E+03  0.37794972915E+03  0.17237110763E+03 0.  0.
        -24    2    5    5    0    0 -0.26085401532E+02 -0.99214475558E+02  0.21570675026E+03  0.25078747825E+03  0.76426414342E+02 0.  0.
          5    1    3    3  501    0 -0.29937077403E+00  0.50672616572E+02 -0.34094423526E+02  0.61256211185E+02  0.47000000000E+01 0. -1.
        -13    1    4    4    0    0  0.57971029008E+02  0.16992185220E+02  0.23728365785E+02  0.64903080864E+02  0.00000000000E+00 0.  1.
         14    1    4    4    0    0 -0.39722064525E+01 -0.19875712714E+02  0.64040540438E+02  0.67171520748E+02  0.00000000000E+00 0. -1.
         -5    1    5    5    0  502 -0.27614050249E+02  0.51425386480E+02  0.11287622384E+03  0.12716225090E+03  0.47000000000E+01 0.  1.
         13    1    6    6    0    0  0.15017781518E+02 -0.32130639873E+01  0.59457810752E+01  0.16468450276E+02  0.00000000000E+00 0. -1.
        -14    1    6    6    0    0 -0.41103183050E+02 -0.96001411571E+02  0.20976096918E+03  0.23431902798E+03  0.00000000000E+00 0.  1.
</event>
<event>
12    1  0.8633375E-002  0.3176074E+03  0.7818608E-02  0.1076835E+00
         21   -1    0    0  503  502  0.00000000000E+00  0.00000000000E+00  0.38295016345E+03  0.38295016345E+03  0.00000000000E+00 0. -1.
         21   -1    0    0  501  503 -0.00000000000E+00 -0.00000000000E+00 -0.29880152154E+03  0.29880152154E+03  0.00000000000E+00 0. -1.
          6    2    1    2  501    0 -0.20261063034E+03 -0.17294177298E+03 -0.76124771333E+02  0.32660288980E+03  0.17295821013E+03 0.  0.
         24    2    3    3    0    0 -0.53425505051E+02 -0.13146171849E+02 -0.34888670386E+02  0.10408695381E+03  0.81177387300E+02 0.  0.
         -6    2    1    2    0  502  0.20261063034E+03  0.17294177298E+03  0.16027341324E+03  0.35514879519E+03  0.17170665498E+03 0.  0.
        -24    2    5    5    0    0  0.66784235630E+02  0.28905572203E+02  0.15587335138E+02  0.10989099647E+03  0.80854188858E+02 0.  0.
          5    1    3    3  501    0 -0.14918512529E+03 -0.15979560113E+03 -0.41236100947E+02  0.22251593599E+03  0.47000000000E+01 0. -1.
        -13    1    4    4    0    0 -0.67668946971E+02  0.11816781224E+02 -0.19117882082E+02  0.71303689371E+02  0.00000000000E+00 0.  1.
         14    1    4    4    0    0  0.14243441920E+02 -0.24962953073E+02 -0.15770788304E+02  0.32783264443E+02  0.00000000000E+00 0. -1.
         -5    1    5    5    0  502  0.13582639471E+03  0.14403620077E+03  0.14468607810E+03  0.24525779871E+03  0.47000000000E+01 0.  1.
         11    1    6    6    0    0  0.15471032520E+02  0.33564901427E+02  0.38617960834E+02  0.53453740318E+02  0.00000000000E+00 0. -1.
        -12    1    6    6    0    0  0.51313203111E+02 -0.46593292236E+01 -0.23030625696E+02  0.56437256154E+02  0.00000000000E+00 0.  1.
</event>
<event>
12    1  0.8633375E-002  0.3589025E+03  0.7818608E-02  0.1059049E+00
         21   -1    0    0  503  502  0.00000000000E+00  0.00000000000E+00  0.37541697277E+03  0.37541697277E+03  0.00000000000E+00 0.  1.
         21   -1    0    0  501  503 -0.00000000000E+00 -0.00000000000E+00 -0.52502338505E+03  0.52502338505E+03  0.00000000000E+00 0. -1.
          6    2    1    2  501    0  0.31443194771E+03 -0.23841286521E+02  0.19039756188E+03  0.40627849902E+03  0.17139174574E+03 0.  0.
         24    2    3    3    0    0  0.32276053660E+03 -0.39139405756E+02  0.19527563809E+03  0.38758937190E+03  0.79916764892E+02 0.  0.
         -6    2    1    2    0  502 -0.31443194771E+03  0.23841286521E+02 -0.34000397416E+03  0.49416185880E+03  0.17075533247E+03 0.  0.
        -24    2    5    5    0    0 -0.29169496275E+03  0.91179271904E+01 -0.35190350259E+03  0.46420461307E+03  0.80503166202E+02 0.  0.
          5    1    3    3  501    0 -0.83285888877E+01  0.15298119234E+02 -0.48780762020E+01  0.18689127117E+02  0.47000000000E+01 0. -1.
        -13    1    4    4    0    0  0.30771896727E+03 -0.37451237653E+02  0.15922733454E+03  0.34849232716E+03  0.00000000000E+00 0.  1.
         14    1    4    4    0    0  0.15041569327E+02 -0.16881681029E+01  0.36048303543E+02  0.39097044743E+02  0.00000000000E+00 0. -1.
         -5    1    5    5    0  502 -0.22736984959E+02  0.14723359331E+02  0.11899528432E+02  0.29957245733E+02  0.47000000000E+01 0.  1.
         11    1    6    6    0    0 -0.95430027068E+02 -0.22352613449E+02 -0.16172993221E+03  0.18911134383E+03  0.00000000000E+00 0. -1.
        -12    1    6    6    0    0 -0.19626493568E+03  0.31470540639E+02 -0.19017357038E+03  0.27509326923E+03  0.00000000000E+00 0.  1.
</event>
<event>
12    1  0.8633375E-002  0.2528635E+03  0.7818608E-02  0.1111747E+00
         21   -1    0    0  501  502  0.00000000000E+00  0.00000000000E+00  0.21484963642E+03  0.21484963642E+03  0.00000000000E+00 0. -1.
         21   -1    0    0  502  503 -0.00000000000E+00 -0.00000000000E+00 -0.43203182503E+03  0.43203182503E+03  0.00000000000E+00 0.  1.
         -6    2    1    2    0  503 -0.14365957673E+03  0.11643938372E+03 -0.28998348022E+03  0.38374653989E+03  0.17021981086E+03 0.  0.
        -24    2    3    3    0    0 -0.25868056614E+02  0.23843256286E+01 -0.13306380697E+03  0.15674594002E+03  0.78666839427E+02 0.  0.
          6    2    1    2  501    0  0.14365957673E+03 -0.11643938372E+03  0.72801291597E+02  0.26313492156E+03  0.17246377829E+03 0.  0.
         24    2    5    5    0    0  0.11049948086E+03 -0.14584276031E+03  0.31190650240E+02  0.20216209166E+03  0.80102488332E+02 0.  0.
          5    1    5    5  501    0  0.33160095864E+02  0.29403376585E+02  0.41610641357E+02  0.60972829903E+02  0.47000000000E+01 0. -1.
        -13    1    6    6    0    0  0.77478512001E+02 -0.61397372330E+02 -0.15680210913E+02  0.10009208842E+03  0.00000000000E+00 0.  1.
         14    1    6    6    0    0  0.33020968862E+02 -0.84445387978E+02  0.46870861154E+02  0.10207000324E+03  0.00000000000E+00 0. -1.
         -5    1    3    3    0  503 -0.11779152011E+03  0.11405505809E+03 -0.15691967324E+03  0.22700059986E+03  0.47000000000E+01 0.  1.
         13    1    4    4    0    0 -0.35461865307E+02 -0.30444491185E+02 -0.92887673497E+02  0.10398331992E+03  0.00000000000E+00 0. -1.
        -14    1    4    4    0    0  0.95938086932E+01  0.32828816813E+02 -0.40176133477E+02  0.52762620100E+02  0.00000000000E+00 0.  1.
</event>
<event>
12    1  0.8633375E-002  0.1849422E+03  0.7818608E-02  0.1165920E+00
         21   -1    0    0  501  502  0.00000000000E+00  0.00000000000E+00  0.26758599206E+03  0.26758599206E+03  0.00000000000E+00 0.  1.
         21   -1    0    0  502  503 -0.00000000000E+00 -0.00000000000E+00 -0.24976148914E+03  0.24976148914E+03  0.00000000000E+00 0.  1.
         -6    2    1    2    0  503 -0.17627282347E+02  0.15386531972E+02 -0.17742302207E+03  0.25628609243E+03  0.18345616905E+03 0.  0.
        -24    2    3    3    0    0 -0.20447102190E+02  0.82500743621E+02 -0.98934018447E+02  0.15287002753E+03  0.79729847772E+02 0.  0.
          6    2    1    2  501    0  0.17627282347E+02 -0.15386531972E+02  0.19524752500E+03  0.26106138876E+03  0.17170901618E+03 0.  0.
         24    2    5    5    0    0  0.52678448750E+02 -0.45274723176E+02  0.18573085748E+03  0.21379041246E+03  0.79909758600E+02 0.  0.
          5    1    5    5  501    0 -0.35051166404E+02  0.29888191203E+02  0.95166675161E+01  0.47270976299E+02  0.47000000000E+01 0. -1.
        -11    1    6    6    0    0 -0.10017621860E+02 -0.17779573823E+02  0.10927191965E+03  0.11116122713E+03  0.00000000000E+00 0.  1.
         12    1    6    6    0    0  0.62696070610E+02 -0.27495149353E+02  0.76458937827E+02  0.10262918533E+03  0.00000000000E+00 0. -1.
         -5    1    3    3    0  503  0.28198198430E+01 -0.67114211649E+02 -0.78489003627E+02  0.10341606490E+03  0.47000000000E+01 0.  1.
         11    1    4    4    0    0 -0.26055228386E+02  0.41780875754E+02 -0.10030919293E+03  0.11174278810E+03  0.00000000000E+00 0. -1.
        -12    1    4    4    0    0  0.56081261959E+01  0.40719867867E+02  0.13751744873E+01  0.41127239434E+02  0.00000000000E+00 0.  1.
</event>
<event>
12    1  0.8633375E-002  0.2045331E+03  0.7818608E-02  0.1146176E+00
         21   -1    0    0  501  502  0.00000000000E+00  0.00000000000E+00  0.92839256650E+03  0.92839256650E+03  0.00000000000E+00 0. -1.
         21   -1    0    0  502  503 -0.00000000000E+00 -0.00000000000E+00 -0.69263593002E+02  0.69263593002E+02  0.00000000000E+00 0.  1.
         -6    2    1    2    0  503  0.92373469173E+02 -0.56271103469E+02  0.13266964284E+03  0.24295294941E+03  0.17241115568E+03 0.  0.
        -24    2    3    3    0    0  0.10976572239E+03  0.25347261296E+01  0.58310334547E+02  0.14645417845E+03  0.77419588109E+02 0.  0.
          6    2    1    2  501    0 -0.92373469173E+02  0.56271103469E+02  0.72645933065E+03  0.75470321009E+03  0.17359286083E+03 0.  0.
         24    2    5    5    0    0 -0.12368796914E+03  0.48523515742E+02  0.43984403704E+03  0.46623997230E+03  0.79143474526E+02 0.  0.
          5    1    5    5  501    0  0.31314499962E+02  0.77475877272E+01  0.28661529361E+03  0.28846323779E+03  0.47000000000E+01 0. -1.
        -13    1    6    6    0    0  0.17633683652E+01 -0.13725731903E+02  0.54729689649E+02  0.56452140024E+02  0.00000000000E+00 0.  1.
         14    1    6    6    0    0 -0.12545133750E+03  0.62249247645E+02  0.38511434739E+03  0.40978783228E+03  0.00000000000E+00 0. -1.
         -5    1    3    3    0  503 -0.17392253216E+02 -0.58805829599E+02  0.74359308296E+02  0.96498770961E+02  0.47000000000E+01 0.  1.
         13    1    4    4    0    0 -0.32857360059E+01 -0.16027713054E+02  0.19587740274E+02  0.25521818428E+02  0.00000000000E+00 0. -1.
        -14    1    4    4    0    0  0.11305145839E+03  0.18562439184E+02  0.38722594273E+02  0.12093236002E+03  0.00000000000E+00 0.  1.
</event>
<event>
12    1  0.8633375E-002  0.1843206E+03  0.7818608E-02  0.1163789E+00
         21   -1    0    0  503  502  0.00000000000E+00  0.00000000000E+00  0.25606044096E+03  0.25606044096E+03  0.00000000000E+00 0.  1.
         21   -1    0    0  501  503 -0.00000000000E+00 -0.00000000000E+00 -0.15426886906E+03  0.15426886906E+03  0.00000000000E+00 0.  1.
          6    2    1    2  501    0 -0.62309831224E+02  0.16743094458E+02 -0.26466342276E+02  0.18577603915E+03  0.17219007861E+03 0.  0.
         24    2    3    3    0    0 -0.10179045817E+03 -0.10922745257E+02 -0.39880969619E+02  0.13551511181E+03  0.79330007260E+02 0.  0.
         -6    2    1    2    0  502  0.62309831224E+02 -0.16743094458E+02  0.12825791418E+03  0.22455327087E+03  0.17265929639E+03 0.  0.
        -24    2    5    5    0    0  0.19908619999E+02 -0.10998030373E+00 -0.73599548097E+01  0.81414109256E+02  0.78598492385E+02 0.  0.
          5    1    3    3  501    0  0.39480626944E+02  0.27665839714E+02  0.13414627343E+02  0.50260927347E+02  0.47000000000E+01 0. -1.
        -13    1    4    4    0    0 -0.45560299638E+02 -0.32689591059E+02 -0.49081851339E+02  0.74520992999E+02  0.00000000000E+00 0.  1.
         14    1    4    4    0    0 -0.56230158530E+02  0.21766845802E+02  0.92008817204E+01  0.60994118806E+02  0.00000000000E+00 0. -1.
         -5    1    5    5    0  502  0.42401211224E+02 -0.16633114154E+02  0.13561786899E+03  0.14313916162E+03  0.47000000000E+01 0.  1.
         11    1    6    6    0    0  0.14450695821E+02 -0.34607933737E+02  0.14501187701E+02  0.40209652224E+02  0.00000000000E+00 0. -1.
        -12    1    6    6    0    0  0.54579241784E+01  0.34497953433E+02 -0.21861142511E+02  0.41204457032E+02  0.00000000000E+00 0.  1.
</event>
<event>
12    1  0.8633375E-002  0.2731984E+03  0.7818608E-02  0.1100438E+00
         21   -1    0    0  503  502  0.00000000000E+00  0.00000000000E+00  0.36164899650E+03  0.36164899650E+03  0.00000000000E+00 0.  1.
         21   -1    0    0  501  503 -0.00000000000E+00 -0.00000000000E+00 -0.27650405460E+03  0.27650405460E+03  0.00000000000E+00 0. -1.
          6    2    1    2  501    0 -0.16416426598E+03 -0.13190385611E+03 -0.12426511268E+03  0.29392935201E+03  0.16310767076E+03 0.  0.
         24    2    3    3    0    0 -0.13202040976E+02 -0.53423581756E+02 -0.32654273267E+02  0.10063325081E+03  0.77668376011E+02 0.  0.
         -6    2    1    2    0  502  0.16416426598E+03  0.13190385611E+03  0.20941005458E+03  0.34422369908E+03  0.17403692300E+03 0.  0.
        -24    2    5    5    0    0  0.10386415416E+03  0.48521248117E+02  0.19502128770E+03  0.24021461576E+03  0.80794089707E+02 0.  0.
          5    1    3    3  501    0 -0.15096222500E+03 -0.78480274357E+02 -0.91610839417E+02  0.19329610120E+03  0.47000000000E+01 0. -1.
        -13    1    4    4    0    0  0.22538963253E+02 -0.54498798585E+02 -0.25056977496E+02  0.64077890360E+02  0.00000000000E+00 0.  1.
         14    1    4    4    0    0 -0.35741004229E+02  0.10752168288E+01 -0.75972957717E+01  0.36555360449E+02  0.00000000000E+00 0. -1.
         -5    1    5    5    0  502  0.60300111813E+02  0.83382607996E+02  0.14388766887E+02  0.10400908332E+03  0.47000000000E+01 0.  1.
         11    1    6    6    0    0 -0.10178714217E+02 -0.67168950382E+00  0.41546610924E+02  0.42780582853E+02  0.00000000000E+00 0. -1.
        -12    1    6    6    0    0  0.11404286838E+03  0.49192937621E+02  0.15347467677E+03  0.19743403291E+03  0.00000000000E+00 0.  1.
</event>
<event>
12    1  0.8633375E-002  0.2114107E+03  0.7818608E-02  0.1140806E+00
         21   -1    0    0  501  502  0.00000000000E+00  0.00000000000E+00  0.72009926965E+02  0.72009926965E+02  0.00000000000E+00 0. -1.
         21   -1    0    0  502  503 -0.00000000000E+00 -0.00000000000E+00 -0.71241280746E+03  0.71241280746E+03  0.00000000000E+00 0.  1.
         -6    2    1    2    0  503 -0.17876153741E+02 -0.12060057907E+03 -0.17666991156E+03  0.27551177872E+03  0.17271486912E+03 0.  0.
        -24    2    3    3    0    0 -0.54944258833E+02 -0.12871470370E+03 -0.10073466893E+03  0.19049334243E+03  0.80956120581E+02 0.  0.
          6    2    1    2  501    0  0.17876153741E+02  0.12060057907E+03 -0.46373296893E+03  0.50891095571E+03  0.17052283665E+03 0.  0.
         24    2    5    5    0    0 -0.39614032069E+02  0.74922551639E+02 -0.37815015141E+03  0.39604770966E+03  0.81692049977E+02 0.  0.
          5    1    5    5  501    0  0.57490185811E+02  0.45678027434E+02 -0.85582817518E+02  0.11286324605E+03  0.47000000000E+01 0. -1.
        -11    1    6    6    0    0 -0.37838857425E+02 -0.35260477859E+01 -0.97830312451E+02  0.10495228525E+03  0.00000000000E+00 0.  1.
         12    1    6    6    0    0 -0.17751746447E+01  0.78448599425E+02 -0.28031983896E+03  0.29109542441E+03  0.00000000000E+00 0. -1.
         -5    1    3    3    0  503  0.37068105092E+02  0.81141246307E+01 -0.75935242638E+02  0.85018436283E+02  0.47000000000E+01 0.  1.
         11    1    4    4    0    0 -0.44640586316E+02 -0.63073936166E+02 -0.96899864759E+02  0.12393823930E+03  0.00000000000E+00 0. -1.
        -12    1    4    4    0    0 -0.10303672517E+02 -0.65640767538E+02 -0.38348041674E+01  0.66555103135E+02  0.00000000000E+00 0.  1.
</event>
<event>
12    1  0.8633375E-002  0.2739746E+03  0.7818608E-02  0.1099859E+00
         21   -1    0    0  501  502  0.00000000000E+00  0.00000000000E+00  0.14291844994E+04  0.14291844994E+04  0.00000000000E+00 0. -1.
         21   -1    0    0  502  503 -0.00000000000E+00 -0.00000000000E+00 -0.56104183556E+02  0.56104183556E+02  0.00000000000E+00 0.  1.
         -6    2    1    2    0  503 -0.20582122282E+03 -0.11720257601E+02  0.46476894724E+03  0.53655709959E+03  0.17141647120E+03 0.  0.
        -24    2    3    3    0    0 -0.22758304864E+03  0.41318671882E+01  0.41654809016E+03  0.48112959757E+03  0.78500075691E+02 0.  0.
          6    2    1    2  501    0  0.20582122282E+03  0.11720257601E+02  0.90831136860E+03  0.94873158336E+03  0.18045036642E+03 0.  0.
         24    2    5    5    0    0  0.23171788770E+03  0.20529720173E+02  0.82223476155E+03  0.85829090577E+03  0.80489918200E+02 0.  0.
          5    1    5    5  501    0 -0.25896664877E+02 -0.88094625721E+01  0.86076607045E+02  0.90440677590E+02  0.47000000000E+01 0. -1.
        -13    1    6    6    0    0 -0.59842776964E+01 -0.21441148583E+01  0.11695218419E+02  0.13311158550E+02  0.00000000000E+00 0.  1.
         14    1    6    6    0    0  0.23770216540E+03  0.22673835032E+02  0.81053954313E+03  0.84497974722E+03  0.00000000000E+00 0. -1.
         -5    1    3    3    0  503  0.21761825813E+02 -0.15852124789E+02  0.48220857077E+02  0.55427502021E+02  0.47000000000E+01 0.  1.
         13    1    4    4    0    0 -0.83762393879E+02 -0.17992600615E+02  0.22368635197E+03  0.23953174395E+03  0.00000000000E+00 0. -1.
        -14    1    4    4    0    0 -0.14382065476E+03  0.22124467803E+02  0.19286173819E+03  0.24159785361E+03  0.00000000000E+00 0.  1.
</event>
<event>
12    1  0.8633375E-002  0.2119454E+03  0.7818608E-02  0.1140041E+00
         21   -1    0    0  501  502  0.00000000000E+00  0.00000000000E+00  0.42884312775E+03  0.42884312775E+03  0.00000000000E+00 0.  1.
         21   -1    0    0  502  503 -0.00000000000E+00 -0.00000000000E+00 -0.14106793327E+03  0.14106793327E+03  0.00000000000E+00 0.  1.
         -6    2    1    2    0  503 -0.61655700122E+02  0.10671730036E+03 -0.72279128808E+00  0.21194658670E+03  0.17242629044E+03 0.  0.
        -24    2    3    3    0    0 -0.24963171605E+02  0.13036725990E+03 -0.31315628290E+02  0.15843328078E+03  0.80632831356E+02 0.  0.
          6    2    1    2  501    0  0.61655700122E+02 -0.10671730036E+03  0.28849798577E+03  0.35796447431E+03  0.17238755617E+03 0.  0.
         24    2    5    5    0    0  0.35027755266E+02 -0.13513767418E+03  0.27091094155E+03  0.31497425194E+03  0.79541853843E+02 0.  0.
          5    1    5    5  501    0  0.26627944856E+02  0.28420373816E+02  0.17587044220E+02  0.42990222370E+02  0.47000000000E+01 0. -1.
        -13    1    6    6    0    0 -0.62053709925E+01 -0.45155986497E+02  0.15978698708E+03  0.16616091895E+03  0.00000000000E+00 0.  1.
         14    1    6    6    0    0  0.41233126259E+02 -0.89981687680E+02  0.11112395446E+03  0.14881333299E+03  0.00000000000E+00 0. -1.
         -5    1    3    3    0  503 -0.36692528516E+02 -0.23649959540E+02  0.30592837002E+02  0.53513305925E+02  0.47000000000E+01 0.  1.
         11    1    4    4    0    0  0.22750041661E+02  0.40518911161E+02  0.11798156571E+02  0.47943123133E+02  0.00000000000E+00 0. -1.
        -12    1    4    4    0    0 -0.47713213267E+02  0.89848348740E+02 -0.43113784862E+02  0.11049015765E+03  0.00000000000E+00 0.  1.
</event>
<event>
12    1  0.8633375E-002  0.2475505E+03  0.7818608E-02  0.1115581E+00
         21   -1    0    0  503  502  0.00000000000E+00  0.00000000000E+00  0.28833765200E+03  0.28833765200E+03  0.00000000000E+00 0.  1.
         21   -1    0    0  501  503 -0.00000000000E+00 -0.00000000000E+00 -0.23886362831E+03  0.23886362831E+03  0.00000000000E+00 0. -1.
          6    2    1    2  501    0  0.37517171092E+02  0.17396837081E+03  0.11816187855E+03  0.27029803230E+03  0.16560876956E+03 0.  0.
         24    2    3    3    0    0 -0.29943577660E+02  0.14706266162E+03  0.92167487745E+02  0.19301499301E+03  0.78967698725E+02 0.  0.
         -6    2    1    2    0  502 -0.37517171092E+02 -0.17396837081E+03 -0.68687854861E+02  0.25690324802E+03  0.17207186077E+03 0.  0.
        -24    2    5    5    0    0  0.40583431548E+02 -0.69104252413E+02 -0.16003372997E+02  0.11585739700E+03  0.82124392691E+02 0.  0.
          5    1    3    3  501    0  0.67460748753E+02  0.26905709188E+02  0.25994390807E+02  0.77283039295E+02  0.47000000000E+01 0. -1.
        -13    1    4    4    0    0  0.58187115798E+01  0.36028750317E+02 -0.10116260547E+02  0.37871717432E+02  0.00000000000E+00 0.  1.
         14    1    4    4    0    0 -0.35762289240E+02  0.11103391130E+03  0.10228374829E+03  0.15514327557E+03  0.00000000000E+00 0. -1.
         -5    1    5    5    0  502 -0.78100602641E+02 -0.10486411840E+03 -0.52684481865E+02  0.14104585102E+03  0.47000000000E+01 0.  1.
         13    1    6    6    0    0  0.16401263403E+02 -0.38190780712E+02 -0.49232924031E+02  0.64431498363E+02  0.00000000000E+00 0. -1.
        -14    1    6    6    0    0  0.24182168145E+02 -0.30913471701E+02  0.33229551035E+02  0.51425898638E+02  0.00000000000E+00 0.  1.
</event>
<event>
12    1  0.8633375E-002  0.1802377E+03  0.7818608E-02  0.1167674E+00
         21   -1    0    0  501  502  0.00000000000E+00  0.00000000000E+00  0.25027428162E+02  0.25027428162E+02  0.00000000000E+00 0. -1.
         21   -1    0    0  502  503 -0.00000000000E+00 -0.00000000000E+00 -0.19728322374E+04  0.19728322374E+04  0.00000000000E+00 0. -1.
         -6    2    1    2    0  503 -0.20236593049E+02  0.50446955423E+02 -0.15586950162E+04  0.15690333000E+04  0.17140865744E+03 0.  0.
        -24    2    3    3    0    0 -0.28439352049E+02  0.41747926904E+02 -0.15514376070E+04  0.15542780182E+04  0.79182215459E+02 0.  0.
          6    2    1    2  501    0  0.20236593049E+02 -0.50446955423E+02 -0.38910979306E+03  0.42882636563E+03  0.17184645993E+03 0.  0.
         24    2    5    5    0    0 -0.47266039280E+02 -0.55283208810E+02 -0.19063240698E+03  0.21907566240E+03  0.79769164591E+02 0.  0.
          5    1    5    5  501    0  0.67502632329E+02  0.48362533865E+01 -0.19847738609E+03  0.20975070323E+03  0.47000000000E+01 0. -1.
        -11    1    6    6    0    0  0.31371143662E+01  0.17861257827E+02 -0.22296155423E+02  0.28739947188E+02  0.00000000000E+00 0.  1.
         12    1    6    6    0    0 -0.50403153646E+02 -0.73144466637E+02 -0.16833625155E+03  0.19033571521E+03  0.00000000000E+00 0. -1.
         -5    1    3    3    0  503  0.82027590006E+01  0.86990285193E+01 -0.72574092247E+01  0.14755281802E+02  0.47000000000E+01 0.  1.
         13    1    4    4    0    0 -0.25970736871E+02 -0.15488118564E+02 -0.29759803089E+03  0.29913032107E+03  0.00000000000E+00 0. -1.
        -14    1    4    4    0    0 -0.24686151786E+01  0.57236045467E+02 -0.12538395761E+04  0.12551476971E+04  0.00000000000E+00 0.  1.
</event>
<event>
12    1  0.8633375E-002  0.2554506E+03  0.7818608E-02  0.1109951E+00
         21   -1    0    0  501  502  0.00000000000E+00  0.00000000000E+00  0.35017494560E+03  0.35017494560E+03  0.00000000000E+00 0. -1.
         21   -1    0    0  502  503 -0.00000000000E+00 -0.00000000000E+00 -0.23662344086E+03  0.23662344086E+03  0.00000000000E+00 0.  1.
         -6    2    1    2    0  503  0.16002259000E+03 -0.99281490044E+02 -0.78760685008E+02  0.26705006608E+03  0.17218724899E+03 0.  0.
        -24    2    3    3    0    0  0.17578671076E+03 -0.44789639159E+02 -0.58429163783E+02  0.20660728263E+03  0.79784225264E+02 0.  0.
          6    2    1    2  501    0 -0.16002259000E+03  0.99281490044E+02  0.19231218974E+03  0.31974832038E+03  0.17260059816E+03 0.  0.
         24    2    5    5    0    0 -0.16740855424E+03  0.12211035997E+03  0.14203605140E+03  0.26384223970E+03  0.80634505702E+02 0.  0.
          5    1    5    5  501    0  0.73859642351E+01 -0.22828869926E+02  0.50276138341E+02  0.55906080673E+02  0.47000000000E+01 0. -1.
        -13    1    6    6    0    0 -0.13704574273E+03  0.58877183892E+02  0.11624599414E+03  0.18910629164E+03  0.00000000000E+00 0.  1.
         14    1    6    6    0    0 -0.30362811508E+02  0.63233176078E+02  0.25790057259E+02  0.74735948064E+02  0.00000000000E+00 0. -1.
         -5    1    3    3    0  503 -0.15764120757E+02 -0.54491850885E+02 -0.20331521225E+02  0.60442783452E+02  0.47000000000E+01 0.  1.
         13    1    4    4    0    0  0.50899092623E+02 -0.38430210109E+02  0.92061379330E+01  0.64438743428E+02  0.00000000000E+00 0. -1.
        -14    1    4    4    0    0  0.12488761814E+03 -0.63594290501E+01 -0.67635301716E+02  0.14216853921E+03  0.00000000000E+00 0.  1.
</event>
<event>
12    1  0.8633375E-002  0.2022664E+03  0.7818608E-02  0.1150057E+00
         21   -1    0    0  501  502  0.00000000000E+00  0.00000000000E+00  0.24427651478E+03  0.24427651478E+03  0.00000000000E+00 0. -1.
         21   -1    0    0  502  503 -0.00000000000E+00 -0.00000000000E+00 -0.22185361083E+03  0.22185361083E+03  0.00000000000E+00 0. -1.
         -6    2    1    2    0  503 -0.61628390061E+02 -0.87957970356E+02 -0.11259111308E+03  0.23149183396E+03  0.17139733789E+03 0.  0.
        -24    2    3    3    0    0 -0.73932132243E+02 -0.12437387651E+03 -0.92804830030E+02  0.18800520050E+03  0.76147210086E+02 0.  0.
          6    2    1    2  501    0  0.61628390061E+02  0.87957970356E+02  0.13501401703E+03  0.23463829165E+03  0.15903358169E+03 0.  0.
         24    2    5    5    0    0  0.17837592281E+02  0.14738797789E+02  0.11398198448E+02  0.84366398719E+02  0.80326573725E+02 0.  0.
          5    1    5    5  501    0  0.43790797780E+02  0.73219172567E+02  0.12361581859E+03  0.15027189293E+03  0.47000000000E+01 0. -1.
        -11    1    6    6    0    0  0.10603955364E+02 -0.33139440233E+02  0.87206610041E+01  0.35870827934E+02  0.00000000000E+00 0.  1.
         12    1    6    6    0    0  0.72336369168E+01  0.47878238022E+02  0.26775374437E+01  0.48495570786E+02  0.00000000000E+00 0. -1.
         -5    1    3    3    0  503  0.12303742183E+02  0.36415906150E+02 -0.19786283054E+02  0.43486633458E+02  0.47000000000E+01 0.  1.
         13    1    4    4    0    0 -0.35964913576E+02 -0.65390798857E+02 -0.38603519183E+01  0.74728400897E+02  0.00000000000E+00 0. -1.
        -14    1    4    4    0    0 -0.37967218668E+02 -0.58983077649E+02 -0.88944478112E+02  0.11327679961E+03  0.00000000000E+00 0.  1.
</event>
<event>
12    1  0.8633375E-002  0.2445339E+03  0.7818608E-02  0.1117076E+00
         21   -1    0    0  503  502  0.00000000000E+00  0.00000000000E+00  0.77746516169E+03  0.77746516169E+03  0.00000000000E+00 0.  1.
         21   -1    0    0  501  503 -0.00000000000E+00 -0.00000000000E+00 -0.10597389963E+03  0.10597389963E+03  0.00000000000E+00 0.  1.
          6    2    1    2  501    0  0.10892970561E+02  0.17347344976E+03  0.10158491172E+03  0.26328580880E+03  0.16967094109E+03 0.  0.
         24    2    3    3    0    0  0.74800643741E+01  0.17089222197E+03  0.13270846793E+03  0.23151984562E+03  0.82035349464E+02 0.  0.
         -6    2    1    2    0  502 -0.10892970561E+02 -0.17347344976E+03  0.56990635034E+03  0.62015325251E+03  0.17200323795E+03 0.  0.
        -24    2    5    5    0    0 -0.47502854801E+02 -0.17996314839E+03  0.52466617807E+03  0.56140665262E+03  0.72522928772E+02 0.  0.
          5    1    3    3  501    0  0.34129061870E+01  0.25812277841E+01 -0.31123556211E+02  0.31765963180E+02  0.47000000000E+01 0. -1.
        -13    1    4    4    0    0  0.29143132144E+02  0.13812436948E+03  0.70108958833E+02  0.15761640049E+03  0.00000000000E+00 0.  1.
         14    1    4    4    0    0 -0.21663067770E+02  0.32767852491E+02  0.62599509102E+02  0.73903445129E+02  0.00000000000E+00 0. -1.
         -5    1    5    5    0  502  0.36609884240E+02  0.64896986308E+01  0.45240172270E+02  0.58746599897E+02  0.47000000000E+01 0.  1.
         13    1    6    6    0    0 -0.51742243113E+02 -0.71078338665E+02  0.18791634735E+03  0.20746552377E+03  0.00000000000E+00 0. -1.
        -14    1    6    6    0    0  0.42393883114E+01 -0.10888480972E+03  0.33674983072E+03  0.35394112885E+03  0.00000000000E+00 0.  1.
</event>
<event>
12    1  0.8633375E-002  0.2012278E+03  0.7818608E-02  0.1150571E+00
         21   -1    0    0  501  502  0.00000000000E+00  0.00000000000E+00  0.91242743466E+02  0.91242743466E+02  0.00000000000E+00 0. -1.
         21   -1    0    0  502  503 -0.00000000000E+00 -0.00000000000E+00 -0.45448701598E+03  0.45448701598E+03  0.00000000000E+00 0. -1.
         -6    2    1    2    0  503 -0.62732539919E+01 -0.85821695945E+02 -0.25507500393E+03  0.32489365317E+03  0.18190082746E+03 0.  0.
        -24    2    3    3    0    0  0.12720742481E+01 -0.93584927002E+02 -0.27525380046E+03  0.30151687914E+03  0.79925071181E+02 0.  0.
          6    2    1    2  501    0  0.62732539919E+01  0.85821695945E+02 -0.10816926858E+03  0.22083610628E+03  0.17223030499E+03 0.  0.
         24    2    5    5    0    0 -0.57722609685E+01 -0.60472528671E+01 -0.99742573249E+02  0.12767980010E+03  0.79269553870E+02 0.  0.
          5    1    5    5  501    0  0.12045514960E+02  0.91868948813E+02 -0.84266953346E+01  0.93156306179E+02  0.47000000000E+01 0. -1.
        -11    1    6    6    0    0 -0.19038369491E+02  0.26678675107E+02 -0.81691393269E+02  0.88020991545E+02  0.00000000000E+00 0.  1.
         12    1    6    6    0    0  0.13266108523E+02 -0.32725927974E+02 -0.18051179979E+02  0.39658808552E+02  0.00000000000E+00 0. -1.
         -5    1    3    3    0  503 -0.75453282401E+01  0.77632310565E+01  0.20178796530E+02  0.23376774031E+02  0.47000000000E+01 0.  1.
         11    1    4    4    0    0 -0.53810147062E+01 -0.55756750787E+02 -0.24843446927E+03  0.25467127066E+03  0.00000000000E+00 0. -1.
        -12    1    4    4    0    0  0.66530889543E+01 -0.37828176215E+02 -0.26819331189E+02  0.46845608479E+02  0.00000000000E+00 0.  1.
</event>
<event>
12    1  0.8633375E-002  0.3005945E+03  0.7818608E-02  0.1085027E+00
         21   -1    0    0  501  502  0.00000000000E+00  0.00000000000E+00  0.13209545553E+04  0.13209545553E+04  0.00000000000E+00 0.  1.
         21   -1    0    0  502  503 -0.00000000000E+00 -0.00000000000E+00 -0.15341291004E+03  0.15341291004E+03  0.00000000000E+00 0.  1.
         -6    2    1    2    0  503  0.24217624084E+03  0.43047188224E+02  0.34238670812E+02  0.30187751974E+03  0.17162563417E+03 0.  0.
        -24    2    3    3    0    0  0.49554013501E+02  0.11645643280E+01  0.45301084431E+02  0.10438842221E+03  0.79923700968E+02 0.  0.
          6    2    1    2  501    0 -0.24217624084E+03 -0.43047188224E+02  0.11333029745E+04  0.11724899456E+04  0.17278497786E+03 0.  0.
         24    2    5    5    0    0 -0.17561350951E+03  0.80078886284E+01  0.96808818237E+03  0.98713829171E+03  0.79643249016E+02 0.  0.
          5    1    5    5  501    0 -0.66562731331E+02 -0.51055076852E+02  0.16521479209E+03  0.18535165389E+03  0.47000000000E+01 0. -1.
        -11    1    6    6    0    0 -0.90564602162E+02 -0.29467141187E+02  0.38007225772E+03  0.39182289451E+03  0.00000000000E+00 0.  1.
         12    1    6    6    0    0 -0.85048907347E+02  0.37475029815E+02  0.58801592465E+03  0.59531539720E+03  0.00000000000E+00 0. -1.
         -5    1    3    3    0  503  0.19262222734E+03  0.41882623896E+02 -0.11062413619E+02  0.19748909753E+03  0.47000000000E+01 0.  1.
         11    1    4    4    0    0  0.24872634869E+02 -0.24045956840E+02 -0.12404356926E+02  0.36752198253E+02  0.00000000000E+00 0. -1.
        -12    1    4    4    0    0  0.24681378633E+02  0.25210521168E+02  0.57705441357E+02  0.67636223956E+02  0.00000000000E+00 0.  1.
</event>
<event>
12    1  0.8633375E-002  0.1902900E+03  0.7818608E-02  0.1158383E+00
         21   -1    0    0  501  502  0.00000000000E+00  0.00000000000E+00  0.22621034720E+03  0.22621034720E+03  0.00000000000E+00 0.  1.
         21   -1    0    0  502  503 -0.00000000000E+00 -0.00000000000E+00 -0.30416414451E+03  0.30416414451E+03  0.00000000000E+00 0.  1.
         -6    2    1    2    0  503  0.56062197387E+02  0.57278832531E+02 -0.22197504716E+03  0.29237510282E+03  0.17258749826E+03 0.  0.
        -24    2    3    3    0    0  0.90227395307E+02  0.95181347475E+01 -0.18956549315E+03  0.22513810265E+03  0.80749683068E+02 0.  0.
          6    2    1    2  501    0 -0.56062197387E+02 -0.57278832531E+02  0.14402124986E+03  0.23799938889E+03  0.17169086775E+03 0.  0.
         24    2    5    5    0    0 -0.24966478430E+02  0.21748421500E+02  0.12521212447E+03  0.15088955124E+03  0.77416159011E+02 0.  0.
          5    1    5    5  501    0 -0.31095718957E+02 -0.79027254032E+02  0.18809125387E+02  0.87109837648E+02  0.47000000000E+01 0. -1.
        -11    1    6    6    0    0 -0.28444778796E+02 -0.12523123574E+02  0.10799650041E+03  0.11237961633E+03  0.00000000000E+00 0.  1.
         12    1    6    6    0    0  0.34783003664E+01  0.34271545074E+02  0.17215624059E+02  0.38509934913E+02  0.00000000000E+00 0. -1.
         -5    1    3    3    0  503 -0.34165197920E+02  0.47760697784E+02 -0.32409554006E+02  0.67237000175E+02  0.47000000000E+01 0.  1.
         11    1    4    4    0    0  0.25781264935E+02  0.26085852687E+02 -0.17466577485E+02  0.40622981932E+02  0.00000000000E+00 0. -1.
        -12    1    4    4    0    0  0.64446130371E+02 -0.16567717939E+02 -0.17209891567E+03  0.18451512071E+03  0.00000000000E+00 0.  1.
</event>
<event>
12    1  0.8633375E-002  0.3453530E+03  0.7818608E-02  0.1065301E+00
         21   -1    0    0  501  502  0.00000000000E+00  0.00000000000E+00  0.10345747331E+04  0.10345747331E+04  0.00000000000E+00 0.  1.
         21   -1    0    0  502  503 -0.00000000000E+00 -0.00000000000E+00 -0.21528578270E+03  0.21528578270E+03  0.00000000000E+00 0. -1.
         -6    2    1    2    0  503 -0.22917481958E+03 -0.18149646806E+03 -0.23615893716E+02  0.33895037428E+03  0.16990462014E+03 0.  0.
        -24    2    3    3    0    0 -0.18022453665E+03 -0.19423891397E+03  0.91700162832E+01  0.27848959343E+03  0.85221623673E+02 0.  0.
          6    2    1    2  501    0  0.22917481958E+03  0.18149646806E+03  0.84290484410E+03  0.91091014151E+03  0.18386583111E+03 0.  0.
         24    2    5    5    0    0  0.20863942352E+02  0.68668168120E+02  0.30875738143E+03  0.32656499631E+03  0.78504489208E+02 0.  0.
          5    1    5    5  501    0  0.20831087723E+03  0.11282829994E+03  0.53414746267E+03  0.58434514520E+03  0.47000000000E+01 0. -1.
        -11    1    6    6    0    0  0.25656132991E+02  0.72473907387E+02  0.31075786235E+03  0.32012677711E+03  0.00000000000E+00 0.  1.
         12    1    6    6    0    0 -0.47921906397E+01 -0.38057392673E+01 -0.20004809238E+01  0.64382191967E+01  0.00000000000E+00 0. -1.
         -5    1    3    3    0  503 -0.48950282931E+02  0.12742445909E+02 -0.32785909999E+02  0.60460780852E+02  0.47000000000E+01 0.  1.
         13    1    4    4    0    0 -0.13124684723E+03 -0.10377790384E+03 -0.26926079450E+02  0.16947153740E+03  0.00000000000E+00 0. -1.
        -14    1    4    4    0    0 -0.48977689415E+02 -0.90461010129E+02  0.36096095733E+02  0.10901805603E+03  0.00000000000E+00 0.  1.
</event>
<event>
12    1  0.8633375E-002  0.2147998E+03  0.7818608E-02  0.1138010E+00
         21   -1    0    0  503  502  0.00000000000E+00  0.00000000000E+00  0.26305916021E+03  0.26305916021E+03  0.00000000000E+00 0.  1.
         21   -1    0    0  501  503 -0.00000000000E+00 -0.00000000000E+00 -0.18357264548E+03  0.18357264548E+03  0.00000000000E+00 0.  1.
          6    2    1    2  501    0 -0.21448861776E+02 -0.12666754702E+03  0.89053269676E+02  0.23161903409E+03  0.17091568381E+03 0.  0.
         24    2    3    3    0    0  0.47189003833E+02 -0.10119023269E+03  0.42041247677E+02  0.14448425140E+03  0.81498264539E+02 0.  0.
         -6    2    1    2    0  502  0.21448861776E+02  0.12666754702E+03 -0.95667549407E+01  0.21501277161E+03  0.17214600783E+03 0.  0.
        -24    2    5    5    0    0 -0.49847801148E+01  0.23508383927E+01  0.21626148958E+02  0.84060609646E+02  0.81043946729E+02 0.  0.
          5    1    3    3  501    0 -0.68637865609E+02 -0.25477314332E+02  0.47012021999E+02  0.87134782684E+02  0.47000000000E+01 0. -1.
        -11    1    4    4    0    0 -0.11058777131E+02 -0.70658967178E+02  0.13446659068E+02  0.72772239448E+02  0.00000000000E+00 0.  1.
         12    1    4    4    0    0  0.58247780964E+02 -0.30531265513E+02  0.28594588609E+02  0.71712011956E+02  0.00000000000E+00 0. -1.
         -5    1    5    5    0  502  0.26433641890E+02  0.12431670863E+03 -0.31192903899E+02  0.13095216196E+03  0.47000000000E+01 0.  1.
         13    1    6    6    0    0 -0.13114887267E+02  0.37155373801E+02  0.27211753355E+02  0.47885296188E+02  0.00000000000E+00 0. -1.
        -14    1    6    6    0    0  0.81301071518E+01 -0.34804535409E+02 -0.55856043974E+01  0.36175313458E+02  0.00000000000E+00 0.  1.
</event>
<event>
12    1  0.8633375E-002  0.1843900E+03  0.7818608E-02  0.1163626E+00
         21   -1    0    0  503  502  0.00000000000E+00  0.00000000000E+00  0.17156023698E+03  0.17156023698E+03  0.00000000000E+00 0.  1.
         21   -1    0    0  501  503 -0.00000000000E+00 -0.00000000000E+00 -0.20878849033E+03  0.20878849033E+03  0.00000000000E+00 0.  1.
          6    2    1    2  501    0  0.56740484410E+02  0.32792898318E+02  0.24301165086E+02  0.18598448500E+03  0.17235087840E+03 0.  0.
         24    2    3    3    0    0 -0.29118434839E+02 -0.11546201872E+02 -0.69462558497E+01  0.84317375593E+02  0.77974170925E+02 0.  0.
         -6    2    1    2    0  502 -0.56740484410E+02 -0.32792898318E+02 -0.61529418438E+02  0.19436424230E+03  0.17232739945E+03 0.  0.
        -24    2    5    5    0    0 -0.11507797048E+02  0.45759547138E+02 -0.35814776767E+02  0.10002540889E+03  0.80597882366E+02 0.  0.
          5    1    3    3  501    0  0.85858919249E+02  0.44339100189E+02  0.31247420936E+02  0.10166710941E+03  0.47000000000E+01 0. -1.
        -11    1    4    4    0    0  0.14992959242E+02 -0.91963289157E+01  0.24452551345E+02  0.30121231044E+02  0.00000000000E+00 0.  1.
         12    1    4    4    0    0 -0.44111394081E+02 -0.23498729561E+01 -0.31398807194E+02  0.54196144548E+02  0.00000000000E+00 0. -1.
         -5    1    5    5    0  502 -0.45232687362E+02 -0.78552445456E+02 -0.25714641671E+02  0.94338833411E+02  0.47000000000E+01 0.  1.
         13    1    6    6    0    0  0.32444232967E+02  0.33059286529E+02 -0.26404854022E+02  0.53317548654E+02  0.00000000000E+00 0. -1.
        -14    1    6    6    0    0 -0.43952030014E+02  0.12700260609E+02 -0.94099227452E+01  0.46707860238E+02  0.00000000000E+00 0.  1.
</event>
<event>
12    1  0.8633375E-002  0.1898604E+03  0.7818608E-02  0.1159382E+00
         21   -1    0    0  503  502  0.00000000000E+00  0.00000000000E+00  0.38496697325E+03  0.38496697325E+03  0.00000000000E+00 0.  1.
         21   -1    0    0  501  503 -0.00000000000E+00 -0.00000000000E+00 -0.91945586929E+02  0.91945586929E+02  0.00000000000E+00 0.  1.
          6    2    1    2  501    0  0.36573315911E+02  0.71781792641E+02  0.14160406993E+03  0.23406655656E+03  0.16806310448E+03 0.  0.
         24    2    3    3    0    0 -0.13093677925E+02  0.98377628189E+02  0.10808215475E+03  0.16834017264E+03  0.82504905436E+02 0.  0.
         -6    2    1    2    0  502 -0.36573315911E+02 -0.71781792641E+02  0.15141731639E+03  0.24284600362E+03  0.17192075087E+03 0.  0.
        -24    2    5    5    0    0 -0.12005570437E+02 -0.83017963529E+01  0.47932111999E+01  0.81124012939E+02  0.79655991975E+02 0.  0.
          5    1    3    3  501    0  0.49666993836E+02 -0.26595835548E+02  0.33521915184E+02  0.65726383917E+02  0.47000000000E+01 0. -1.
        -11    1    4    4    0    0  0.24761332915E+02  0.19070154831E+02  0.61246126178E+02  0.68759598492E+02  0.00000000000E+00 0.  1.
         12    1    4    4    0    0 -0.37855010839E+02  0.79307473359E+02  0.46836028568E+02  0.99580574151E+02  0.00000000000E+00 0. -1.
         -5    1    5    5    0  502 -0.24567745474E+02 -0.63479996289E+02  0.14662410519E+03  0.16172199068E+03  0.47000000000E+01 0.  1.
         11    1    6    6    0    0 -0.29753994932E+02 -0.35779282037E+02 -0.54356603271E+01  0.46850865954E+02  0.00000000000E+00 0. -1.
        -12    1    6    6    0    0  0.17748424495E+02  0.27477485684E+02  0.10228871527E+02  0.34273146985E+02  0.00000000000E+00 0.  1.
</event>
<event>
12    1  0.8633375E-002  0.2081664E+03  0.7818608E-02  0.1143610E+00
         21   -1    0    0  503  502  0.00000000000E+00  0.00000000000E+00  0.14615323262E+03  0.14615323262E+03  0.00000000000E+00 0.  1.
         21   -1    0    0  501  503 -0.00000000000E+00 -0.00000000000E+00 -0.30584876402E+03  0.30584876402E+03  0.00000000000E+00 0. -1.
          6    2    1    2  501    0  0.10850841533E+03 -0.42547709535E+02 -0.12780208660E+03  0.24426753318E+03  0.17247860924E+03 0.  0.
         24    2    3    3    0    0  0.48082692710E+02 -0.81541519609E+02 -0.11854999076E+03  0.17160752730E+03  0.80212706951E+02 0.  0.
         -6    2    1    2    0  502 -0.10850841533E+03  0.42547709535E+02 -0.31893444800E+02  0.20773446345E+03  0.16897346449E+03 0.  0.
        -24    2    5    5    0    0 -0.12740422711E+03  0.59933682976E+02 -0.56894672306E+02  0.17158926803E+03  0.79887356465E+02 0.  0.
          5    1    3    3  501    0  0.60425722620E+02  0.38993810074E+02 -0.92520958361E+01  0.72660005888E+02  0.47000000000E+01 0. -1.
        -11    1    4    4    0    0 -0.82709148443E+01 -0.36503736739E+02 -0.59768465019E+01  0.37903212560E+02  0.00000000000E+00 0.  1.
         12    1    4    4    0    0  0.56353607554E+02 -0.45037782869E+02 -0.11257314426E+03  0.13370431474E+03  0.00000000000E+00 0. -1.
         -5    1    5    5    0  502  0.18895811785E+02 -0.17385973441E+02  0.25001227507E+02  0.36145195426E+02  0.47000000000E+01 0.  1.
         11    1    6    6    0    0 -0.25377889743E+01 -0.13523697145E+02 -0.15905326064E+02  0.21031171022E+02  0.00000000000E+00 0. -1.
        -12    1    6    6    0    0 -0.12486643814E+03  0.73457380121E+02 -0.40989346242E+02  0.15055809700E+03  0.00000000000E+00 0.  1.
</event>
<event>
12    1  0.8633375E-002  0.1836729E+03  0.7818608E-02  0.1164422E+00
         21   -1    0    0  501  502  0.00000000000E+00  0.00000000000E+00  0.12403261890E+04  0.12403261890E+04  0.00000000000E+00 0.  1.
         21   -1    0    0  502  503 -0.00000000000E+00 -0.00000000000E+00 -0.62898420191E+02  0.62898420191E+02  0.00000000000E+00 0.  1.
         -6    2    1    2    0  503 -0.52885401246E+02 -0.20107075892E+02  0.96883871465E+02  0.20718133257E+03  0.17417364855E+03 0.  0.
        -24    2    3    3    0    0 -0.18543417459E+02 -0.47194119556E+02 -0.54513361959E+01  0.95791635952E+02  0.81087466358E+02 0.  0.
          6    2    1    2  501    0  0.52885401246E+02  0.20107075892E+02  0.10805438974E+04  0.10960432767E+04  0.17474149474E+03 0.  0.
         24    2    5    5    0    0 -0.13441795655E+02  0.62978905482E+02  0.61806997364E+03  0.62685087374E+03  0.82368083532E+02 0.  0.
          5    1    5    5  501    0  0.66327196901E+02 -0.42871829590E+02  0.46247392374E+03  0.46919240293E+03  0.47000000000E+01 0. -1.
        -13    1    6    6    0    0 -0.19323975195E+02  0.58303156830E+02  0.21218214245E+03  0.22089349400E+03  0.00000000000E+00 0.  1.
         14    1    6    6    0    0  0.58821795400E+01  0.46757486519E+01  0.40588783119E+03  0.40595737975E+03  0.00000000000E+00 0. -1.
         -5    1    3    3    0  503 -0.34341983788E+02  0.27087043664E+02  0.10233520766E+03  0.11138969661E+03  0.47000000000E+01 0.  1.
         11    1    4    4    0    0  0.24075898885E+02  0.51203987657E+01  0.99991590144E+01  0.26567848457E+02  0.00000000000E+00 0. -1.
        -12    1    4    4    0    0 -0.42619316344E+02 -0.52314518322E+02 -0.15450495210E+02  0.69223787495E+02  0.00000000000E+00 0.  1.
</event>
<event>
12    1  0.8633375E-002  0.1927648E+03  0.7818608E-02  0.1156124E+00
         21   -1    0    0  503  502  0.00000000000E+00  0.00000000000E+00  0.38697092660E+03  0.38697092660E+03  0.00000000000E+00 0.  1.
         21   -1    0    0  501  503 -0.00000000000E+00 -0.00000000000E+00 -0.97903093370E+02  0.97903093370E+02  0.00000000000E+00 0.  1.
          6    2    1    2  501    0  0.54865332443E+02  0.65621365613E+02  0.10859645769E+03  0.22124980640E+03  0.17274813423E+03 0.  0.
         24    2    3    3    0    0 -0.16511627487E+02  0.49300587767E+01  0.95720187229E+02  0.12656087634E+03  0.80983713521E+02 0.  0.
         -6    2    1    2    0  502 -0.54865332443E+02 -0.65621365613E+02  0.18047137554E+03  0.26362421357E+03  0.17207974972E+03 0.  0.
        -24    2    5    5    0    0 -0.81386241418E+02 -0.77576351848E+02  0.78875301197E+02  0.15784079034E+03  0.77785546846E+02 0.  0.
          5    1    3    3  501    0  0.71376959930E+02  0.60691306836E+02  0.12876270463E+02  0.94688930057E+02  0.47000000000E+01 0. -1.
        -11    1    4    4    0    0 -0.17721366126E+02  0.13956679774E+02  0.10852671576E+03  0.11084621672E+03  0.00000000000E+00 0.  1.
         12    1    4    4    0    0  0.12097386381E+01 -0.90266209968E+01 -0.12806528528E+02  0.15714659625E+02  0.00000000000E+00 0. -1.
         -5    1    5    5    0  502  0.26520908976E+02  0.11954986236E+02  0.10159607434E+03  0.10578342323E+03  0.47000000000E+01 0.  1.
         11    1    6    6    0    0  0.82574489296E+01  0.85356758943E+01  0.11126343299E+02  0.16273866812E+02  0.00000000000E+00 0. -1.
        -12    1    6    6    0    0 -0.89643690348E+02 -0.86112027743E+02  0.67748957897E+02  0.14156692353E+03  0.00000000000E+00 0.  1.
</event>
<event>
12    1  0.8633375E-002  0.1950400E+03  0.7818608E-02  0.1154117E+00
         21   -1    0    0  503  502  0.00000000000E+00  0.00000000000E+00  0.10973774022E+03  0.10973774022E+03  0.00000000000E+00 0.  1.
         21   -1    0    0  501  503 -0.00000000000E+00 -0.00000000000E+00 -0.12054771083E+04  0.12054771083E+04  0.00000000000E+00 0. -1.
          6    2    1    2  501    0  0.91924690498E+02 -0.10771598569E+02 -0.11034855713E+04  0.11205895875E+04  0.17168122075E+03 0.  0.
         24    2    3    3    0    0  0.71465899350E+02  0.33423628035E+02 -0.99885642611E+03  0.10050857858E+04  0.79112345192E+02 0.  0.
         -6    2    1    2    0  502 -0.91924690498E+02  0.10771598569E+02  0.77462031714E+01  0.19462526104E+03  0.17103453602E+03 0.  0.
        -24    2    5    5    0    0 -0.21347595042E+02  0.39172364541E+02 -0.44966484139E+02  0.10195138492E+03  0.79886833920E+02 0.  0.
          5    1    3    3  501    0  0.20458791148E+02 -0.44195226604E+02 -0.10462914515E+03  0.11550380169E+03  0.47000000000E+01 0. -1.
        -13    1    4    4    0    0 -0.17121995533E+02  0.22420890863E+00 -0.15190702231E+03  0.15286908264E+03  0.00000000000E+00 0.  1.
         14    1    4    4    0    0  0.88587894883E+02  0.33199419126E+02 -0.84694940380E+03  0.85221670316E+03  0.00000000000E+00 0. -1.
         -5    1    5    5    0  502 -0.70577095456E+02 -0.28400765972E+02  0.52712687311E+02  0.92673876116E+02  0.47000000000E+01 0.  1.
         13    1    6    6    0    0  0.43675955346E+01  0.41644282398E+02  0.83579968263E+01  0.42698691527E+02  0.00000000000E+00 0. -1.
        -14    1    6    6    0    0 -0.25715190577E+02 -0.24719178566E+01 -0.53324480965E+02  0.59252693395E+02  0.00000000000E+00 0.  1.
</event>
<event>
12    1  0.8633375E-002  0.1961810E+03  0.7818608E-02  0.1153861E+00
         21   -1    0    0  501  502  0.00000000000E+00  0.00000000000E+00  0.19080670394E+02  0.19080670394E+02  0.00000000000E+00 0.  1.
         21   -1    0    0  502  503 -0.00000000000E+00 -0.00000000000E+00 -0.20810512125E+04  0.20810512125E+04  0.00000000000E+00 0.  1.
         -6    2    1    2    0  503 -0.81735859351E+02  0.45452240054E+02 -0.12758235852E+04  0.12908186644E+04  0.17245389791E+03 0.  0.
        -24    2    3    3    0    0 -0.96664385946E+02 -0.18272548473E+02 -0.97755006829E+03  0.98541255691E+03  0.75867527843E+02 0.  0.
          6    2    1    2  501    0  0.81735859351E+02 -0.45452240054E+02 -0.78614695684E+03  0.80931321846E+03  0.16797080399E+03 0.  0.
         24    2    5    5    0    0  0.36608920101E+02 -0.35490674930E+02 -0.19567584331E+03  0.21701776910E+03  0.78790071769E+02 0.  0.
          5    1    5    5  501    0  0.45126939250E+02 -0.99615651242E+01 -0.59047111353E+03  0.59229544937E+03  0.47000000000E+01 0. -1.
        -11    1    6    6    0    0  0.61647625183E+02 -0.22555124391E+02 -0.13471394248E+03  0.14985663023E+03  0.00000000000E+00 0.  1.
         12    1    6    6    0    0 -0.25038705082E+02 -0.12935550539E+02 -0.60961900837E+02  0.67161138865E+02  0.00000000000E+00 0. -1.
         -5    1    3    3    0  503  0.14928526595E+02  0.63724788527E+02 -0.29827351694E+03  0.30540610748E+03  0.47000000000E+01 0.  1.
         13    1    4    4    0    0 -0.42073256831E+02 -0.42720670231E+02 -0.35853221557E+03  0.36351143614E+03  0.00000000000E+00 0. -1.
        -14    1    4    4    0    0 -0.54591129115E+02  0.24448121758E+02 -0.61901785272E+03  0.62190112077E+03  0.00000000000E+00 0.  1.
</event>
<event>
12    1  0.8633375E-002  0.1780141E+03  0.7818608E-02  0.1171098E+00
         21   -1    0    0  501  502  0.00000000000E+00  0.00000000000E+00  0.23673485744E+03  0.23673485744E+03  0.00000000000E+00 0.  1.
         21   -1    0    0  502  503 -0.00000000000E+00 -0.00000000000E+00 -0.13396093120E+03  0.13396093120E+03  0.00000000000E+00 0.  1.
         -6    2    1    2    0  503 -0.55951205019E+01  0.40819746695E+02  0.83296464637E+02  0.19161927189E+03  0.16757710835E+03 0.  0.
        -24    2    3    3    0    0 -0.32284821062E+02 -0.30934586407E+02  0.20118321686E+02  0.92248289295E+02  0.78139245602E+02 0.  0.
          6    2    1    2  501    0  0.55951205019E+01 -0.40819746695E+02  0.19477461602E+02  0.17907651675E+03  0.17318045573E+03 0.  0.
         24    2    5    5    0    0  0.68231488873E+02 -0.34296628386E+02 -0.69831903640E+01  0.11060665610E+03  0.79707418934E+02 0.  0.
          5    1    5    5  501    0 -0.62636368371E+02 -0.65231183088E+01  0.26460651966E+02  0.68469860652E+02  0.47000000000E+01 0. -1.
        -11    1    6    6    0    0  0.13761149627E+02 -0.49015396065E+02  0.95754944076E+01  0.51803169629E+02  0.00000000000E+00 0.  1.
         12    1    6    6    0    0  0.54470339246E+02  0.14718767679E+02 -0.16558684772E+02  0.58803486469E+02  0.00000000000E+00 0. -1.
         -5    1    3    3    0  503  0.26689700560E+02  0.71754333101E+02  0.63178142950E+02  0.99370982593E+02  0.47000000000E+01 0.  1.
         11    1    4    4    0    0 -0.26531969836E+02 -0.37151626384E+02 -0.21010971156E+02  0.50255842201E+02  0.00000000000E+00 0. -1.
        -12    1    4    4    0    0 -0.57528512254E+01  0.62170399773E+01  0.41129292842E+02  0.41992447094E+02  0.00000000000E+00 0.  1.
</event>
<event>
12    1  0.8633375E-002  0.2497370E+03  0.7818608E-02  0.1113781E+00
         21   -1    0    0  501  502  0.00000000000E+00  0.00000000000E+00  0.32304858409E+03  0.32304858409E+03  0.00000000000E+00 0. -1.
         21   -1    0    0  502  503 -0.00000000000E+00 -0.00000000000E+00 -0.31706023335E+03  0.31706023335E+03  0.00000000000E+00 0. -1.
         -6    2    1    2    0  503  0.98490826199E+02  0.14905494848E+03 -0.19836228766E+03  0.31892974369E+03  0.17450147201E+03 0.  0.
        -24    2    3    3    0    0  0.77230370317E+02  0.16867848407E+02 -0.12094516196E+03  0.16420114982E+03  0.78007890562E+02 0.  0.
          6    2    1    2  501    0 -0.98490826199E+02 -0.14905494848E+03  0.20435063840E+03  0.32117907375E+03  0.17169447715E+03 0.  0.
         24    2    5    5    0    0 -0.46185996515E+02 -0.43127175097E+02  0.16624103382E+03  0.19695781814E+03  0.84635697524E+02 0.  0.
          5    1    5    5  501    0 -0.52304829684E+02 -0.10592777339E+03  0.38109604582E+02  0.12422125561E+03  0.47000000000E+01 0. -1.
        -11    1    6    6    0    0 -0.14902775479E+01  0.22266827823E+02  0.17199175313E+02  0.28175240548E+02  0.00000000000E+00 0.  1.
         12    1    6    6    0    0 -0.44695718967E+02 -0.65394002920E+02  0.14904185851E+03  0.16878257759E+03  0.00000000000E+00 0. -1.
         -5    1    3    3    0  503  0.21260455882E+02  0.13218710008E+03 -0.77417125701E+02  0.15472859388E+03  0.47000000000E+01 0.  1.
         13    1    4    4    0    0  0.23129956697E+02  0.44605223207E+02 -0.56187733508E+02  0.75376934343E+02  0.00000000000E+00 0. -1.
        -14    1    4    4    0    0  0.54100413620E+02 -0.27737374800E+02 -0.64757428454E+02  0.88824215474E+02  0.00000000000E+00 0.  1.
</event>
<event>
12    1  0.8633375E-002  0.1775891E+03  0.7818608E-02  0.1172056E+00
         21   -1    0    0  501  502  0.00000000000E+00  0.00000000000E+00  0.80120928933E+03  0.80120928933E+03  0.00000000000E+00 0.  1.
         21   -1    0    0  502  503 -0.00000000000E+00 -0.00000000000E+00 -0.46899938597E+02  0.46899938597E+02  0.00000000000E+00 0.  1.
         -6    2    1    2    0  503 -0.35520326718E+01 -0.49712835215E+02  0.18291096024E+03  0.24974979201E+03  0.16258707302E+03 0.  0.
        -24    2    3    3    0    0 -0.10484991472E+02  0.27472617005E+02  0.58952391022E+02  0.10348470105E+03  0.79806135182E+02 0.  0.
          6    2    1    2  501    0  0.35520326718E+01  0.49712835215E+02  0.57139839049E+03  0.59835943591E+03  0.17045207822E+03 0.  0.
         24    2    5    5    0    0 -0.39875275853E+02  0.77395630884E+02  0.31792182449E+03  0.33966129558E+03  0.81947470497E+02 0.  0.
          5    1    5    5  501    0  0.43427308525E+02 -0.27682795669E+02  0.25347656600E+03  0.25869814034E+03  0.47000000000E+01 0. -1.
        -11    1    6    6    0    0  0.21925055220E+02  0.27135062807E+01  0.47386229856E+02  0.52283132488E+02  0.00000000000E+00 0.  1.
         12    1    6    6    0    0 -0.61800331073E+02  0.74682124603E+02  0.27053559463E+03  0.28737816309E+03  0.00000000000E+00 0. -1.
         -5    1    3    3    0  503  0.69329588005E+01 -0.77185452219E+02  0.12395856922E+03  0.14626509096E+03  0.47000000000E+01 0.  1.
         11    1    4    4    0    0  0.14992092256E+02 -0.22937559674E+02  0.11511476761E+02  0.29722189880E+02  0.00000000000E+00 0. -1.
        -12    1    4    4    0    0 -0.25477083729E+02  0.50410176679E+02  0.47440914261E+02  0.73762511170E+02  0.00000000000E+00 0.  1.
</event>
<event>
12    1  0.8633375E-002  0.2006858E+03  0.7818608E-02  0.1149387E+00
         21   -1    0    0  501  502  0.00000000000E+00  0.00000000000E+00  0.97967047652E+02  0.97967047652E+02  0.00000000000E+00 0.  1.
         21   -1    0    0  502  503 -0.00000000000E+00 -0.00000000000E+00 -0.42666667421E+03  0.42666667421E+03  0.00000000000E+00 0.  1.
         -6    2    1    2    0  503  0.27579240053E+02  0.97951049770E+02 -0.11126832015E+03  0.22946772591E+03  0.17297333764E+03 0.  0.
        -24    2    3    3    0    0  0.69613418357E+02  0.53654208313E+02 -0.11867663163E+03  0.16777448975E+03  0.79619937395E+02 0.  0.
          6    2    1    2  501    0 -0.27579240053E+02 -0.97951049770E+02 -0.21743130641E+03  0.29516599595E+03  0.17173109656E+03 0.  0.
         24    2    5    5    0    0 -0.50612484897E+02 -0.60181896880E+02 -0.22369311027E+03  0.25024006285E+03  0.79987481085E+02 0.  0.
          5    1    5    5  501    0  0.23033244843E+02 -0.37769152890E+02  0.62618038597E+01  0.44925933108E+02  0.47000000000E+01 0. -1.
        -11    1    6    6    0    0  0.13357474161E+02 -0.29324786621E+02 -0.30355779520E+02  0.44270064114E+02  0.00000000000E+00 0.  1.
         12    1    6    6    0    0 -0.63969959058E+02 -0.30857110259E+02 -0.19333733075E+03  0.20596999873E+03  0.00000000000E+00 0. -1.
         -5    1    3    3    0  503 -0.42034178303E+02  0.44296841457E+02  0.74083114851E+01  0.61693236159E+02  0.47000000000E+01 0.  1.
         11    1    4    4    0    0  0.42898232073E+02 -0.13524985931E+02 -0.57950629018E+02  0.73358428030E+02  0.00000000000E+00 0. -1.
        -12    1    4    4    0    0  0.26715186284E+02  0.67179194244E+02 -0.60726002616E+02  0.94416061723E+02  0.00000000000E+00 0.  1.
</event>
<event>
12    1  0.8633375E-002  0.1997095E+03  0.7818608E-02  0.1150108E+00
         21   -1    0    0  503  502  0.00000000000E+00  0.00000000000E+00  0.17155515583E+03  0.17155515583E+03  0.00000000000E+00 0. -1.
         21   -1    0    0  501  503 -0.00000000000E+00 -0.00000000000E+00 -0.37331442901E+03  0.37331442901E+03  0.00000000000E+00 0. -1.
          6    2    1    2  501    0 -0.25725421754E+02  0.97835200109E+02 -0.26870291348E+03  0.33479120692E+03  0.17219283613E+03 0.  0.
         24    2    3    3    0    0  0.47464945913E+02  0.28805966831E+02 -0.12112853133E+03  0.15612348954E+03  0.81361649865E+02 0.  0.
         -6    2    1    2    0  502  0.25725421754E+02 -0.97835200109E+02  0.66943640301E+02  0.21007837792E+03  0.17151661781E+03 0.  0.
        -24    2    5    5    0    0  0.59032410741E+02 -0.10379995100E+03  0.10492955368E+02  0.14409577719E+03  0.79963964056E+02 0.  0.
          5    1    3    3  501    0 -0.73190367668E+02  0.69029233278E+02 -0.14757438215E+03  0.17866771738E+03  0.47000000000E+01 0. -1.
        -13    1    4    4    0    0 -0.96532015974E+01 -0.94872780436E+00  0.75075363673E+01  0.12265703724E+02  0.00000000000E+00 0.  1.
         14    1    4    4    0    0  0.57118147511E+02  0.29754694636E+02 -0.12863606769E+03  0.14385778582E+03  0.00000000000E+00 0. -1.
         -5    1    5    5    0  502 -0.33306988987E+02  0.59647508888E+01  0.56450684933E+02  0.65982600721E+02  0.47000000000E+01 0.  1.
         11    1    6    6    0    0  0.38590369891E+02 -0.10139402947E+03  0.33192678321E+02  0.11345360177E+03  0.00000000000E+00 0. -1.
        -12    1    6    6    0    0  0.20442040850E+02 -0.24059215276E+01 -0.22699722953E+02  0.30642175423E+02  0.00000000000E+00 0.  1.
</event>
<event>
12    1  0.8633375E-002  0.2141082E+03  0.7818608E-02  0.1138438E+00
         21   -1    0    0  503  502  0.00000000000E+00  0.00000000000E+00  0.52078585141E+03  0.52078585141E+03  0.00000000000E+00 0. -1.
         21   -1    0    0  501  503 -0.00000000000E+00 -0.00000000000E+00 -0.90712448865E+02  0.90712448865E+02  0.00000000000E+00 0.  1.
          6    2    1    2  501    0 -0.32449769152E+02  0.12300671553E+03  0.16089655651E+03  0.26782460188E+03  0.17221694427E+03 0.  0.
         24    2    3    3    0    0  0.12949312945E+02  0.94016783264E+02  0.32111409477E+02  0.12814927506E+03  0.79901525878E+02 0.  0.
         -6    2    1    2    0  502  0.32449769152E+02 -0.12300671553E+03  0.26917684604E+03  0.34367369840E+03  0.17167351846E+03 0.  0.
        -24    2    5    5    0    0  0.59256530012E+02 -0.20615665422E+02  0.17646596482E+03  0.20289043566E+03  0.78025317254E+02 0.  0.
          5    1    3    3  501    0 -0.45399082096E+02  0.28989932269E+02  0.12878514703E+03  0.13967532683E+03  0.47000000000E+01 0. -1.
        -13    1    4    4    0    0 -0.96922560092E+01  0.10001929714E+03  0.23554322171E+02  0.10321146118E+03  0.00000000000E+00 0.  1.
         14    1    4    4    0    0  0.22641568954E+02 -0.60025138756E+01  0.85570873067E+01  0.24937813872E+02  0.00000000000E+00 0. -1.
         -5    1    5    5    0  502 -0.26806760860E+02 -0.10239105011E+03  0.92710881222E+02  0.14078326274E+03  0.47000000000E+01 0.  1.
         11    1    6    6    0    0 -0.31131581383E+01 -0.24839365326E+02  0.10499565737E+03  0.10793875064E+03  0.00000000000E+00 0. -1.
        -12    1    6    6    0    0  0.62369688150E+02  0.42236999031E+01  0.71470307446E+02  0.94951685016E+02  0.00000000000E+00 0.  1.
</event>
<event>
12    1  0.8633375E-002  0.1898125E+03  0.7818608E-02  0.1158781E+00
         21   -1    0    0  501  502  0.00000000000E+00  0.00000000000E+00  0.17454300463E+04  0.17454300463E+04  0.00000000000E+00 0.  1.
         21   -1    0    0  502  503 -0.00000000000E+00 -0.00000000000E+00 -0.24624540049E+02  0.24624540049E+02  0.00000000000E+00 0.  1.
         -6    2    1    2    0  503  0.43163356686E+02  0.66151504280E+02  0.50251867884E+03  0.53717203573E+03  0.17259686123E+03 0.  0.
        -24    2    3    3    0    0 -0.12148632457E+01  0.67255176114E+01  0.97152753195E+02  0.12505009022E+03  0.78435700614E+02 0.  0.
          6    2    1    2  501    0 -0.43163356686E+02 -0.66151504280E+02  0.12182868274E+04  0.12328825506E+04  0.17186475177E+03 0.  0.
         24    2    5    5    0    0 -0.11734827573E+02  0.86673964282E+01  0.91604415912E+03  0.91989957843E+03  0.82858330896E+02 0.  0.
          5    1    5    5  501    0 -0.31428529114E+02 -0.74818900708E+02  0.30224266832E+03  0.31298297222E+03  0.47000000000E+01 0. -1.
        -13    1    6    6    0    0  0.11888550596E+02 -0.17818775949E+02  0.72229348311E+02  0.75338736179E+02  0.00000000000E+00 0.  1.
         14    1    6    6    0    0 -0.23623378169E+02  0.26486172377E+02  0.84381481081E+03  0.84456084225E+03  0.00000000000E+00 0. -1.
         -5    1    3    3    0  503  0.44378219932E+02  0.59425986668E+02  0.40536592564E+03  0.41212194551E+03  0.47000000000E+01 0.  1.
         13    1    4    4    0    0 -0.39389543506E+02  0.35236956158E+00  0.56945496011E+02  0.69241965728E+02  0.00000000000E+00 0. -1.
        -14    1    4    4    0    0  0.38174680261E+02  0.63731480499E+01  0.40207257184E+02  0.55808124492E+02  0.00000000000E+00 0.  1.
</event>
<event>
12    1  0.8633375E-002  0.1907366E+03  0.7818608E-02  0.1158164E+00
         21   -1    0    0  503  502  0.00000000000E+00  0.00000000000E+00  0.14906276704E+04  0.14906276704E+04  0.00000000000E+00 0. -1.
         21   -1    0    0  501  503 -0.00000000000E+00 -0.00000000000E+00 -0.24368708708E+02  0.24368708708E+02  0.00000000000E+00 0. -1.
          6    2    1    2  501    0  0.82981748961E+01  0.77193398538E+02  0.79943356918E+03  0.82187254522E+03  0.17422045969E+03 0.  0.
         24    2    3    3    0    0  0.40535701548E+02 -0.69418817751E+01  0.24907836528E+03  0.26417106237E+03  0.77813786182E+02 0.  0.
         -6    2    1    2    0  502 -0.82981748961E+01 -0.77193398538E+02  0.66682539254E+03  0.69312383391E+03  0.17244380104E+03 0.  0.
        -24    2    5    5    0    0 -0.25174040785E+02  0.19794792878E+02  0.19657926865E+03  0.21266050424E+03  0.74535327512E+02 0.  0.
          5    1    3    3  501    0 -0.32237526652E+02  0.84135280313E+02  0.55035520390E+03  0.55770148285E+03  0.47000000000E+01 0. -1.
        -13    1    4    4    0    0  0.99848390109E+01  0.21004115114E+02  0.17989498171E+02  0.29402243218E+02  0.00000000000E+00 0.  1.
         14    1    4    4    0    0  0.30550862537E+02 -0.27945996889E+02  0.23108886711E+03  0.23476881915E+03  0.00000000000E+00 0. -1.
         -5    1    5    5    0  502  0.16875865888E+02 -0.96988191416E+02  0.47024612389E+03  0.48046332967E+03  0.47000000000E+01 0.  1.
         13    1    6    6    0    0 -0.12275259325E+02  0.48233067331E+02  0.11494443274E+03  0.12525706924E+03  0.00000000000E+00 0. -1.
        -14    1    6    6    0    0 -0.12898781459E+02 -0.28438274453E+02  0.81634835911E+02  0.87403435008E+02  0.00000000000E+00 0.  1.
</event>
<event>
12    1  0.8633375E-002  0.2241405E+03  0.7818608E-02  0.1130918E+00
         21   -1    0    0  501  502  0.00000000000E+00  0.00000000000E+00  0.25742388055E+03  0.25742388055E+03  0.00000000000E+00 0. -1.
         21   -1    0    0  502  503 -0.00000000000E+00 -0.00000000000E+00 -0.22440460603E+03  0.22440460603E+03  0.00000000000E+00 0.  1.
         -6    2    1    2    0  503 -0.14226449557E+03 -0.12786530166E+02 -0.71042032638E+02  0.23512962925E+03  0.17273184447E+03 0.  0.
        -24    2    3    3    0    0 -0.15772942324E+03  0.16738120021E+01 -0.18483090226E+02  0.17827193046E+03  0.80980762916E+02 0.  0.
          6    2    1    2  501    0  0.14226449557E+03  0.12786530166E+02  0.10406130715E+03  0.24669885733E+03  0.17213044039E+03 0.  0.
         24    2    5    5    0    0  0.22380997391E+02 -0.21085003171E+01 -0.50466759961E+01  0.83847523118E+02  0.80619993653E+02 0.  0.
          5    1    5    5  501    0  0.11988349818E+03  0.14895030483E+02  0.10910798315E+03  0.16285133421E+03  0.47000000000E+01 0. -1.
        -11    1    6    6    0    0 -0.72004528399E+01 -0.36156366053E+02  0.61482590107E+01  0.37375532319E+02  0.00000000000E+00 0.  1.
         12    1    6    6    0    0  0.29581450231E+02  0.34047865736E+02 -0.11194935007E+02  0.46471990798E+02  0.00000000000E+00 0. -1.
         -5    1    3    3    0  503  0.15464927676E+02 -0.14460342168E+02 -0.52558942412E+02  0.56857698785E+02  0.47000000000E+01 0.  1.
         13    1    4    4    0    0 -0.15202058066E+03 -0.70666262001E+01 -0.37357429280E+02  0.15670281323E+03  0.00000000000E+00 0. -1.
        -14    1    4    4    0    0 -0.57088425836E+01  0.87404382022E+01  0.18874339054E+02  0.21569117236E+02  0.00000000000E+00 0.  1.
</event>
<event>
12    1  0.8633375E-002  0.2101388E+03  0.7818608E-02  0.1141522E+00
         21   -1    0    0  503  502  0.00000000000E+00  0.00000000000E+00  0.85380189913E+02  0.85380189913E+02  0.00000000000E+00 0.  1.
         21   -1    0    0  501  503 -0.00000000000E+00 -0.00000000000E+00 -0.86900338475E+03  0.86900338475E+03  0.00000000000E+00 0. -1.
          6    2    1    2  501    0  0.58378013674E+02 -0.10645662871E+03 -0.69560312960E+03  0.72655502406E+03  0.17110664161E+03 0.  0.
         24    2    3    3    0    0  0.71661134459E+02 -0.60621970682E+01 -0.42219431082E+03  0.43495606077E+03  0.75938595542E+02 0.  0.
         -6    2    1    2    0  502 -0.58378013674E+02  0.10645662871E+03 -0.88020065235E+02  0.22782855060E+03  0.17151475245E+03 0.  0.
        -24    2    5    5    0    0 -0.91398297107E+01  0.10672481778E+03 -0.11030831378E+03  0.17357611555E+03  0.80542042331E+02 0.  0.
          5    1    3    3  501    0 -0.13283120785E+02 -0.10039443164E+03 -0.27340881878E+03  0.29159896328E+03  0.47000000000E+01 0. -1.
        -11    1    4    4    0    0  0.11785934410E+02  0.17193850234E+02 -0.24769002274E+02  0.32373449143E+02  0.00000000000E+00 0.  1.
         12    1    4    4    0    0  0.59875200049E+02 -0.23256047302E+02 -0.39742530854E+03  0.40258261163E+03  0.00000000000E+00 0. -1.
         -5    1    5    5    0  502 -0.49238183963E+02 -0.26818907488E+00  0.22288248548E+02  0.54252435049E+02  0.47000000000E+01 0.  1.
         11    1    6    6    0    0  0.27821487635E+02  0.12460267700E+02 -0.40067468125E+02  0.50345758980E+02  0.00000000000E+00 0. -1.
        -12    1    6    6    0    0 -0.36961317346E+02  0.94264550081E+02 -0.70240845658E+02  0.12323035657E+03  0.00000000000E+00 0.  1.
</event>
<event>
12    1  0.8633375E-002  0.1979721E+03  0.7818608E-02  0.1152372E+00
         21   -1    0    0  501  502  0.00000000000E+00  0.00000000000E+00  0.86711586743E+02  0.86711586743E+02  0.00000000000E+00 0.  1.
         21   -1    0    0  502  503 -0.00000000000E+00 -0.00000000000E+00 -0.93913581568E+03  0.93913581568E+03  0.00000000000E+00 0.  1.
         -6    2    1    2    0  503  0.38972871227E+02  0.89215574849E+02 -0.79706873883E+03  0.82028184580E+03  0.16752739668E+03 0.  0.
        -24    2    3    3    0    0  0.64851904713E+02  0.95220166566E+02 -0.43815767451E+03  0.46035821280E+03  0.81699979798E+02 0.  0.
          6    2    1    2  501    0 -0.38972871227E+02 -0.89215574849E+02 -0.55355490109E+02  0.20556555663E+03  0.17237941959E+03 0.  0.
         24    2    5    5    0    0  0.47424087949E+01 -0.10956973783E+03 -0.54732284075E+01  0.13602673516E+03  0.80282616805E+02 0.  0.
          5    1    5    5  501    0 -0.43715280022E+02  0.20354162981E+02 -0.49882261701E+02  0.69538821463E+02  0.47000000000E+01 0. -1.
        -11    1    6    6    0    0 -0.33194964658E+02 -0.77383284311E+02 -0.14560168058E+02  0.85452190511E+02  0.00000000000E+00 0.  1.
         12    1    6    6    0    0  0.37937373453E+02 -0.32186453519E+02  0.90869396508E+01  0.50574544653E+02  0.00000000000E+00 0. -1.
         -5    1    3    3    0  503 -0.25879033486E+02 -0.60045917171E+01 -0.35891106433E+03  0.35992363300E+03  0.47000000000E+01 0.  1.
         11    1    4    4    0    0  0.41477379338E+02  0.48677557651E+02 -0.10344167324E+03  0.12161437982E+03  0.00000000000E+00 0. -1.
        -12    1    4    4    0    0  0.23374525375E+02  0.46542608915E+02 -0.33471600127E+03  0.33874383298E+03  0.00000000000E+00 0.  1.
</event>
<event>
12    1  0.8633375E-002  0.1769774E+03  0.7818608E-02  0.1171326E+00
         21   -1    0    0  503  502  0.00000000000E+00  0.00000000000E+00  0.70541605844E+02  0.70541605844E+02  0.00000000000E+00 0. -1.
         21   -1    0    0  501  503 -0.00000000000E+00 -0.00000000000E+00 -0.64069920853E+03  0.64069920853E+03  0.00000000000E+00 0. -1.
          6    2    1    2  501    0 -0.31251653192E+01 -0.31265461090E+02 -0.48368001818E+03  0.51426520711E+03  0.17185763741E+03 0.  0.
         24    2    3    3    0    0  0.14223337282E+02 -0.93367160224E+02 -0.27919232233E+03  0.29980099254E+03  0.54886722844E+02 0.  0.
         -6    2    1    2    0  502  0.31251653192E+01  0.31265461090E+02 -0.86477584502E+02  0.19697560727E+03  0.17416578746E+03 0.  0.
        -24    2    5    5    0    0 -0.43459849490E+02 -0.16314651630E+02 -0.70969689101E+01  0.93257706868E+02  0.80571127254E+02 0.  0.
          5    1    3    3  501    0 -0.17348502601E+02  0.62101699133E+02 -0.20448769585E+03  0.21446421457E+03  0.47000000000E+01 0. -1.
        -13    1    4    4    0    0  0.23007099288E+02 -0.19945889658E+02 -0.12695495266E+03  0.13055544851E+03  0.00000000000E+00 0.  1.
         14    1    4    4    0    0 -0.87837620065E+01 -0.73421270565E+02 -0.15223736968E+03  0.16924554402E+03  0.00000000000E+00 0. -1.
         -5    1    5    5    0  502  0.46585014809E+02  0.47580112720E+02 -0.79380615592E+02  0.10371790040E+03  0.47000000000E+01 0.  1.
         11    1    6    6    0    0  0.16608294459E+02  0.17295408908E+02 -0.43591069987E+01  0.24371467497E+02  0.00000000000E+00 0. -1.
        -12    1    6    6    0    0 -0.60068143949E+02 -0.33610060538E+02 -0.27378619114E+01  0.68886239371E+02  0.00000000000E+00 0.  1.
</event>
<event>
12    1  0.8633375E-002  0.2639975E+03  0.7818608E-02  0.1104777E+00
         21   -1    0    0  501  502  0.00000000000E+00  0.00000000000E+00  0.14919760305E+04  0.14919760305E+04  0.00000000000E+00 0.  1.
         21   -1    0    0  502  503 -0.00000000000E+00 -0.00000000000E+00 -0.53358695928E+02  0.53358695928E+02  0.00000000000E+00 0. -1.
         -6    2    1    2    0  503  0.12382755706E+03 -0.15717575135E+03  0.44643319272E+03  0.51864947188E+03  0.17221265463E+03 0.  0.
        -24    2    3    3    0    0  0.87762798722E+02 -0.16248260806E+03  0.43662770737E+03  0.48060913716E+03  0.78984056083E+02 0.  0.
          6    2    1    2  501    0 -0.12382755706E+03  0.15717575135E+03  0.99218414180E+03  0.10266852545E+04  0.17209230044E+03 0.  0.
         24    2    5    5    0    0 -0.15524984968E+03  0.12557712890E+03  0.74646353845E+03  0.77691228093E+03  0.80701591711E+02 0.  0.
          5    1    5    5  501    0  0.31422292613E+02  0.31598622443E+02  0.24572060335E+03  0.24977297357E+03  0.47000000000E+01 0. -1.
        -13    1    6    6    0    0 -0.12109135861E+03  0.89767889220E+02  0.66265570419E+03  0.67958367650E+03  0.00000000000E+00 0.  1.
         14    1    6    6    0    0 -0.34158491064E+02  0.35809239683E+02  0.83807834255E+02  0.97328604434E+02  0.00000000000E+00 0. -1.
         -5    1    3    3    0  503  0.36064758341E+02  0.53068567193E+01  0.98054853531E+01  0.38040334718E+02  0.47000000000E+01 0.  1.
         11    1    4    4    0    0 -0.66074050139E+01  0.52053981506E+01  0.19732829229E+02  0.21450839618E+02  0.00000000000E+00 0. -1.
        -12    1    4    4    0    0  0.94370203736E+02 -0.16768800622E+03  0.41689487814E+03  0.45915829754E+03  0.00000000000E+00 0.  1.
</event>
<event>
12    1  0.8633375E-002  0.1931238E+03  0.7818608E-02  0.1156025E+00
         21   -1    0    0  501  502  0.00000000000E+00  0.00000000000E+00  0.19473328089E+03  0.19473328089E+03  0.00000000000E+00 0.  1.
         21   -1    0    0  502  503 -0.00000000000E+00 -0.00000000000E+00 -0.19122146048E+03  0.19122146048E+03  0.00000000000E+00 0.  1.
         -6    2    1    2    0  503 -0.27252458501E+02 -0.82273612132E+02  0.17413521492E+02  0.19233126468E+03  0.17081112638E+03 0.  0.
        -24    2    3    3    0    0 -0.12386193407E+02  0.12297996139E+02  0.47155043874E+02  0.91974685014E+02  0.77013544422E+02 0.  0.
          6    2    1    2  501    0  0.27252458501E+02  0.82273612132E+02 -0.13901701089E+02  0.19362347669E+03  0.17258374687E+03 0.  0.
         24    2    5    5    0    0 -0.50808198911E+02  0.53818234221E+02 -0.16687543772E+02  0.11035868409E+03  0.80141684691E+02 0.  0.
          5    1    5    5  501    0  0.78060657412E+02  0.28455377911E+02  0.27858426824E+01  0.83264792602E+02  0.47000000000E+01 0. -1.
        -13    1    6    6    0    0  0.91349071261E+01  0.46797639209E+02 -0.14991202812E+02  0.49982014020E+02  0.00000000000E+00 0.  1.
         14    1    6    6    0    0 -0.59943106037E+02  0.70205950111E+01 -0.16963409596E+01  0.60376670067E+02  0.00000000000E+00 0. -1.
         -5    1    3    3    0  503 -0.14866265094E+02 -0.94571608271E+02 -0.29741522382E+02  0.10035657967E+03  0.47000000000E+01 0.  1.
         11    1    4    4    0    0 -0.42549471586E+01  0.42181444779E+02  0.99147937867E+01  0.43539430346E+02  0.00000000000E+00 0. -1.
        -12    1    4    4    0    0 -0.81312462483E+01 -0.29883448640E+02  0.37240250087E+02  0.48435254668E+02  0.00000000000E+00 0.  1.
</event>
<event>
12    1  0.8633375E-002  0.2449719E+03  0.7818608E-02  0.1116626E+00
         21   -1    0    0  501  502  0.00000000000E+00  0.00000000000E+00  0.55232228171E+02  0.55232228171E+02  0.00000000000E+00 0. -1.
         21   -1    0    0  502  503 -0.00000000000E+00 -0.00000000000E+00 -0.10912237259E+04  0.10912237259E+04  0.00000000000E+00 0. -1.
         -6    2    1    2    0  503 -0.14343511869E+03 -0.99744401662E+02 -0.47123693901E+03  0.53110778771E+03  0.17172259764E+03 0.  0.
        -24    2    3    3    0    0 -0.17372231930E+03 -0.94554647344E+02 -0.39765772900E+03  0.45123139434E+03  0.79737546071E+02 0.  0.
          6    2    1    2  501    0  0.14343511869E+03  0.99744401662E+02 -0.56475455870E+03  0.61534816634E+03  0.17083054561E+03 0.  0.
         24    2    5    5    0    0  0.11394244742E+03  0.77546953765E+02 -0.55386519828E+03  0.57657688158E+03  0.81717997714E+02 0.  0.
          5    1    5    5  501    0  0.29492671262E+02  0.22197447898E+02 -0.10889360419E+02  0.38771284756E+02  0.47000000000E+01 0. -1.
        -13    1    6    6    0    0  0.87125477302E+01  0.22401864580E+02 -0.25593319708E+02  0.35110825087E+02  0.00000000000E+00 0.  1.
         14    1    6    6    0    0  0.10522989969E+03  0.55145089185E+02 -0.52827187857E+03  0.54146605650E+03  0.00000000000E+00 0. -1.
         -5    1    3    3    0  503  0.30287200613E+02 -0.51897543181E+01 -0.73579210013E+02  0.79876393365E+02  0.47000000000E+01 0.  1.
         13    1    4    4    0    0 -0.32976415597E+02 -0.41935230533E+02 -0.17232449378E+03  0.18039328896E+03  0.00000000000E+00 0. -1.
        -14    1    4    4    0    0 -0.14074590370E+03 -0.52619416811E+02 -0.22533323522E+03  0.27083810539E+03  0.00000000000E+00 0.  1.
</event>
<event>
12    1  0.8633375E-002  0.2052860E+03  0.7818608E-02  0.1145504E+00
         21   -1    0    0  503  502  0.00000000000E+00  0.00000000000E+00  0.39627946946E+03  0.39627946946E+03  0.00000000000E+00 0.  1.
         21   -1    0    0  501  503 -0.00000000000E+00 -0.00000000000E+00 -0.90862665726E+03  0.90862665726E+03  0.00000000000E+00 0.  1.
          6    2    1    2  501    0  0.91449742500E+00  0.11071959155E+03 -0.86945522187E+03  0.89336147296E+03  0.17286605877E+03 0.  0.
         24    2    3    3    0    0 -0.15319386230E+02  0.12368677747E+03 -0.85381366390E+03  0.86693354786E+03  0.83921994976E+02 0.  0.
         -6    2    1    2    0  502 -0.91449742500E+00 -0.11071959155E+03  0.35710803406E+03  0.41154465376E+03  0.17199764472E+03 0.  0.
        -24    2    5    5    0    0 -0.17263146397E+02 -0.49411337186E+02  0.71715376537E+02  0.11914588607E+03  0.79455336322E+02 0.  0.
          5    1    3    3  501    0  0.16233883655E+02 -0.12967185915E+02 -0.15641557971E+02  0.26427925095E+02  0.47000000000E+01 0. -1.
        -13    1    4    4    0    0  0.10428729163E+02  0.87669111179E+02 -0.34212200516E+03  0.35333001268E+03  0.00000000000E+00 0.  1.
         14    1    4    4    0    0 -0.25748115393E+02  0.36017666288E+02 -0.51169165874E+03  0.51360353519E+03  0.00000000000E+00 0. -1.
         -5    1    5    5    0  502  0.16348648972E+02 -0.61308254366E+02  0.28539265752E+03  0.29239876769E+03  0.47000000000E+01 0.  1.
         11    1    6    6    0    0  0.29193241799E+01 -0.67294649281E+02  0.43874900642E+02  0.80387182945E+02  0.00000000000E+00 0. -1.
        -12    1    6    6    0    0 -0.20182470577E+02  0.17883312095E+02  0.27840475895E+02  0.38758703127E+02  0.00000000000E+00 0.  1.
</event>
<event>
12    1  0.8633375E-002  0.2096635E+03  0.7818608E-02  0.1143640E+00
         21   -1    0    0  501  502  0.00000000000E+00  0.00000000000E+00  0.17224101803E+03  0.17224101803E+03  0.00000000000E+00 0. -1.
         21   -1    0    0  502  503 -0.00000000000E+00 -0.00000000000E+00 -0.40834454102E+03  0.40834454102E+03  0.00000000000E+00 0.  1.
         -6    2    1    2    0  503 -0.61907577278E+02 -0.83234387070E+02 -0.30344066328E+03  0.36882927658E+03  0.18220397310E+03 0.  0.
        -24    2    3    3    0    0 -0.76529564993E+02 -0.12238854709E+03 -0.26446812385E+03  0.31148993929E+03  0.79037098697E+02 0.  0.
          6    2    1    2  501    0  0.61907577278E+02  0.83234387070E+02  0.67337140291E+02  0.21175628246E+03  0.17188927071E+03 0.  0.
         24    2    5    5    0    0  0.90941056147E+02  0.10667736045E+03  0.46554595386E+02  0.16878512855E+03  0.81674686062E+02 0.  0.
          5    1    5    5  501    0 -0.29033478869E+02 -0.23442973375E+02  0.20782544905E+02  0.42971153913E+02  0.47000000000E+01 0. -1.
        -11    1    6    6    0    0 -0.94038171637E+01  0.41482791198E+02  0.13833936271E+02  0.44728419775E+02  0.00000000000E+00 0.  1.
         12    1    6    6    0    0  0.10034487331E+03  0.65194569247E+02  0.32720659115E+02  0.12405670877E+03  0.00000000000E+00 0. -1.
         -5    1    3    3    0  503  0.14621987714E+02  0.39154160016E+02 -0.38972539436E+02  0.57339337295E+02  0.47000000000E+01 0.  1.
         11    1    4    4    0    0  0.10986163349E+02 -0.26313066420E+01 -0.46418252010E+02  0.47773148101E+02  0.00000000000E+00 0. -1.
        -12    1    4    4    0    0 -0.87515728341E+02 -0.11975724044E+03 -0.21804987184E+03  0.26371679119E+03  0.00000000000E+00 0.  1.
</event>
<event>
12    1  0.8633375E-002  0.2350421E+03  0.7818608E-02  0.1123232E+00
         21   -1    0    0  501  502  0.00000000000E+00  0.00000000000E+00  0.60754229770E+02  0.60754229770E+02  0.00000000000E+00 0.  1.
         21   -1    0    0  502  503 -0.00000000000E+00 -0.00000000000E+00 -0.13193086595E+04  0.13193086595E+04  0.00000000000E+00 0.  1.
         -6    2    1    2    0  503  0.15729893984E+03 -0.19152689321E+02 -0.10144198129E+04  0.10411728130E+04  0.17286841204E+03 0.  0.
        -24    2    3    3    0    0  0.68624689761E+02  0.35605750520E+02 -0.72440272505E+03  0.73296247806E+03  0.80607497565E+02 0.  0.
          6    2    1    2  501    0 -0.15729893984E+03  0.19152689321E+02 -0.24413461686E+03  0.33889007623E+03  0.17359432777E+03 0.  0.
         24    2    5    5    0    0 -0.16189423523E+03  0.43684453616E+02 -0.25046299794E+03  0.31271637557E+03  0.83317125032E+02 0.  0.
          5    1    5    5  501    0  0.45952953852E+01 -0.24531764295E+02  0.63283810833E+01  0.26173700660E+02  0.47000000000E+01 0. -1.
        -11    1    6    6    0    0 -0.77701868370E+02 -0.18284196110E+02 -0.81880073621E+02  0.11435138229E+03  0.00000000000E+00 0.  1.
         12    1    6    6    0    0 -0.84192366859E+02  0.61968649726E+02 -0.16858292432E+03  0.19836499328E+03  0.00000000000E+00 0. -1.
         -5    1    3    3    0  503  0.88674250083E+02 -0.54758439841E+02 -0.29001708781E+03  0.30821033497E+03  0.47000000000E+01 0.  1.
         13    1    4    4    0    0 -0.48701657929E+01 -0.16121438856E+02 -0.21775604699E+03  0.21840630784E+03  0.00000000000E+00 0. -1.
        -14    1    4    4    0    0  0.73494855554E+02  0.51727189376E+02 -0.50664667806E+03  0.51455617022E+03  0.00000000000E+00 0.  1.
</event>
<event>
12    1  0.8633375E-002  0.1912770E+03  0.7818608E-02  0.1157652E+00
         21   -1    0    0  503  502  0.00000000000E+00  0.00000000000E+00  0.84160950759E+03  0.84160950759E+03  0.00000000000E+00 0. -1.
         21   -1    0    0  501  503 -0.00000000000E+00 -0.00000000000E+00 -0.57744812618E+02  0.57744812618E+02  0.00000000000E+00 0. -1.
          6    2    1    2  501    0 -0.19673140614E+02  0.82612346743E+02  0.16687397698E+03  0.25383816871E+03  0.17139153830E+03 0.  0.
         24    2    3    3    0    0  0.26094867139E+02  0.10105604214E+03  0.80631524371E+02  0.15436590591E+03  0.80212994216E+02 0.  0.
         -6    2    1    2    0  502  0.19673140614E+02 -0.82612346743E+02  0.61699071799E+03  0.64551615150E+03  0.16971070523E+03 0.  0.
        -24    2    5    5    0    0 -0.40838692334E+02 -0.31465049915E+02  0.45803889185E+03  0.46784932586E+03  0.80159323258E+02 0.  0.
          5    1    3    3  501    0 -0.45768007753E+02 -0.18443695395E+02  0.86242452611E+02  0.99472262797E+02  0.47000000000E+01 0. -1.
        -11    1    4    4    0    0  0.51006559199E+02  0.76187019603E+02  0.75547243638E+02  0.11880032432E+03  0.00000000000E+00 0.  1.
         12    1    4    4    0    0 -0.24911692060E+02  0.24869022535E+02  0.50842807332E+01  0.35565581589E+02  0.00000000000E+00 0. -1.
         -5    1    5    5    0  502  0.60511832948E+02 -0.51147296829E+02  0.15895182614E+03  0.17766682564E+03  0.47000000000E+01 0.  1.
         11    1    6    6    0    0  0.19595008467E+02  0.90151409662E+01  0.13584837226E+03  0.13755005405E+03  0.00000000000E+00 0. -1.
        -12    1    6    6    0    0 -0.60433700801E+02 -0.40480190881E+02  0.32219051960E+03  0.33029927182E+03  0.00000000000E+00 0.  1.
</event>
<event>
12    1  0.8633375E-002  0.1886579E+03  0.7818608E-02  0.1160274E+00
         21   -1    0    0  501  502  0.00000000000E+00  0.00000000000E+00  0.72295877241E+02  0.72295877241E+02  0.00000000000E+00 0. -1.
         21   -1    0    0  502  503 -0.00000000000E+00 -0.00000000000E+00 -0.93845945200E+03  0.93845945200E+03  0.00000000000E+00 0. -1.
         -6    2    1    2    0  503 -0.53073342700E+02  0.48689858512E+02 -0.78572308579E+03  0.80805480621E+03  0.17436834650E+03 0.  0.
        -24    2    3    3    0    0 -0.63548771698E+02  0.14431272063E+02 -0.75135234695E+03  0.75818674983E+03  0.77910784575E+02 0.  0.
          6    2    1    2  501    0  0.53073342700E+02 -0.48689858512E+02 -0.80440488967E+02  0.20270052303E+03  0.17154984041E+03 0.  0.
         24    2    5    5    0    0 -0.18640532084E+02 -0.28406404850E+02  0.77808624739E+01  0.87117673185E+02  0.79840803400E+02 0.  0.
          5    1    5    5  501    0  0.71713874785E+02 -0.20283453662E+02 -0.88221351441E+02  0.11558284985E+03  0.47000000000E+01 0. -1.
        -13    1    6    6    0    0 -0.38174027246E+02 -0.27930379114E+02 -0.21466490374E+02  0.51943937496E+02  0.00000000000E+00 0.  1.
         14    1    6    6    0    0  0.19533495162E+02 -0.47602573557E+00  0.29247352847E+02  0.35173735689E+02  0.00000000000E+00 0. -1.
         -5    1    3    3    0  503  0.10475428998E+02  0.34258586449E+02 -0.34370738837E+02  0.49868056372E+02  0.47000000000E+01 0.  1.
         13    1    4    4    0    0 -0.55239789979E+02 -0.17276962678E+02 -0.62418794076E+03  0.62686562613E+03  0.00000000000E+00 0. -1.
        -14    1    4    4    0    0 -0.83089817190E+01  0.31708234741E+02 -0.12716440620E+03  0.13132112370E+03  0.00000000000E+00 0.  1.
</event>
<event>
12    1  0.8633375E-002  0.3508355E+03  0.7818608E-02  0.1062310E+00
         21   -1    0    0  501  502  0.00000000000E+00  0.00000000000E+00  0.33511570621E+03  0.33511570621E+03  0.00000000000E+00 0. -1.
         21   -1    0    0  502  503 -0.00000000000E+00 -0.00000000000E+00 -0.14298031039E+04  0.14298031039E+04  0.00000000000E+00 0.  1.
         -6    2    1    2    0  503  0.47353635557E+02 -0.30190529014E+03 -0.13082702688E+04  0.13544949689E+04  0.17232630012E+03 0.  0.
        -24    2    3    3    0    0  0.42593797879E+02 -0.30564230861E+03 -0.10776611394E+04  0.11237585784E+04  0.79046560712E+02 0.  0.
          6    2    1    2  501    0 -0.47353635557E+02  0.30190529014E+03  0.21358287109E+03  0.41042384117E+03  0.17158355273E+03 0.  0.
         24    2    5    5    0    0  0.19702707861E+02  0.98541034547E+02  0.38002296026E+02  0.13346860655E+03  0.79190670189E+02 0.  0.
          5    1    5    5  501    0 -0.67056343417E+02  0.20336425560E+03  0.17558057506E+03  0.27695523462E+03  0.47000000000E+01 0. -1.
        -11    1    6    6    0    0  0.45867792298E+02  0.62299800399E+02  0.42966630596E+02  0.88494354875E+02  0.00000000000E+00 0.  1.
         12    1    6    6    0    0 -0.26165084437E+02  0.36241234148E+02 -0.49643345699E+01  0.44974251677E+02  0.00000000000E+00 0. -1.
         -5    1    3    3    0  503  0.47598376771E+01  0.37370184672E+01 -0.23060912938E+03  0.23073639053E+03  0.47000000000E+01 0.  1.
         13    1    4    4    0    0  0.44296748039E+02 -0.69537252887E+02 -0.27877092610E+03  0.29070751739E+03  0.00000000000E+00 0. -1.
        -14    1    4    4    0    0 -0.17029501597E+01 -0.23610505572E+03 -0.79889021329E+03  0.83305106102E+03  0.00000000000E+00 0.  1.
</event>
<event>
12    1  0.8633375E-002  0.2166987E+03  0.7818608E-02  0.1136445E+00
         21   -1    0    0  501  502  0.00000000000E+00  0.00000000000E+00  0.15603546741E+03  0.15603546741E+03  0.00000000000E+00 0.  1.
         21   -1    0    0  502  503 -0.00000000000E+00 -0.00000000000E+00 -0.53483994150E+03  0.53483994150E+03  0.00000000000E+00 0.  1.
         -6    2    1    2    0  503  0.11357158366E+03 -0.66670293703E+02 -0.41801268305E+03  0.47065821364E+03  0.17158414320E+03 0.  0.
        -24    2    3    3    0    0 -0.61068292833E+00 -0.21779043148E+02 -0.99966151390E+02  0.12973520080E+03  0.79770240379E+02 0.  0.
          6    2    1    2  501    0 -0.11357158366E+03  0.66670293703E+02  0.39208208963E+02  0.22021719527E+03  0.17208979274E+03 0.  0.
         24    2    5    5    0    0 -0.10927600396E+03 -0.25059538274E+00  0.62253449910E+02  0.14915362843E+03  0.80187312022E+02 0.  0.
          5    1    5    5  501    0 -0.42955797003E+01  0.66920889085E+02 -0.23045240947E+02  0.71063566834E+02  0.47000000000E+01 0. -1.
        -11    1    6    6    0    0 -0.36649487012E+02 -0.36956759512E+01 -0.17884477791E+02  0.40947496442E+02  0.00000000000E+00 0.  1.
         12    1    6    6    0    0 -0.72626516951E+02  0.34450805684E+01  0.80137927701E+02  0.10820613199E+03  0.00000000000E+00 0. -1.
         -5    1    3    3    0  503  0.11418226659E+03 -0.44891250555E+02 -0.31804653166E+03  0.34092301284E+03  0.47000000000E+01 0.  1.
         13    1    4    4    0    0 -0.56548390026E+01 -0.43424122000E+02 -0.98102132160E+02  0.10743211768E+03  0.00000000000E+00 0. -1.
        -14    1    4    4    0    0  0.50441560743E+01  0.21645078852E+02 -0.18640192296E+01  0.22303083121E+02  0.00000000000E+00 0.  1.
</event>
<event>
12    1  0.8633375E-002  0.2003475E+03  0.7818608E-02  0.1149698E+00
         21   -1    0    0  501  502  0.00000000000E+00  0.00000000000E+00  0.82276002936E+02  0.82276002936E+02  0.00000000000E+00 0.  1.
         21   -1    0    0  502  503 -0.00000000000E+00 -0.00000000000E+00 -0.49312353338E+03  0.49312353338E+03  0.00000000000E+00 0.  1.
         -6    2    1    2    0  503  0.83914653245E+02  0.54440464678E+02 -0.16900004657E+03  0.26210707363E+03  0.17359052130E+03 0.  0.
        -24    2    3    3    0    0  0.11762943619E+03  0.60644104643E+02 -0.16658547201E+03  0.22742145834E+03  0.80345557071E+02 0.  0.
          6    2    1    2  501    0 -0.83914653245E+02 -0.54440464678E+02 -0.24184748388E+03  0.31329246268E+03  0.17221070958E+03 0.  0.
         24    2    5    5    0    0 -0.10185388142E+03 -0.32821612148E+02 -0.25027073507E+03  0.28359007469E+03  0.79601622109E+02 0.  0.
          5    1    5    5  501    0  0.17939228175E+02 -0.21618852529E+02  0.84232511926E+01  0.29702387999E+02  0.47000000000E+01 0. -1.
        -13    1    6    6    0    0 -0.86517100811E+01 -0.38989711139E+02 -0.72359586137E+02  0.82649618075E+02  0.00000000000E+00 0.  1.
         14    1    6    6    0    0 -0.93202171339E+02  0.61680989913E+01 -0.17791114893E+03  0.20094045661E+03  0.00000000000E+00 0. -1.
         -5    1    3    3    0  503 -0.33714782948E+02 -0.62036399658E+01 -0.24145745576E+01  0.34685615295E+02  0.47000000000E+01 0.  1.
         13    1    4    4    0    0 -0.24239379479E+01  0.31086639163E+02 -0.33041643587E+02  0.45431319820E+02  0.00000000000E+00 0. -1.
        -14    1    4    4    0    0  0.12005337414E+03  0.29557465480E+02 -0.13354382842E+03  0.18199013852E+03  0.00000000000E+00 0.  1.
</event>
<event>
12    1  0.8633375E-002  0.2611095E+03  0.7818608E-02  0.1108298E+00
         21   -1    0    0  503  502  0.00000000000E+00  0.00000000000E+00  0.98160236865E+02  0.98160236865E+02  0.00000000000E+00 0.  1.
         21   -1    0    0  501  503 -0.00000000000E+00 -0.00000000000E+00 -0.10471277523E+04  0.10471277523E+04  0.00000000000E+00 0. -1.
          6    2    1    2  501    0 -0.68152368617E+01 -0.19715514411E+03 -0.81411874762E+03  0.85141327699E+03  0.15231098026E+03 0.  0.
         24    2    3    3    0    0 -0.29161583881E+02 -0.57846413615E+02 -0.21905231486E+03  0.23983136832E+03  0.73065470925E+02 0.  0.
         -6    2    1    2    0  502  0.68152368617E+01  0.19715514411E+03 -0.13484876787E+03  0.29387471223E+03  0.17106010052E+03 0.  0.
        -24    2    5    5    0    0  0.30641479200E+01  0.12699492835E+03 -0.15961364219E+03  0.21922944752E+03  0.80299035217E+02 0.  0.
          5    1    3    3  501    0  0.22346347019E+02 -0.13930873049E+03 -0.59506643276E+03  0.61158190867E+03  0.47000000000E+01 0. -1.
        -13    1    4    4    0    0 -0.38061713988E+02 -0.29815058277E+02 -0.19759839548E+03  0.20342752436E+03  0.00000000000E+00 0.  1.
         14    1    4    4    0    0  0.89001301074E+01 -0.28031355337E+02 -0.21453919377E+02  0.36403843954E+02  0.00000000000E+00 0. -1.
         -5    1    5    5    0  502  0.37510889418E+01  0.70160215754E+02  0.24764874323E+02  0.74645264707E+02  0.47000000000E+01 0.  1.
         11    1    6    6    0    0  0.20925883847E+02  0.15216101469E+02 -0.70707190548E+02  0.75292291464E+02  0.00000000000E+00 0. -1.
        -12    1    6    6    0    0 -0.17861735927E+02  0.11177882688E+03 -0.88906451643E+02  0.14393715606E+03  0.00000000000E+00 0.  1.
</event>
<event>
12    1  0.8633375E-002  0.1791234E+03  0.7818608E-02  0.1169059E+00
         21   -1    0    0  503  502  0.00000000000E+00  0.00000000000E+00  0.10449759766E+03  0.10449759766E+03  0.00000000000E+00 0.  1.
         21   -1    0    0  501  503 -0.00000000000E+00 -0.00000000000E+00 -0.31335157306E+03  0.31335157306E+03  0.00000000000E+00 0.  1.
          6    2    1    2  501    0  0.36329042405E+02  0.29464010680E+02 -0.13963175071E+03  0.22581555089E+03  0.17119494726E+03 0.  0.
         24    2    3    3    0    0  0.22692175210E+02  0.79123958650E+01 -0.16798696736E+03  0.18738971896E+03  0.79484242130E+02 0.  0.
         -6    2    1    2    0  502 -0.36329042405E+02 -0.29464010680E+02 -0.69222224683E+02  0.19203361983E+03  0.17290826328E+03 0.  0.
        -24    2    5    5    0    0 -0.55792512497E+02  0.41618177471E+02 -0.30684077289E+02  0.10873426242E+03  0.77696525528E+02 0.  0.
          5    1    3    3  501    0  0.13636867196E+02  0.21551614815E+02  0.28355216647E+02  0.38425831925E+02  0.47000000000E+01 0. -1.
        -13    1    4    4    0    0  0.40917419828E+02  0.20566404025E+02 -0.51961665457E+02  0.69262016264E+02  0.00000000000E+00 0.  1.
         14    1    4    4    0    0 -0.18225244618E+02 -0.12654008160E+02 -0.11602530190E+03  0.11812770270E+03  0.00000000000E+00 0. -1.
         -5    1    5    5    0  502  0.19463470092E+02 -0.71082188151E+02 -0.38538147394E+02  0.83299357410E+02  0.47000000000E+01 0.  1.
         13    1    6    6    0    0 -0.12739963089E+02 -0.10584703164E+02  0.18687590912E+02  0.24971356685E+02  0.00000000000E+00 0. -1.
        -14    1    6    6    0    0 -0.43052549408E+02  0.52202880634E+02 -0.49371668201E+02  0.83762905740E+02  0.00000000000E+00 0.  1.
</event>
<event>
12    1  0.8633375E-002  0.2040228E+03  0.7818608E-02  0.1148551E+00
         21   -1    0    0  501  502  0.00000000000E+00  0.00000000000E+00  0.14181624337E+03  0.14181624337E+03  0.00000000000E+00 0. -1.
         21   -1    0    0  502  503 -0.00000000000E+00 -0.00000000000E+00 -0.34263104901E+03  0.34263104901E+03  0.00000000000E+00 0. -1.
         -6    2    1    2    0  503  0.35237725414E+02 -0.81391064040E+02 -0.20688921673E+03  0.29056572892E+03  0.18373647494E+03 0.  0.
        -24    2    3    3    0    0  0.43675605094E+02 -0.12016244691E+03 -0.11540499517E+03  0.19073652108E+03  0.81948370564E+02 0.  0.
          6    2    1    2  501    0 -0.35237725414E+02  0.81391064040E+02  0.60744110896E+01  0.19388156347E+03  0.17229904116E+03 0.  0.
         24    2    5    5    0    0 -0.15278533773E+02  0.11262464114E+03 -0.29072609812E+02  0.14258527951E+03  0.81040742247E+02 0.  0.
          5    1    5    5  501    0 -0.19959191641E+02 -0.31233577104E+02  0.35147020901E+02  0.51296283958E+02  0.47000000000E+01 0. -1.
        -11    1    6    6    0    0 -0.31966078930E+02  0.64068234623E+02 -0.49799498021E+02  0.87215588589E+02  0.00000000000E+00 0.  1.
         12    1    6    6    0    0  0.16687545156E+02  0.48556406521E+02  0.20726888209E+02  0.55369690919E+02  0.00000000000E+00 0. -1.
         -5    1    3    3    0  503 -0.84378796801E+01  0.38771382865E+02 -0.91484221557E+02  0.99829207833E+02  0.47000000000E+01 0.  1.
         11    1    4    4    0    0 -0.14828868131E+02 -0.59191639379E+02 -0.76097359364E+02  0.97541548094E+02  0.00000000000E+00 0. -1.
        -12    1    4    4    0    0  0.58504473225E+02 -0.60970807526E+02 -0.39307635807E+02  0.93194972990E+02  0.00000000000E+00 0.  1.
</event>
<event>
12    1  0.8633375E-002  0.1902328E+03  0.7818608E-02  0.1158560E+00
         21   -1    0    0  503  502  0.00000000000E+00  0.00000000000E+00  0.19076461845E+03  0.19076461845E+03  0.00000000000E+00 0. -1.
         21   -1    0    0  501  503 -0.00000000000E+00 -0.00000000000E+00 -0.19414859540E+03  0.19414859540E+03  0.00000000000E+00 0.  1.
          6    2    1    2  501    0 -0.56748524978E+02 -0.55072195794E+02  0.31583684355E+02  0.19283686833E+03  0.17301788010E+03 0.  0.
         24    2    3    3    0    0 -0.91185871110E+02 -0.26351511159E+02  0.54461559107E+02  0.14227704547E+03  0.90925414580E+02 0.  0.
         -6    2    1    2    0  502  0.56748524978E+02  0.55072195794E+02 -0.34967661299E+02  0.19207634552E+03  0.17151455721E+03 0.  0.
        -24    2    5    5    0    0 -0.32510956874E+02  0.54469785781E+01 -0.77472619786E+01  0.86279571361E+02  0.79356867841E+02 0.  0.
          5    1    3    3  501    0  0.34437346132E+02 -0.28720684634E+02 -0.22877874752E+02  0.50559822860E+02  0.47000000000E+01 0. -1.
        -13    1    4    4    0    0 -0.21780999235E+02 -0.19998950273E+02 -0.23451711197E+02  0.37740597474E+02  0.00000000000E+00 0.  1.
         14    1    4    4    0    0 -0.69404871875E+02 -0.63525608866E+01  0.77913270304E+02  0.10453644799E+03  0.00000000000E+00 0. -1.
         -5    1    5    5    0  502  0.89259481851E+02  0.49625217216E+02 -0.27220399321E+02  0.10579677416E+03  0.47000000000E+01 0.  1.
         11    1    6    6    0    0 -0.70312579888E+01  0.24871171165E+02  0.28115015607E+02  0.38189891943E+02  0.00000000000E+00 0. -1.
        -12    1    6    6    0    0 -0.25479698885E+02 -0.19424192587E+02 -0.35862277585E+02  0.48089679418E+02  0.00000000000E+00 0.  1.
</event>
<event>
12    1  0.8633375E-002  0.1880557E+03  0.7818608E-02  0.1160320E+00
         21   -1    0    0  501  502  0.00000000000E+00  0.00000000000E+00  0.29621151136E+02  0.29621151136E+02  0.00000000000E+00 0.  1.
         21   -1    0    0  502  503 -0.00000000000E+00 -0.00000000000E+00 -0.12167494388E+04  0.12167494388E+04  0.00000000000E+00 0.  1.
         -6    2    1    2    0  503 -0.43533739679E+02  0.63472964641E+02 -0.68426837116E+03  0.70963945833E+03  0.17158366273E+03 0.  0.
        -24    2    3    3    0    0 -0.24984930814E+02  0.27421923834E+02 -0.65127814010E+03  0.65715916489E+03  0.79490524968E+02 0.  0.
          6    2    1    2  501    0  0.43533739679E+02 -0.63472964641E+02 -0.50285991648E+03  0.53673113158E+03  0.17113798023E+03 0.  0.
         24    2    5    5    0    0 -0.24989651786E+02 -0.46950101941E+01 -0.17461276583E+03  0.19626294655E+03  0.85924387588E+02 0.  0.
          5    1    5    5  501    0  0.68523391466E+02 -0.58777954447E+02 -0.32824715065E+03  0.34046818502E+03  0.47000000000E+01 0. -1.
        -13    1    6    6    0    0  0.68151396577E+01  0.80398933958E+01 -0.15770769444E+03  0.15805949164E+03  0.00000000000E+00 0.  1.
         14    1    6    6    0    0 -0.31804791444E+02 -0.12734903590E+02 -0.16905071393E+02  0.38203454910E+02  0.00000000000E+00 0. -1.
         -5    1    3    3    0  503 -0.18548808865E+02  0.36051040807E+02 -0.32990231064E+02  0.52480293437E+02  0.47000000000E+01 0.  1.
         13    1    4    4    0    0 -0.27879752780E+02  0.54088604132E+02 -0.46174199142E+03  0.46573439250E+03  0.00000000000E+00 0. -1.
        -14    1    4    4    0    0  0.28948219663E+01 -0.26666680297E+02 -0.18953614867E+03  0.19142477240E+03  0.00000000000E+00 0.  1.
</event>
<event>
12    1  0.8633375E-002  0.1842310E+03  0.7818608E-02  0.1163772E+00
         21   -1    0    0  503  502  0.00000000000E+00  0.00000000000E+00  0.25184243134E+02  0.25184243134E+02  0.00000000000E+00 0.  1.
         21   -1    0    0  501  503 -0.00000000000E+00 -0.00000000000E+00 -0.13514122485E+04  0.13514122485E+04  0.00000000000E+00 0.  1.
          6    2    1    2  501    0  0.20577541777E+02 -0.62255427832E+02 -0.69940247722E+03  0.72325990782E+03  0.17216821889E+03 0.  0.
         24    2    3    3    0    0 -0.32520135775E+02  0.91694258527E+01 -0.45950523308E+03  0.46734263441E+03  0.78246029309E+02 0.  0.
         -6    2    1    2    0  502 -0.20577541777E+02  0.62255427832E+02 -0.62682552815E+03  0.65333658382E+03  0.17216060960E+03 0.  0.
        -24    2    5    5    0    0 -0.54460641454E+00  0.56784151902E+01 -0.54932911792E+03  0.55520371238E+03  0.80350117920E+02 0.  0.
          5    1    3    3  501    0  0.53097677552E+02 -0.71424853684E+02 -0.23989724414E+03  0.25591727341E+03  0.47000000000E+01 0. -1.
        -13    1    4    4    0    0 -0.27001784721E+02 -0.28121857348E+02 -0.13090612650E+03  0.13658824691E+03  0.00000000000E+00 0.  1.
         14    1    4    4    0    0 -0.55183510532E+01  0.37291283201E+02 -0.32859910658E+03  0.33075438750E+03  0.00000000000E+00 0. -1.
         -5    1    5    5    0  502 -0.20032935363E+02  0.56577012642E+02 -0.77496410225E+02  0.98132871437E+02  0.47000000000E+01 0.  1.
         13    1    6    6    0    0 -0.15940954153E+02 -0.12035270501E+02 -0.34688063953E+02  0.40027784552E+02  0.00000000000E+00 0. -1.
        -14    1    6    6    0    0  0.15396347738E+02  0.17713685691E+02 -0.51464105397E+03  0.51517592783E+03  0.00000000000E+00 0.  1.
</event>
<event>
12    1  0.8633375E-002  0.1824808E+03  0.7818608E-02  0.1166112E+00
         21   -1    0    0  501  502  0.00000000000E+00  0.00000000000E+00  0.50877735265E+03  0.50877735265E+03  0.00000000000E+00 0. -1.
         21   -1    0    0  502  503 -0.00000000000E+00 -0.00000000000E+00 -0.87263622238E+02  0.87263622238E+02  0.00000000000E+00 0.  1.
         -6    2    1    2    0  503 -0.36171582726E+01  0.52318317530E+02  0.59525898010E+02  0.19194418223E+03  0.17478256886E+03 0.  0.
        -24    2    3    3    0    0  0.25324581694E+02  0.16908389851E+02  0.99303136184E+02  0.13115104144E+03  0.80076555431E+02 0.  0.
          6    2    1    2  501    0  0.36171582726E+01 -0.52318317530E+02  0.36198783240E+03  0.40409679266E+03  0.17178107243E+03 0.  0.
         24    2    5    5    0    0 -0.48752122001E+01  0.15806003655E+02  0.96631411283E+02  0.12996331473E+03  0.85318439287E+02 0.  0.
          5    1    5    5  501    0  0.84923704727E+01 -0.68124321185E+02  0.26535642112E+03  0.27413347793E+03  0.47000000000E+01 0. -1.
        -13    1    6    6    0    0 -0.44814041416E+02  0.13739944221E+02  0.50131828887E+02  0.68631513482E+02  0.00000000000E+00 0.  1.
         14    1    6    6    0    0  0.39938829216E+02  0.20660594336E+01  0.46499582396E+02  0.61331801243E+02  0.00000000000E+00 0. -1.
         -5    1    3    3    0  503 -0.28941739966E+02  0.35409927679E+02 -0.39777238174E+02  0.60793140791E+02  0.47000000000E+01 0.  1.
         13    1    4    4    0    0  0.77770976685E+00  0.30044320603E+02  0.98838096085E+02  0.10330651127E+03  0.00000000000E+00 0. -1.
        -14    1    4    4    0    0  0.24546871927E+02 -0.13135930752E+02  0.46504009846E+00  0.27844530171E+02  0.00000000000E+00 0.  1.
</event>
<event>
12    1  0.8633375E-002  0.2200192E+03  0.7818608E-02  0.1134924E+00
         21   -1    0    0  503  502  0.00000000000E+00  0.00000000000E+00  0.66488751934E+03  0.66488751934E+03  0.00000000000E+00 0.  1.
         21   -1    0    0  501  503 -0.00000000000E+00 -0.00000000000E+00 -0.12335888425E+03  0.12335888425E+03  0.00000000000E+00 0. -1.
          6    2    1    2  501    0  0.58433054911E+02  0.12441880702E+03  0.11933527304E+02  0.21476630107E+03  0.16458339392E+03 0.  0.
         24    2    3    3    0    0  0.33370594813E+02  0.61996184881E+02 -0.54830103235E+02  0.11987592735E+03  0.80042327552E+02 0.  0.
         -6    2    1    2    0  502 -0.58433054911E+02 -0.12441880702E+03  0.52959510778E+03  0.57348010252E+03  0.17179635720E+03 0.  0.
        -24    2    5    5    0    0 -0.54321679152E+02 -0.15827640844E+03  0.45100081537E+03  0.48767571228E+03  0.80147355467E+02 0.  0.
          5    1    3    3  501    0  0.25062460098E+02  0.62422622141E+02  0.66763630539E+02  0.94890373716E+02  0.47000000000E+01 0. -1.
        -11    1    4    4    0    0 -0.26399003026E+02  0.16409694759E+02 -0.11708057980E+02  0.33215419078E+02  0.00000000000E+00 0.  1.
         12    1    4    4    0    0  0.59769597839E+02  0.45586490122E+02 -0.43122045256E+02  0.86660508275E+02  0.00000000000E+00 0. -1.
         -5    1    5    5    0  502 -0.41113757584E+01  0.33857601415E+02  0.78594292411E+02  0.85804390236E+02  0.47000000000E+01 0.  1.
         13    1    6    6    0    0 -0.59833056480E+02 -0.52447717065E+02  0.19183943454E+03  0.20768516152E+03  0.00000000000E+00 0. -1.
        -14    1    6    6    0    0  0.55113773275E+01 -0.10582869137E+03  0.25916138083E+03  0.27999055076E+03  0.00000000000E+00 0.  1.
</event>
<event>
12    1  0.8633375E-002  0.2138500E+03  0.7818608E-02  0.1138800E+00
         21   -1    0    0  503  502  0.00000000000E+00  0.00000000000E+00  0.11304134112E+03  0.11304134112E+03  0.00000000000E+00 0.  1.
         21   -1    0    0  501  503 -0.00000000000E+00 -0.00000000000E+00 -0.68226820501E+03  0.68226820501E+03  0.00000000000E+00 0.  1.
          6    2    1    2  501    0 -0.12515831351E+03  0.15793398196E+02 -0.30316152754E+02  0.21598817367E+03  0.17267827652E+03 0.  0.
         24    2    3    3    0    0 -0.13630786895E+03 -0.19401373899E+02  0.13445362459E+02  0.15854128705E+03  0.77448779720E+02 0.  0.
         -6    2    1    2    0  502  0.12515831351E+03 -0.15793398196E+02 -0.53891071114E+03  0.57932137246E+03  0.17109781749E+03 0.  0.
        -24    2    5    5    0    0  0.15536118463E+03 -0.21073414748E+02 -0.39616074667E+03  0.43324011304E+03  0.78565080345E+02 0.  0.
          5    1    3    3  501    0  0.11149555439E+02  0.35194772094E+02 -0.43761515213E+02  0.57446886626E+02  0.47000000000E+01 0. -1.
        -11    1    4    4    0    0 -0.16207352160E+02  0.24372813431E+02 -0.39459016401E+01  0.29534428018E+02  0.00000000000E+00 0.  1.
         12    1    4    4    0    0 -0.12010051679E+03 -0.43774187330E+02  0.17391264099E+02  0.12900685903E+03  0.00000000000E+00 0. -1.
         -5    1    5    5    0  502 -0.30202871119E+02  0.52800165521E+01 -0.14274996447E+03  0.14608125942E+03  0.47000000000E+01 0.  1.
         13    1    6    6    0    0  0.74912986397E+02 -0.47297149611E+02 -0.23639324220E+03  0.25244948178E+03  0.00000000000E+00 0. -1.
        -14    1    6    6    0    0  0.80448198231E+02  0.26223734863E+02 -0.15976750447E+03  0.18079063126E+03  0.00000000000E+00 0.  1.
</event>
<event>
12    1  0.8633375E-002  0.2025668E+03  0.7818608E-02  0.1149180E+00
         21   -1    0    0  501  502  0.00000000000E+00  0.00000000000E+00  0.11532743653E+04  0.11532743653E+04  0.00000000000E+00 0. -1.
         21   -1    0    0  502  503 -0.00000000000E+00 -0.00000000000E+00 -0.34417840360E+02  0.34417840360E+02  0.00000000000E+00 0. -1.
         -6    2    1    2    0  503  0.64198432702E+02 -0.64100191499E+02  0.51055789334E+03  0.54655218218E+03  0.17268367634E+03 0.  0.
        -24    2    3    3    0    0 -0.15284275119E+02 -0.70856499333E+02  0.36664867390E+03  0.38194628320E+03  0.78723951953E+02 0.  0.
          6    2    1    2  501    0 -0.64198432702E+02  0.64100191499E+02  0.60829863161E+03  0.64114002350E+03  0.18111607107E+03 0.  0.
         24    2    5    5    0    0 -0.10730321983E+03  0.13814071713E+02  0.44703696402E+03  0.46674354431E+03  0.79389416172E+02 0.  0.
          5    1    5    5  501    0  0.43104787127E+02  0.50286119786E+02  0.16126166760E+03  0.17439647918E+03  0.47000000000E+01 0. -1.
        -11    1    6    6    0    0 -0.13541209343E+02 -0.65052022144E+01  0.21677113142E+03  0.21729106154E+03  0.00000000000E+00 0.  1.
         12    1    6    6    0    0 -0.93762010486E+02  0.20319273928E+02  0.23026583259E+03  0.24945248278E+03  0.00000000000E+00 0. -1.
         -5    1    3    3    0  503  0.79482707821E+02  0.67563078339E+01  0.14390921944E+03  0.16460589898E+03  0.47000000000E+01 0.  1.
         13    1    4    4    0    0  0.25482765022E+02 -0.29100732904E+02  0.73620111500E+02  0.83163362041E+02  0.00000000000E+00 0. -1.
        -14    1    4    4    0    0 -0.40767040140E+02 -0.41755766430E+02  0.29302856240E+03  0.29878292116E+03  0.00000000000E+00 0.  1.
</event>
<event>
12    1  0.8633375E-002  0.2432829E+03  0.7818608E-02  0.1118167E+00
         21   -1    0    0  501  502  0.00000000000E+00  0.00000000000E+00  0.29095218167E+03  0.29095218167E+03  0.00000000000E+00 0.  1.
         21   -1    0    0  502  503 -0.00000000000E+00 -0.00000000000E+00 -0.20595732656E+03  0.20595732656E+03  0.00000000000E+00 0. -1.
         -6    2    1    2    0  503  0.17709721849E+02  0.17139236648E+03  0.24611176846E+01  0.24000799698E+03  0.16705928283E+03 0.  0.
        -24    2    3    3    0    0  0.12711644590E+02  0.19372951303E+03 -0.15714805191E+02  0.21040422924E+03  0.79563021896E+02 0.  0.
          6    2    1    2  501    0 -0.17709721849E+02 -0.17139236648E+03  0.82533737429E+02  0.25690151124E+03  0.17174862774E+03 0.  0.
         24    2    5    5    0    0 -0.69374759180E+02 -0.13993048760E+03  0.87709838283E+02  0.19600809678E+03  0.79578638467E+02 0.  0.
          5    1    5    5  501    0  0.51665037331E+02 -0.31461878885E+02 -0.51761008545E+01  0.60893414467E+02  0.47000000000E+01 0. -1.
        -13    1    6    6    0    0 -0.15555603158E+02 -0.68420649514E+01  0.42064784884E+02  0.45367794411E+02  0.00000000000E+00 0.  1.
         14    1    6    6    0    0 -0.53819156022E+02 -0.13308842265E+03  0.45645053399E+02  0.15064030237E+03  0.00000000000E+00 0. -1.
         -5    1    3    3    0  503  0.49980772591E+01 -0.22337146549E+02  0.18175922875E+02  0.29603767743E+02  0.47000000000E+01 0.  1.
         13    1    4    4    0    0 -0.28056850780E+02  0.10591726146E+03  0.10586785746E+02  0.11008057587E+03  0.00000000000E+00 0. -1.
        -14    1    4    4    0    0  0.40768495370E+02  0.87812251573E+02 -0.26301590936E+02  0.10032365338E+03  0.00000000000E+00 0.  1.
</event>
<event>
12    1  0.8633375E-002  0.1893511E+03  0.7818608E-02  0.1159376E+00
         21   -1    0    0  503  502  0.00000000000E+00  0.00000000000E+00  0.66985584179E+02  0.66985584179E+02  0.00000000000E+00 0. -1.
         21   -1    0    0  501  503 -0.00000000000E+00 -0.00000000000E+00 -0.56246147177E+03  0.56246147177E+03  0.00000000000E+00 0. -1.
          6    2    1    2  501    0 -0.57398614968E+02  0.48233551508E+02 -0.17261051732E+03  0.25515318948E+03  0.17230114023E+03 0.  0.
         24    2    3    3    0    0 -0.12956262758E+01 -0.13810143181E+02 -0.24961155036E+02  0.85390444534E+02  0.80474033420E+02 0.  0.
         -6    2    1    2    0  502  0.57398614968E+02 -0.48233551508E+02 -0.32286537027E+03  0.37429386646E+03  0.17387574489E+03 0.  0.
        -24    2    5    5    0    0  0.81795272944E+02 -0.36405909726E+02 -0.12360714606E+03  0.17314461853E+03  0.81758641304E+02 0.  0.
          5    1    3    3  501    0 -0.56102988693E+02  0.62043694689E+02 -0.14764936228E+03  0.16976274495E+03  0.47000000000E+01 0. -1.
        -11    1    4    4    0    0 -0.58044908705E+01 -0.45814439080E+02 -0.26107894828E+02  0.53049760743E+02  0.00000000000E+00 0.  1.
         12    1    4    4    0    0  0.45088645947E+01  0.32004295899E+02  0.11467397920E+01  0.32340683791E+02  0.00000000000E+00 0. -1.
         -5    1    5    5    0  502 -0.24396657976E+02 -0.11827641782E+02 -0.19925822421E+03  0.20114924794E+03  0.47000000000E+01 0.  1.
         11    1    6    6    0    0  0.88732075134E+02 -0.33501074714E+02 -0.13156962009E+03  0.16219207162E+03  0.00000000000E+00 0. -1.
        -12    1    6    6    0    0 -0.69368021902E+01 -0.29048350117E+01  0.79624740304E+01  0.10952546907E+02  0.00000000000E+00 0.  1.
</event>
<event>
12    1  0.8633375E-002  0.2495172E+03  0.7818608E-02  0.1114050E+00
         21   -1    0    0  503  502  0.00000000000E+00  0.00000000000E+00  0.10659704771E+04  0.10659704771E+04  0.00000000000E+00 0.  1.
         21   -1    0    0  501  503 -0.00000000000E+00 -0.00000000000E+00 -0.13209273263E+03  0.13209273263E+03  0.00000000000E+00 0. -1.
          6    2    1    2  501    0 -0.17077226390E+03 -0.53891785649E+02  0.16448322681E+02  0.24730794536E+03  0.16977391389E+03 0.  0.
         24    2    3    3    0    0 -0.15842766987E+03 -0.93012962737E+02 -0.56323570248E+01  0.20048378583E+03  0.80070513427E+02 0.  0.
         -6    2    1    2    0  502  0.17077226390E+03  0.53891785649E+02  0.91742942181E+03  0.95075526439E+03  0.17375654830E+03 0.  0.
        -24    2    5    5    0    0  0.14790900089E+03  0.88977794665E+02  0.84632798945E+03  0.86810382454E+03  0.86827783436E+02 0.  0.
          5    1    3    3  501    0 -0.12344594036E+02  0.39121177088E+02  0.22080679706E+02  0.46824159522E+02  0.47000000000E+01 0. -1.
        -11    1    4    4    0    0 -0.19452024452E+02  0.11474854282E+02  0.12251002175E+02  0.25693201248E+02  0.00000000000E+00 0.  1.
         12    1    4    4    0    0 -0.13897564541E+03 -0.10448781702E+03 -0.17883359200E+02  0.17479058459E+03  0.00000000000E+00 0. -1.
         -5    1    5    5    0  502  0.22863263014E+02 -0.35086009017E+02  0.71101432367E+02  0.82651439849E+02  0.47000000000E+01 0.  1.
         13    1    6    6    0    0  0.91920087654E+02  0.99237237020E+02  0.63473359424E+03  0.64898695471E+03  0.00000000000E+00 0. -1.
        -14    1    6    6    0    0  0.55988913233E+02 -0.10259442355E+02  0.21159439521E+03  0.21911686984E+03  0.00000000000E+00 0.  1.
</event>
<event>
12    1  0.8633375E-002  0.1910336E+03  0.7818608E-02  0.1157557E+00
         21   -1    0    0  501  502  0.00000000000E+00  0.00000000000E+00  0.51103202250E+03  0.51103202250E+03  0.00000000000E+00 0.  1.
         21   -1    0    0  502  503 -0.00000000000E+00 -0.00000000000E+00 -0.11566810608E+03  0.11566810608E+03  0.00000000000E+00 0. -1.
         -6    2    1    2    0  503  0.68743851542E+02 -0.43705920804E+02  0.38031026068E+01  0.19107140889E+03  0.17279437221E+03 0.  0.
        -24    2    3    3    0    0  0.26672959270E+02  0.18812022086E+01  0.60099175846E+02  0.10716977825E+03  0.84607710968E+02 0.  0.
          6    2    1    2  501    0 -0.68743851542E+02  0.43705920804E+02  0.39156081381E+03  0.43562871969E+03  0.17267479802E+03 0.  0.
         24    2    5    5    0    0 -0.38722073450E+02 -0.29550962895E+02  0.12173112869E+03  0.15438500484E+03  0.81508304170E+02 0.  0.
          5    1    5    5  501    0 -0.30021778092E+02  0.73256883699E+02  0.26982968512E+03  0.28124371485E+03  0.47000000000E+01 0. -1.
        -11    1    6    6    0    0 -0.60836689947E+02 -0.32668476621E+02  0.10793573120E+03  0.12813451635E+03  0.00000000000E+00 0.  1.
         12    1    6    6    0    0  0.22114616497E+02  0.31175137264E+01  0.13795397481E+02  0.26250488497E+02  0.00000000000E+00 0. -1.
         -5    1    3    3    0  503  0.42070892272E+02 -0.45587123013E+02 -0.56296073239E+02  0.83901630635E+02  0.47000000000E+01 0.  1.
         13    1    4    4    0    0  0.34781422410E+02 -0.19835721244E+02 -0.27970958494E+01  0.40137599920E+02  0.00000000000E+00 0. -1.
        -14    1    4    4    0    0 -0.81084631401E+01  0.21716923453E+02  0.62896271695E+02  0.67032178332E+02  0.00000000000E+00 0.  1.
</event>
<event>
12    1  0.8633375E-002  0.1829588E+03  0.7818608E-02  0.1165203E+00
         21   -1    0    0  503  502  0.00000000000E+00  0.00000000000E+00  0.55496629846E+03  0.55496629846E+03  0.00000000000E+00 0.  1.
         21   -1    0    0  501  503 -0.00000000000E+00 -0.00000000000E+00 -0.15023132837E+03  0.15023132837E+03  0.00000000000E+00 0.  1.
          6    2    1    2  501    0 -0.59426014081E+02 -0.14550921423E+02 -0.70686252015E+02  0.19613892275E+03  0.17242607207E+03 0.  0.
         24    2    3    3    0    0 -0.90796886320E+02 -0.53574037435E+02 -0.53524694523E+02  0.14300188986E+03  0.80438768815E+02 0.  0.
         -6    2    1    2    0  502  0.59426014081E+02  0.14550921423E+02  0.47542122211E+03  0.50905870408E+03  0.17138332855E+03 0.  0.
        -24    2    5    5    0    0  0.54256637356E+01  0.57071184299E+02  0.17602429266E+03  0.20183790082E+03  0.80420325148E+02 0.  0.
          5    1    3    3  501    0  0.31370872240E+02  0.39023116012E+02 -0.17161557492E+02  0.53137032886E+02  0.47000000000E+01 0. -1.
        -11    1    4    4    0    0 -0.36817777264E+02 -0.15439292585E+02 -0.64647391312E+02  0.75981614103E+02  0.00000000000E+00 0.  1.
         12    1    4    4    0    0 -0.53979109057E+02 -0.38134744850E+02  0.11122696790E+02  0.67020275762E+02  0.00000000000E+00 0. -1.
         -5    1    5    5    0  502  0.54000350345E+02 -0.42520262876E+02  0.29939692945E+03  0.30722080326E+03  0.47000000000E+01 0.  1.
         13    1    6    6    0    0 -0.29125676328E+02  0.13569790802E+02  0.24367382137E+02  0.40326338244E+02  0.00000000000E+00 0. -1.
        -14    1    6    6    0    0  0.34551340064E+02  0.43501393497E+02  0.15165691052E+03  0.16151156257E+03  0.00000000000E+00 0.  1.
</event>
<event>
12    1  0.8633375E-002  0.3103051E+03  0.7818608E-02  0.1080211E+00
         21   -1    0    0  501  502  0.00000000000E+00  0.00000000000E+00  0.21797267645E+03  0.21797267645E+03  0.00000000000E+00 0. -1.
         21   -1    0    0  502  503 -0.00000000000E+00 -0.00000000000E+00 -0.92548801684E+03  0.92548801684E+03  0.00000000000E+00 0.  1.
         -6    2    1    2    0  503  0.17621816120E+03 -0.18961515129E+03 -0.76713338112E+03  0.82748036796E+03  0.17094849808E+03 0.  0.
        -24    2    3    3    0    0  0.22216356647E+02 -0.33995235214E+02 -0.17192331037E+03  0.19326334485E+03  0.78382735936E+02 0.  0.
          6    2    1    2  501    0 -0.17621816120E+03  0.18961515129E+03  0.59618040738E+02  0.31598032533E+03  0.17112132911E+03 0.  0.
         24    2    5    5    0    0 -0.41659653505E+02  0.97822194714E+02  0.75021576202E+02  0.15229985070E+03  0.79134689724E+02 0.  0.
          5    1    5    5  501    0 -0.13455850770E+03  0.91792956573E+02 -0.15403535464E+02  0.16368047463E+03  0.47000000000E+01 0. -1.
        -13    1    6    6    0    0  0.13954814789E+02  0.67004731105E+01 -0.76608532407E+01  0.17271996644E+02  0.00000000000E+00 0.  1.
         14    1    6    6    0    0 -0.55614468294E+02  0.91121721603E+02  0.82682429443E+02  0.13502785405E+03  0.00000000000E+00 0. -1.
         -5    1    3    3    0  503  0.15400180456E+03 -0.15561991607E+03 -0.59521007075E+03  0.63421702312E+03  0.47000000000E+01 0.  1.
         13    1    4    4    0    0  0.10978261594E+01 -0.50909218580E+02 -0.62876040393E+02  0.80909518688E+02  0.00000000000E+00 0. -1.
        -14    1    4    4    0    0  0.21118530488E+02  0.16913983366E+02 -0.10904726998E+03  0.11235382616E+03  0.00000000000E+00 0.  1.
</event>
<event>
12    1  0.8633375E-002  0.4256321E+03  0.7818608E-02  0.1035396E+00
         21   -1    0    0  503  502  0.00000000000E+00  0.00000000000E+00  0.13615545199E+03  0.13615545199E+03  0.00000000000E+00 0. -1.
         21   -1    0    0  501  503 -0.00000000000E+00 -0.00000000000E+00 -0.13697583366E+04  0.13697583366E+04  0.00000000000E+00 0.  1.
          6    2    1    2  501    0 -0.25701080327E+03  0.28970825696E+03 -0.48171672224E+03  0.64281699270E+03  0.17657083130E+03 0.  0.
         24    2    3    3    0    0 -0.23031188759E+03  0.30270152980E+03 -0.40943754436E+03  0.56453527840E+03  0.79932447232E+02 0.  0.
         -6    2    1    2    0  502  0.25701080327E+03 -0.28970825696E+03 -0.75188616232E+03  0.86309679584E+03  0.17209837522E+03 0.  0.
        -24    2    5    5    0    0  0.20962907198E+03 -0.22022975567E+03 -0.44496730124E+03  0.54483029134E+03  0.79991587595E+02 0.  0.
          5    1    3    3  501    0 -0.26698915681E+02 -0.12993272840E+02 -0.72279177889E+02  0.78281714301E+02  0.47000000000E+01 0. -1.
        -13    1    4    4    0    0 -0.12314010202E+01  0.39663666293E+02 -0.36832583651E+02  0.54142053809E+02  0.00000000000E+00 0.  1.
         14    1    4    4    0    0 -0.22908048657E+03  0.26303786351E+03 -0.37260496071E+03  0.51039322459E+03  0.00000000000E+00 0. -1.
         -5    1    5    5    0  502  0.47381731289E+02 -0.69478501297E+02 -0.30691886107E+03  0.31826650450E+03  0.47000000000E+01 0.  1.
         13    1    6    6    0    0  0.13440869272E+02  0.49623286775E+01 -0.33129380908E+02  0.36094841073E+02  0.00000000000E+00 0. -1.
        -14    1    6    6    0    0  0.19618820271E+03 -0.22519208434E+03 -0.41183792033E+03  0.50873545027E+03  0.00000000000E+00 0.  1.
</event>
<event>
12    1  0.8633375E-002  0.1881599E+03  0.7818608E-02  0.1160215E+00
         21   -1    0    0  501  502  0.00000000000E+00  0.00000000000E+00  0.13896040582E+03  0.13896040582E+03  0.00000000000E+00 0. -1.
         21   -1    0    0  502  503 -0.00000000000E+00 -0.00000000000E+00 -0.25665943777E+03  0.25665943777E+03  0.00000000000E+00 0. -1.
         -6    2    1    2    0  503 -0.70284971800E+02  0.27570294323E+02 -0.77819430801E+02  0.20328022751E+03  0.17195025065E+03 0.  0.
        -24    2    3    3    0    0 -0.61247289036E+02  0.82504436135E+02 -0.39118703964E+02  0.13531497239E+03  0.78877476864E+02 0.  0.
          6    2    1    2  501    0  0.70284971800E+02 -0.27570294323E+02 -0.39879601151E+02  0.19233961608E+03  0.17234862035E+03 0.  0.
         24    2    5    5    0    0  0.86083108299E+01  0.41185756293E+02 -0.43658659637E+02  0.99777332790E+02  0.79240570672E+02 0.  0.
          5    1    5    5  501    0  0.61676660970E+02 -0.68756050616E+02  0.37790584861E+01  0.92562283290E+02  0.47000000000E+01 0. -1.
        -13    1    6    6    0    0  0.32513927024E+02  0.22011705633E+02  0.76606739854E+01  0.40004456768E+02  0.00000000000E+00 0.  1.
         14    1    6    6    0    0 -0.23905616194E+02  0.19174050660E+02 -0.51319333623E+02  0.59772876021E+02  0.00000000000E+00 0. -1.
         -5    1    3    3    0  503 -0.90376827638E+01 -0.54934141812E+02 -0.38700726837E+02  0.67965255124E+02  0.47000000000E+01 0.  1.
         11    1    4    4    0    0  0.13137947045E+02  0.43701123363E+02 -0.13161704089E+02  0.47493413125E+02  0.00000000000E+00 0. -1.
        -12    1    4    4    0    0 -0.74385236081E+02  0.38803312772E+02 -0.25956999876E+02  0.87821559264E+02  0.00000000000E+00 0.  1.
</event>
<event>
12    1  0.8633375E-002  0.1785986E+03  0.7818608E-02  0.1170425E+00
         21   -1    0    0  501  502  0.00000000000E+00  0.00000000000E+00  0.82534811950E+02  0.82534811950E+02  0.00000000000E+00 0. -1.
         21   -1    0    0  502  503 -0.00000000000E+00 -0.00000000000E+00 -0.47419039918E+03  0.47419039918E+03  0.00000000000E+00 0. -1.
         -6    2    1    2    0  503 -0.20602401165E+02  0.93443072223E+01 -0.32052505149E+03  0.36448314964E+03  0.17204616453E+03 0.  0.
        -24    2    3    3    0    0 -0.97242941270E+00  0.69508484226E+02 -0.23729734665E+03  0.25982176785E+03  0.79780607438E+02 0.  0.
          6    2    1    2  501    0  0.20602401165E+02 -0.93443072223E+01 -0.71130535740E+02  0.19224206149E+03  0.17716004651E+03 0.  0.
         24    2    5    5    0    0 -0.20541842399E+02 -0.22838104099E+02 -0.10579579593E+03  0.13657607909E+03  0.80726257535E+02 0.  0.
          5    1    5    5  501    0  0.41144243564E+02  0.13493796877E+02  0.34665260186E+02  0.55665982399E+02  0.47000000000E+01 0. -1.
        -13    1    6    6    0    0 -0.16687602091E+02  0.28622716772E+02 -0.28877394749E+02  0.43950425554E+02  0.00000000000E+00 0.  1.
         14    1    6    6    0    0 -0.38542403078E+01 -0.51460820871E+02 -0.76918401177E+02  0.92625653535E+02  0.00000000000E+00 0. -1.
         -5    1    3    3    0  503 -0.19629971752E+02 -0.60164177004E+02 -0.83227704839E+02  0.10466138179E+03  0.47000000000E+01 0.  1.
         11    1    4    4    0    0  0.21906471381E+02 -0.74309654873E+01 -0.79277832050E+02  0.82583820395E+02  0.00000000000E+00 0. -1.
        -12    1    4    4    0    0 -0.22878900794E+02  0.76939449713E+02 -0.15801951460E+03  0.17723794745E+03  0.00000000000E+00 0.  1.
</event>
<event>
12    1  0.8633375E-002  0.1826791E+03  0.7818608E-02  0.1165509E+00
         21   -1    0    0  501  502  0.00000000000E+00  0.00000000000E+00  0.32425173284E+03  0.32425173284E+03  0.00000000000E+00 0. -1.
         21   -1    0    0  502  503 -0.00000000000E+00 -0.00000000000E+00 -0.25796306199E+03  0.25796306199E+03  0.00000000000E+00 0. -1.
         -6    2    1    2    0  503 -0.16773310312E+02 -0.58504421109E+02 -0.19296880253E+03  0.26572279584E+03  0.17224266095E+03 0.  0.
        -24    2    3    3    0    0 -0.49069362781E+02  0.18658559547E+02 -0.13045423398E+03  0.16118896462E+03  0.78788520383E+02 0.  0.
          6    2    1    2  501    0  0.16773310312E+02  0.58504421109E+02  0.25925747338E+03  0.31649199899E+03  0.17102232805E+03 0.  0.
         24    2    5    5    0    0 -0.64418722014E+01  0.77281082076E+02  0.84438059137E+02  0.13907885040E+03  0.78735490304E+02 0.  0.
          5    1    5    5  501    0  0.23215182513E+02 -0.18776660967E+02  0.17481941424E+03  0.17741314859E+03  0.47000000000E+01 0. -1.
        -13    1    6    6    0    0 -0.25656079707E+02 -0.44707089335E+01  0.25759728261E+02  0.36630387172E+02  0.00000000000E+00 0.  1.
         14    1    6    6    0    0  0.19214207505E+02  0.81751791010E+02  0.58678330876E+02  0.10244846323E+03  0.00000000000E+00 0. -1.
         -5    1    3    3    0  503  0.32296052469E+02 -0.77162980656E+02 -0.62514568549E+02  0.10453383122E+03  0.47000000000E+01 0.  1.
         13    1    4    4    0    0 -0.18472672909E+02  0.43468742055E+02 -0.10258465055E+03  0.11293529877E+03  0.00000000000E+00 0. -1.
        -14    1    4    4    0    0 -0.30596689872E+02 -0.24810182508E+02 -0.27869583427E+02  0.48253665846E+02  0.00000000000E+00 0.  1.
</event>
<event>
12    1  0.8633375E-002  0.1890534E+03  0.7818608E-02  0.1161080E+00
         21   -1    0    0  503  502  0.00000000000E+00  0.00000000000E+00  0.10512274455E+03  0.10512274455E+03  0.00000000000E+00 0. -1.
         21   -1    0    0  501  503 -0.00000000000E+00 -0.00000000000E+00 -0.35175756919E+03  0.35175756919E+03  0.00000000000E+00 0. -1.
          6    2    1    2  501    0 -0.22682833659E+02  0.72992515283E+02 -0.18220881421E+03  0.25715071481E+03  0.16457223313E+03 0.  0.
         24    2    3    3    0    0  0.68920181319E+01  0.91938620774E+02 -0.73232604765E+02  0.14255782237E+03  0.80371067015E+02 0.  0.
         -6    2    1    2    0  502  0.22682833659E+02 -0.72992515283E+02 -0.64426010425E+02  0.19972959894E+03  0.17291264744E+03 0.  0.
        -24    2    5    5    0    0  0.39198116262E+02 -0.22682180634E+02  0.25715413017E+02  0.95080420482E+02  0.79548917376E+02 0.  0.
          5    1    3    3  501    0 -0.29574851791E+02 -0.18946105491E+02 -0.10897620945E+03  0.11459289244E+03  0.47000000000E+01 0. -1.
        -11    1    4    4    0    0  0.37988484393E+02  0.80127291449E+02 -0.48219946628E+02  0.10093894706E+03  0.00000000000E+00 0.  1.
         12    1    4    4    0    0 -0.31096466261E+02  0.11811329325E+02 -0.25012658137E+02  0.41618875302E+02  0.00000000000E+00 0. -1.
         -5    1    5    5    0  502 -0.16515282603E+02 -0.50310334649E+02 -0.90141423442E+02  0.10464917846E+03  0.47000000000E+01 0.  1.
         11    1    6    6    0    0 -0.15047301829E+02 -0.28640698391E+02  0.24348724417E+02  0.40491619841E+02  0.00000000000E+00 0. -1.
        -12    1    6    6    0    0  0.54245418091E+02  0.59585177563E+01  0.13666886000E+01  0.54588800641E+02  0.00000000000E+00 0.  1.
</event>
<event>
12    1  0.8633375E-002  0.2085164E+03  0.7818608E-02  0.1143008E+00
         21   -1    0    0  503  502  0.00000000000E+00  0.00000000000E+00  0.12378568625E+04  0.12378568625E+04  0.00000000000E+00 0.  1.
         21   -1    0    0  501  503 -0.00000000000E+00 -0.00000000000E+00 -0.35065083932E+02  0.35065083932E+02  0.00000000000E+00 0. -1.
          6    2    1    2  501    0  0.81817166243E+02  0.82893765968E+02  0.64631231126E+03  0.67911611402E+03  0.17295568077E+03 0.  0.
         24    2    3    3    0    0  0.69995574681E+02  0.10288684520E+03  0.32642488213E+03  0.35835213450E+03  0.79862163993E+02 0.  0.
         -6    2    1    2    0  502 -0.81817166243E+02 -0.82893765968E+02  0.55647946734E+03  0.59380583244E+03  0.17137836486E+03 0.  0.
        -24    2    5    5    0    0 -0.11171961767E+02 -0.10562803568E+03  0.33393472886E+03  0.35916601792E+03  0.78776459915E+02 0.  0.
          5    1    3    3  501    0  0.11821591562E+02 -0.19993079227E+02  0.31988742913E+03  0.32076397952E+03  0.47000000000E+01 0. -1.
        -13    1    4    4    0    0  0.70954072565E+02  0.45580557217E+02  0.24231574989E+03  0.25657160843E+03  0.00000000000E+00 0.  1.
         14    1    4    4    0    0 -0.95849788355E+00  0.57306287978E+02  0.84109132240E+02  0.10178052607E+03  0.00000000000E+00 0. -1.
         -5    1    5    5    0  502 -0.70645204477E+02  0.22734269707E+02  0.22254473848E+03  0.23463981453E+03  0.47000000000E+01 0.  1.
         13    1    6    6    0    0 -0.27248843907E+02 -0.54122211288E+02  0.26384281819E+03  0.27071155491E+03  0.00000000000E+00 0. -1.
        -14    1    6    6    0    0  0.16076882140E+02 -0.51505824387E+02  0.70091910669E+02  0.88454463010E+02  0.00000000000E+00 0.  1.
</event>
<event>
12    1  0.8633375E-002  0.1935969E+03  0.7818608E-02  0.1155268E+00
         21   -1    0    0  503  502  0.00000000000E+00  0.00000000000E+00  0.98467448632E+02  0.98467448632E+02  0.00000000000E+00 0. -1.
         21   -1    0    0  501  503 -0.00000000000E+00 -0.00000000000E+00 -0.39173920668E+03  0.39173920668E+03  0.00000000000E+00 0. -1.
          6    2    1    2  501    0 -0.67891247354E+02 -0.56079603850E+02 -0.18808465171E+03  0.26987941057E+03  0.17235114333E+03 0.  0.
         24    2    3    3    0    0 -0.87003141879E+02 -0.73994550696E+02 -0.83743471186E+02  0.16219755608E+03  0.79059079195E+02 0.  0.
         -6    2    1    2    0  502  0.67891247354E+02  0.56079603850E+02 -0.10518710633E+03  0.22032724474E+03  0.17241120613E+03 0.  0.
        -24    2    5    5    0    0  0.29666291487E+01  0.76308100697E+02 -0.10661967131E+03  0.15214703957E+03  0.77131318023E+02 0.  0.
          5    1    3    3  501    0  0.19111894524E+02  0.17914946846E+02 -0.10434118053E+03  0.10768185449E+03  0.47000000000E+01 0. -1.
        -11    1    4    4    0    0 -0.70661604540E+02 -0.43746170172E+02 -0.13778210705E+02  0.84241491269E+02  0.00000000000E+00 0.  1.
         12    1    4    4    0    0 -0.16341537338E+02 -0.30248380524E+02 -0.69965260482E+02  0.77956064813E+02  0.00000000000E+00 0. -1.
         -5    1    5    5    0  502  0.64924618206E+02 -0.20228496847E+02  0.14325649761E+01  0.68180205164E+02  0.47000000000E+01 0.  1.
         11    1    6    6    0    0  0.57794744088E+01  0.46470133664E+02 -0.60628318258E+01  0.47218995933E+02  0.00000000000E+00 0. -1.
        -12    1    6    6    0    0 -0.28128452601E+01  0.29837967033E+02 -0.10055683948E+03  0.10492804364E+03  0.00000000000E+00 0.  1.
</event>
<event>
12    1  0.8633375E-002  0.2332762E+03  0.7818608E-02  0.1124463E+00
         21   -1    0    0  503  502  0.00000000000E+00  0.00000000000E+00  0.36245912943E+03  0.36245912943E+03  0.00000000000E+00 0.  1.
         21   -1    0    0  501  503 -0.00000000000E+00 -0.00000000000E+00 -0.16442643645E+03  0.16442643645E+03  0.00000000000E+00 0.  1.
          6    2    1    2  501    0 -0.59946473609E+02  0.14451979236E+03  0.17789106833E+03  0.29336501688E+03  0.17302673452E+03 0.  0.
         24    2    3    3    0    0 -0.70464963061E+02  0.16441215424E+03  0.18495835435E+03  0.26931545944E+03  0.79527079464E+02 0.  0.
         -6    2    1    2    0  502  0.59946473609E+02 -0.14451979236E+03  0.20141624648E+02  0.23352054900E+03  0.17218191450E+03 0.  0.
        -24    2    5    5    0    0  0.74472728679E+01 -0.85447313770E+02 -0.48277542731E+02  0.12888309743E+03  0.83207129313E+02 0.  0.
          5    1    3    3  501    0  0.10518489453E+02 -0.19892361883E+02 -0.70672860161E+01  0.24049557445E+02  0.47000000000E+01 0. -1.
        -11    1    4    4    0    0 -0.50576069427E+02  0.51721500740E+02  0.34120384569E+02  0.79982829911E+02  0.00000000000E+00 0.  1.
         12    1    4    4    0    0 -0.19888893634E+02  0.11269065350E+03  0.15083796978E+03  0.18933262953E+03  0.00000000000E+00 0. -1.
         -5    1    5    5    0  502  0.52499200741E+02 -0.59072478585E+02  0.68419167379E+02  0.10463745156E+03  0.47000000000E+01 0.  1.
         11    1    6    6    0    0  0.27564751775E+02  0.37300454414E+01 -0.76872246992E+01  0.28858659064E+02  0.00000000000E+00 0. -1.
        -12    1    6    6    0    0 -0.20117478907E+02 -0.89177359212E+02 -0.40590318032E+02  0.10002443837E+03  0.00000000000E+00 0.  1.
</event>
<event>
12    1  0.8633375E-002  0.2276576E+03  0.7818608E-02  0.1128439E+00
         21   -1    0    0  503  502  0.00000000000E+00  0.00000000000E+00  0.15886798052E+03  0.15886798052E+03  0.00000000000E+00 0. -1.
         21   -1    0    0  501  503 -0.00000000000E+00 -0.00000000000E+00 -0.36131618366E+03  0.36131618366E+03  0.00000000000E+00 0.  1.
          6    2    1    2  501    0  0.39535999313E+01  0.14906161514E+03 -0.18339198131E+03  0.29173040908E+03  0.17099420081E+03 0.  0.
         24    2    3    3    0    0  0.11640554089E+02  0.17551143985E+03 -0.17850466303E+03  0.26336390822E+03  0.80974473835E+02 0.  0.
         -6    2    1    2    0  502 -0.39535999313E+01 -0.14906161514E+03 -0.19056221829E+02  0.22845375509E+03  0.17202611013E+03 0.  0.
        -24    2    5    5    0    0 -0.39167119850E+02 -0.35447408705E+02  0.29397108563E+02  0.99931402505E+02  0.79570805913E+02 0.  0.
          5    1    3    3  501    0 -0.76869541579E+01 -0.26449824705E+02 -0.48873182834E+01  0.28366500862E+02  0.47000000000E+01 0. -1.
        -13    1    4    4    0    0 -0.29882756608E+02  0.72432659514E+02 -0.10122059570E+03  0.12800421204E+03  0.00000000000E+00 0.  1.
         14    1    4    4    0    0  0.41523310697E+02  0.10307878033E+03 -0.77284067327E+02  0.13535969617E+03  0.00000000000E+00 0. -1.
         -5    1    5    5    0  502  0.35213519919E+02 -0.11361420644E+03 -0.48453330392E+02  0.12852235259E+03  0.47000000000E+01 0.  1.
         13    1    6    6    0    0 -0.37399003913E+02 -0.59882881365E+02  0.17721416759E+02  0.72792125853E+02  0.00000000000E+00 0. -1.
        -14    1    6    6    0    0 -0.17681159377E+01  0.24435472661E+02  0.11675691803E+02  0.27139276652E+02  0.00000000000E+00 0.  1.
</event>
<event>
12    1  0.8633375E-002  0.1842233E+03  0.7818608E-02  0.1163797E+00
         21   -1    0    0  501  502  0.00000000000E+00  0.00000000000E+00  0.12384101629E+03  0.12384101629E+03  0.00000000000E+00 0. -1.
         21   -1    0    0  502  503 -0.00000000000E+00 -0.00000000000E+00 -0.34375849492E+03  0.34375849492E+03  0.00000000000E+00 0.  1.
         -6    2    1    2    0  503 -0.22870723636E+02 -0.61940613168E+02 -0.21536037776E+03  0.28340489390E+03  0.17198410396E+03 0.  0.
        -24    2    3    3    0    0 -0.64774097592E+02 -0.81737610438E+02 -0.18256185666E+03  0.22643431521E+03  0.84065134973E+02 0.  0.
          6    2    1    2  501    0  0.22870723636E+02  0.61940613168E+02 -0.45571008653E+01  0.18419461732E+03  0.17189293273E+03 0.  0.
         24    2    5    5    0    0  0.65179821088E+02 -0.23210430125E+01 -0.75470703445E+01  0.10705416036E+03  0.84556718607E+02 0.  0.
          5    1    5    5  501    0 -0.42309097451E+02  0.64261656180E+02  0.29899694792E+01  0.77140456958E+02  0.47000000000E+01 0. -1.
        -13    1    6    6    0    0  0.46470942979E+02  0.38700861503E+02 -0.12312232642E+02  0.61716256328E+02  0.00000000000E+00 0.  1.
         14    1    6    6    0    0  0.18708878109E+02 -0.41021904516E+02  0.47651622977E+01  0.45337904031E+02  0.00000000000E+00 0. -1.
         -5    1    3    3    0  503  0.41903373956E+02  0.19796997271E+02 -0.32798521105E+02  0.56970578692E+02  0.47000000000E+01 0.  1.
         13    1    4    4    0    0  0.65462244231E+01 -0.44863711741E+02 -0.31012383155E+02  0.54930625286E+02  0.00000000000E+00 0. -1.
        -14    1    4    4    0    0 -0.71320322015E+02 -0.36873898697E+02 -0.15154947350E+03  0.17150368992E+03  0.00000000000E+00 0.  1.
</event>
<event>
12    1  0.8633375E-002  0.1788872E+03  0.7818608E-02  0.1168932E+00
         21   -1    0    0  503  502  0.00000000000E+00  0.00000000000E+00  0.17400619086E+03  0.17400619086E+03  0.00000000000E+00 0. -1.
         21   -1    0    0  501  503 -0.00000000000E+00 -0.00000000000E+00 -0.33056598801E+03  0.33056598801E+03  0.00000000000E+00 0. -1.
          6    2    1    2  501    0 -0.48249094023E+02 -0.84384805133E+01 -0.24646286934E+03  0.30453992699E+03  0.17205068479E+03 0.  0.
         24    2    3    3    0    0  0.30251701636E+02 -0.19810586443E+02 -0.16733615336E+03  0.19240239136E+03  0.87804710556E+02 0.  0.
         -6    2    1    2    0  502  0.48249094023E+02  0.84384805133E+01  0.89903072189E+02  0.20003225189E+03  0.17184631616E+03 0.  0.
        -24    2    5    5    0    0  0.64753567230E+02  0.64156815167E+02  0.66694269797E+02  0.13728140360E+03  0.78031639407E+02 0.  0.
          5    1    3    3  501    0 -0.78500795659E+02  0.11372105930E+02 -0.79126715988E+02  0.11213753562E+03  0.47000000000E+01 0. -1.
        -11    1    4    4    0    0  0.58486331561E+02 -0.28752796282E+02 -0.12028523993E+03  0.13680611543E+03  0.00000000000E+00 0.  1.
         12    1    4    4    0    0 -0.28234629925E+02  0.89422098392E+01 -0.47050913422E+02  0.55596275933E+02  0.00000000000E+00 0. -1.
         -5    1    5    5    0  502 -0.16504473207E+02 -0.55718334654E+02  0.23208802393E+02  0.62750848288E+02  0.47000000000E+01 0.  1.
         13    1    6    6    0    0  0.54551989376E+02  0.39261938639E+02  0.82238175652E+02  0.10620987198E+03  0.00000000000E+00 0. -1.
        -14    1    6    6    0    0  0.10201577854E+02  0.24894876528E+02 -0.15543905856E+02  0.31071531621E+02  0.00000000000E+00 0.  1.
</event>
<event>
12    1  0.8633375E-002  0.1820629E+03  0.7818608E-02  0.1165958E+00
         21   -1    0    0  501  502  0.00000000000E+00  0.00000000000E+00  0.14282164176E+03  0.14282164176E+03  0.00000000000E+00 0. -1.
         21   -1    0    0  502  503 -0.00000000000E+00 -0.00000000000E+00 -0.31288508348E+03  0.31288508348E+03  0.00000000000E+00 0.  1.
         -6    2    1    2    0  503 -0.31172966724E+02 -0.46756850594E+02 -0.20144074393E+03  0.27152399268E+03  0.17317317447E+03 0.  0.
        -24    2    3    3    0    0 -0.12589740809E+02 -0.35880967887E+02 -0.22338578170E+03  0.24042261341E+03  0.80348491867E+02 0.  0.
          6    2    1    2  501    0  0.31172966724E+02  0.46756850594E+02  0.31377302201E+02  0.18418273256E+03  0.17257110693E+03 0.  0.
         24    2    5    5    0    0  0.48948814355E+02 -0.13722830465E+02  0.63338847759E+02  0.11334910372E+03  0.79069002622E+02 0.  0.
          5    1    5    5  501    0 -0.17775847631E+02  0.60479681059E+02 -0.31961545557E+02  0.70833628838E+02  0.47000000000E+01 0. -1.
        -11    1    6    6    0    0  0.24958762433E+02 -0.13069368550E+01 -0.15907126027E+02  0.29625741587E+02  0.00000000000E+00 0.  1.
         12    1    6    6    0    0  0.23990051921E+02 -0.12415893610E+02  0.79245973786E+02  0.83723362131E+02  0.00000000000E+00 0. -1.
         -5    1    3    3    0  503 -0.18583225916E+02 -0.10875882707E+02  0.21945037768E+02  0.31101379274E+02  0.47000000000E+01 0.  1.
         13    1    4    4    0    0 -0.22091690662E+02  0.12488422436E+02 -0.23632719283E+02  0.34677210268E+02  0.00000000000E+00 0. -1.
        -14    1    4    4    0    0  0.95019498538E+01 -0.48369390322E+02 -0.19975306241E+03  0.20574540314E+03  0.00000000000E+00 0.  1.
</event>
<event>
12    1  0.8633375E-002  0.1943971E+03  0.7818608E-02  0.1156296E+00
         21   -1    0    0  501  502  0.00000000000E+00  0.00000000000E+00  0.69768910540E+03  0.69768910540E+03  0.00000000000E+00 0. -1.
         21   -1    0    0  502  503 -0.00000000000E+00 -0.00000000000E+00 -0.77051863484E+02  0.77051863484E+02  0.00000000000E+00 0. -1.
         -6    2    1    2    0  503  0.64003703334E+02 -0.72028408793E+02  0.93828303942E+02  0.21585638010E+03  0.16883619426E+03 0.  0.
        -24    2    3    3    0    0 -0.19341193859E+02  0.95356704387E+00  0.43178298197E+02  0.93953739571E+02  0.81166179374E+02 0.  0.
          6    2    1    2  501    0 -0.64003703334E+02  0.72028408793E+02  0.52680893798E+03  0.55888458879E+03  0.15981164145E+03 0.  0.
         24    2    5    5    0    0  0.14124494804E+02  0.10800627129E+02  0.33172439057E+03  0.33994869126E+03  0.72165687755E+02 0.  0.
          5    1    5    5  501    0 -0.78128198138E+02  0.61227781664E+02  0.19508454741E+03  0.21893589753E+03  0.47000000000E+01 0. -1.
        -11    1    6    6    0    0 -0.16613491369E+02 -0.22287133745E+02  0.96307935270E+02  0.10023942748E+03  0.00000000000E+00 0.  1.
         12    1    6    6    0    0  0.30737986173E+02  0.33087760875E+02  0.23541645530E+03  0.23970926378E+03  0.00000000000E+00 0. -1.
         -5    1    3    3    0  503  0.83344897193E+02 -0.72981975837E+02  0.50650005745E+02  0.12190264053E+03  0.47000000000E+01 0.  1.
         11    1    4    4    0    0 -0.44983324954E+02 -0.21041074997E+02  0.25588154682E+02  0.55865732081E+02  0.00000000000E+00 0. -1.
        -12    1    4    4    0    0  0.25642131096E+02  0.21994642041E+02  0.17590143516E+02  0.38088007490E+02  0.00000000000E+00 0.  1.
</event>
<event>
12    1  0.8633375E-002  0.1900722E+03  0.7818608E-02  0.1158505E+00
         21   -1    0    0  501  502  0.00000000000E+00  0.00000000000E+00  0.25007960010E+03  0.25007960010E+03  0.00000000000E+00 0.  1.
         21   -1    0    0  502  503 -0.00000000000E+00 -0.00000000000E+00 -0.37724164166E+03  0.37724164166E+03  0.00000000000E+00 0.  1.
         -6    2    1    2    0  503 -0.32639762701E+02  0.74375116120E+02 -0.31013285867E+03  0.36349218315E+03  0.17131014325E+03 0.  0.
        -24    2    3    3    0    0 -0.69677681044E+02  0.72102960560E+02 -0.14500296636E+03  0.19417903712E+03  0.81399152610E+02 0.  0.
          6    2    1    2  501    0  0.32639762701E+02 -0.74375116120E+02  0.18297081711E+03  0.26382905862E+03  0.17184423252E+03 0.  0.
         24    2    5    5    0    0  0.56838589396E+02 -0.25834928871E+02  0.32204246423E+02  0.10353438675E+03  0.76053842494E+02 0.  0.
          5    1    5    5  501    0 -0.24198826695E+02 -0.48540187250E+02  0.15076657069E+03  0.16029467186E+03  0.47000000000E+01 0. -1.
        -11    1    6    6    0    0  0.45277333837E+02 -0.12174117991E+02  0.56461149413E+02  0.73390104927E+02  0.00000000000E+00 0.  1.
         12    1    6    6    0    0  0.11561255560E+02 -0.13660810880E+02 -0.24256902990E+02  0.30144281824E+02  0.00000000000E+00 0. -1.
         -5    1    3    3    0  503  0.37037918343E+02  0.22721555599E+01 -0.16512989230E+03  0.16931314603E+03  0.47000000000E+01 0.  1.
         11    1    4    4    0    0 -0.74851934860E+02  0.22779621602E+02 -0.10189122633E+03  0.12846612517E+03  0.00000000000E+00 0. -1.
        -12    1    4    4    0    0  0.51742538153E+01  0.49323338958E+02 -0.43111740027E+02  0.65712911948E+02  0.00000000000E+00 0.  1.
</event>
<event>
12    1  0.8633375E-002  0.2074253E+03  0.7818608E-02  0.1144073E+00
         21   -1    0    0  501  502  0.00000000000E+00  0.00000000000E+00  0.32331819324E+02  0.32331819324E+02  0.00000000000E+00 0. -1.
         21   -1    0    0  502  503 -0.00000000000E+00 -0.00000000000E+00 -0.16683330071E+04  0.16683330071E+04  0.00000000000E+00 0. -1.
         -6    2    1    2    0  503  0.81913397033E+02  0.78609664709E+02 -0.12120152145E+04  0.12296365877E+04  0.17359715927E+03 0.  0.
        -24    2    3    3    0    0  0.90537499046E+02  0.37377599079E+01 -0.55469780256E+03  0.56799586400E+03  0.81967309154E+02 0.  0.
          6    2    1    2  501    0 -0.81913397033E+02 -0.78609664709E+02 -0.42398597333E+03  0.47102823875E+03  0.17092165491E+03 0.  0.
         24    2    5    5    0    0  0.19604558140E+02 -0.45015438853E+02 -0.24926974211E+03  0.26613236596E+03  0.79248365568E+02 0.  0.
          5    1    5    5  501    0 -0.10151795517E+03 -0.33594225856E+02 -0.17471623123E+03  0.20489587279E+03  0.47000000000E+01 0. -1.
        -13    1    6    6    0    0  0.76327793836E+01  0.19966973884E+02 -0.10903165191E+03  0.11110733767E+03  0.00000000000E+00 0.  1.
         14    1    6    6    0    0  0.11971778756E+02 -0.64982412737E+02 -0.14023809020E+03  0.15502502828E+03  0.00000000000E+00 0. -1.
         -5    1    3    3    0  503 -0.86241020133E+01  0.74871904801E+02 -0.65731741191E+03  0.66164072371E+03  0.47000000000E+01 0.  1.
         11    1    4    4    0    0  0.12084637832E+02  0.21275768232E+02 -0.29804622612E+03  0.29904890853E+03  0.00000000000E+00 0. -1.
        -12    1    4    4    0    0  0.78452861214E+02 -0.17538008324E+02 -0.25665157644E+03  0.26894695548E+03  0.00000000000E+00 0.  1.
</event>
<event>
12    1  0.8633375E-002  0.1803378E+03  0.7818608E-02  0.1168163E+00
         21   -1    0    0  501  502  0.00000000000E+00  0.00000000000E+00  0.26077882994E+02  0.26077882994E+02  0.00000000000E+00 0. -1.
         21   -1    0    0  502  503 -0.00000000000E+00 -0.00000000000E+00 -0.13928515172E+04  0.13928515172E+04  0.00000000000E+00 0. -1.
         -6    2    1    2    0  503  0.11448362530E+02 -0.54882338429E+02 -0.92295560741E+03  0.93987180995E+03  0.16843048956E+03 0.  0.
        -24    2    3    3    0    0  0.19247370771E+02  0.24482571083E+02 -0.37241666197E+03  0.38356718671E+03  0.86369896603E+02 0.  0.
          6    2    1    2  501    0 -0.11448362530E+02  0.54882338429E+02 -0.44381802678E+03  0.47905759023E+03  0.17140186051E+03 0.  0.
         24    2    5    5    0    0  0.39289485571E+02 -0.11051482070E+02 -0.28158913191E+03  0.29667913140E+03  0.84025406066E+02 0.  0.
          5    1    5    5  501    0 -0.50737848100E+02  0.65933820498E+02 -0.16222889487E+03  0.18237845884E+03  0.47000000000E+01 0. -1.
        -13    1    6    6    0    0  0.16307575694E+02  0.19627536981E+02 -0.23484635087E+03  0.23622867258E+03  0.00000000000E+00 0.  1.
         14    1    6    6    0    0  0.22981909877E+02 -0.30679019051E+02 -0.46742781036E+02  0.60450458811E+02  0.00000000000E+00 0. -1.
         -5    1    3    3    0  503 -0.77990082415E+01 -0.79364909512E+02 -0.55053894544E+03  0.55630462324E+03  0.47000000000E+01 0.  1.
         11    1    4    4    0    0  0.10763691910E+02 -0.31387070209E+02 -0.10034414207E+03  0.10568799405E+03  0.00000000000E+00 0. -1.
        -12    1    4    4    0    0  0.84836788605E+01  0.55869641292E+02 -0.27207251990E+03  0.27787919265E+03  0.00000000000E+00 0.  1.
</event>
<event>
12    1  0.8633375E-002  0.2637100E+03  0.7818608E-02  0.1105018E+00
         21   -1    0    0  503  502  0.00000000000E+00  0.00000000000E+00  0.23236996857E+03  0.23236996857E+03  0.00000000000E+00 0. -1.
         21   -1    0    0  501  503 -0.00000000000E+00 -0.00000000000E+00 -0.41195174863E+03  0.41195174863E+03  0.00000000000E+00 0.  1.
          6    2    1    2  501    0 -0.19554224856E+03 -0.38420955594E+02 -0.25868697512E+03  0.36900260112E+03  0.17184594187E+03 0.  0.
         24    2    3    3    0    0 -0.19016168829E+03 -0.28975456309E+02 -0.27754576001E+03  0.34673352720E+03  0.78685737094E+02 0.  0.
         -6    2    1    2    0  502  0.19554224856E+03  0.38420955594E+02  0.79105195058E+02  0.27531911607E+03  0.17271376028E+03 0.  0.
        -24    2    5    5    0    0  0.43101796870E+02 -0.20271243742E+02  0.60418803839E+02  0.11083769831E+03  0.79786435519E+02 0.  0.
          5    1    3    3  501    0 -0.53805602623E+01 -0.94454992852E+01  0.18858784894E+02  0.22269073918E+02  0.47000000000E+01 0. -1.
        -11    1    4    4    0    0 -0.21641306967E+02  0.22374064910E+02 -0.51033506717E+02  0.59777619187E+02  0.00000000000E+00 0.  1.
         12    1    4    4    0    0 -0.16852038133E+03 -0.51349521219E+02 -0.22651225330E+03  0.28695590802E+03  0.00000000000E+00 0. -1.
         -5    1    5    5    0  502  0.15244045169E+03  0.58692199336E+02  0.18686391220E+02  0.16448141776E+03  0.47000000000E+01 0.  1.
         11    1    6    6    0    0  0.30348578736E+02  0.14483219773E+02  0.65345937980E+02  0.73490757901E+02  0.00000000000E+00 0. -1.
        -12    1    6    6    0    0  0.12753218134E+02 -0.34754463515E+02 -0.49271341417E+01  0.37346940408E+02  0.00000000000E+00 0.  1.
</event>
<event>
12    1  0.8633375E-002  0.2437371E+03  0.7818608E-02  0.1117451E+00
         21   -1    0    0  503  502  0.00000000000E+00  0.00000000000E+00  0.35513274004E+03  0.35513274004E+03  0.00000000000E+00 0. -1.
         21   -1    0    0  501  503 -0.00000000000E+00 -0.00000000000E+00 -0.48064080647E+03  0.48064080647E+03  0.00000000000E+00 0.  1.
          6    2    1    2  501    0  0.93532215822E+02 -0.14330398518E+03 -0.40048310525E+03  0.46882243323E+03  0.17356108073E+03 0.  0.
         24    2    3    3    0    0  0.10917187207E+03 -0.10805323279E+03 -0.39307415359E+03  0.42927250332E+03  0.78572215929E+02 0.  0.
         -6    2    1    2    0  502 -0.93532215822E+02  0.14330398518E+03  0.27497503883E+03  0.36695111328E+03  0.17250373906E+03 0.  0.
        -24    2    5    5    0    0  0.58663734554E+01  0.22946031196E+02  0.11733748930E+03  0.14505518348E+03  0.81926706115E+02 0.  0.
          5    1    3    3  501    0 -0.15639656245E+02 -0.35250752392E+02 -0.74089516597E+01  0.39549929916E+02  0.47000000000E+01 0. -1.
        -11    1    4    4    0    0  0.78286792619E+02 -0.29891167434E+02 -0.14655800758E+03  0.16882403080E+03  0.00000000000E+00 0.  1.
         12    1    4    4    0    0  0.30885079448E+02 -0.78162065356E+02 -0.24651614601E+03  0.26044847252E+03  0.00000000000E+00 0. -1.
         -5    1    5    5    0  502 -0.99398589278E+02  0.12035795399E+03  0.15763754953E+03  0.22189592979E+03  0.47000000000E+01 0.  1.
         11    1    6    6    0    0 -0.14288214536E+02  0.25719012234E+00  0.11358016150E+03  0.11447564067E+03  0.00000000000E+00 0. -1.
        -12    1    6    6    0    0  0.20154587992E+02  0.22688841074E+02  0.37573278039E+01  0.30579542812E+02  0.00000000000E+00 0.  1.
</event>
<event>
12    1  0.8633375E-002  0.1969937E+03  0.7818608E-02  0.1152458E+00
         21   -1    0    0  503  502  0.00000000000E+00  0.00000000000E+00  0.12036540487E+04  0.12036540487E+04  0.00000000000E+00 0.  1.
         21   -1    0    0  501  503 -0.00000000000E+00 -0.00000000000E+00 -0.65353828164E+02  0.65353828164E+02  0.00000000000E+00 0. -1.
          6    2    1    2  501    0  0.64756158108E+02  0.21533202081E+00  0.11720897651E+03  0.22922577636E+03  0.18604597817E+03 0.  0.
         24    2    3    3    0    0 -0.23096916708E+01  0.48890755050E+02  0.11311334115E+03  0.14612349454E+03  0.78497178969E+02 0.  0.
         -6    2    1    2    0  502 -0.64756158108E+02 -0.21533202081E+00  0.10210912441E+04  0.10397821005E+04  0.18527299188E+03 0.  0.
        -24    2    5    5    0    0 -0.32803908761E+02 -0.74121923332E+02  0.54716818611E+03  0.55904486947E+03  0.81043113474E+02 0.  0.
          5    1    3    3  501    0  0.67065849779E+02 -0.48675423029E+02  0.40956353534E+01  0.83102281813E+02  0.47000000000E+01 0. -1.
        -13    1    4    4    0    0  0.35411924041E+02  0.23284394788E+02  0.77268158166E+02  0.88127950568E+02  0.00000000000E+00 0.  1.
         14    1    4    4    0    0 -0.37721615712E+02  0.25606360262E+02  0.35845182986E+02  0.57995543976E+02  0.00000000000E+00 0. -1.
         -5    1    5    5    0  502 -0.31952249346E+02  0.73906591311E+02  0.47392305795E+03  0.48073723106E+03  0.47000000000E+01 0.  1.
         13    1    6    6    0    0 -0.28611493363E+02 -0.70218218899E+02  0.23720956839E+03  0.24903332137E+03  0.00000000000E+00 0. -1.
        -14    1    6    6    0    0 -0.41924153985E+01 -0.39037044326E+01  0.30995861772E+03  0.31001154810E+03  0.00000000000E+00 0.  1.
</event>
<event>
12    1  0.8633375E-002  0.2088364E+03  0.7818608E-02  0.1143762E+00
         21   -1    0    0  501  502  0.00000000000E+00  0.00000000000E+00  0.16086458391E+03  0.16086458391E+03  0.00000000000E+00 0. -1.
         21   -1    0    0  502  503 -0.00000000000E+00 -0.00000000000E+00 -0.54772867090E+03  0.54772867090E+03  0.00000000000E+00 0.  1.
         -6    2    1    2    0  503 -0.68297444789E+02 -0.84499025657E+02  0.63400435625E+02  0.21225590209E+03  0.17096293877E+03 0.  0.
        -24    2    3    3    0    0  0.28073299930E+02 -0.45307947114E+02  0.35941465483E+02  0.10455564157E+03  0.82457097946E+02 0.  0.
          6    2    1    2  501    0  0.68297444789E+02  0.84499025657E+02 -0.45026452262E+03  0.49633735272E+03  0.17834797750E+03 0.  0.
         24    2    5    5    0    0 -0.26396346223E+02  0.19058954549E+02 -0.13262148619E+03  0.15844904936E+03  0.80359391484E+02 0.  0.
          5    1    5    5  501    0  0.94693791012E+02  0.65440071108E+02 -0.31764303642E+03  0.33788830337E+03  0.47000000000E+01 0. -1.
        -13    1    6    6    0    0  0.19949058592E+02 -0.12355462527E+01 -0.90306984759E+02  0.92492394334E+02  0.00000000000E+00 0.  1.
         14    1    6    6    0    0 -0.46345404815E+02  0.20294500802E+02 -0.42314501433E+02  0.65956655023E+02  0.00000000000E+00 0. -1.
         -5    1    3    3    0  503 -0.96370744720E+02 -0.39191078543E+02  0.27458970142E+02  0.10770026052E+03  0.47000000000E+01 0.  1.
         11    1    4    4    0    0  0.11015387639E+01  0.80752968876E+01  0.43511666926E+02  0.44268374334E+02  0.00000000000E+00 0. -1.
        -12    1    4    4    0    0  0.26971761166E+02 -0.53383244001E+02 -0.75702014431E+01  0.60287267233E+02  0.00000000000E+00 0.  1.
</event>
<event>
12    1  0.8633375E-002  0.1860889E+03  0.7818608E-02  0.1162561E+00
         21   -1    0    0  501  502  0.00000000000E+00  0.00000000000E+00  0.14379830555E+03  0.14379830555E+03  0.00000000000E+00 0. -1.
         21   -1    0    0  502  503 -0.00000000000E+00 -0.00000000000E+00 -0.24580279137E+03  0.24580279137E+03  0.00000000000E+00 0.  1.
         -6    2    1    2    0  503 -0.68985912656E+02  0.17800646556E+02 -0.15807631010E+02  0.18451828099E+03  0.16947328892E+03 0.  0.
        -24    2    3    3    0    0 -0.76693384867E+02  0.14985186770E+02  0.47072066227E+02  0.12093150354E+03  0.79386510347E+02 0.  0.
          6    2    1    2  501    0  0.68985912656E+02 -0.17800646556E+02 -0.86196854803E+02  0.20508281593E+03  0.17191028023E+03 0.  0.
         24    2    5    5    0    0 -0.13701306129E+02 -0.52235324088E+02 -0.50188026957E+02  0.10843061032E+03  0.79511661606E+02 0.  0.
          5    1    5    5  501    0  0.82687218785E+02  0.34434677533E+02 -0.36008827846E+02  0.96652205614E+02  0.47000000000E+01 0. -1.
        -11    1    6    6    0    0  0.19440835087E+02 -0.17112776334E+02 -0.54101690438E+02  0.59981547921E+02  0.00000000000E+00 0.  1.
         12    1    6    6    0    0 -0.33142141216E+02 -0.35122547754E+02  0.39136634807E+01  0.48449062395E+02  0.00000000000E+00 0. -1.
         -5    1    3    3    0  503  0.77074722105E+01  0.28154597855E+01 -0.62879697237E+02  0.63586777449E+02  0.47000000000E+01 0.  1.
         11    1    4    4    0    0 -0.75267131970E+01 -0.28448290476E+02  0.86498015040E+01  0.30672067237E+02  0.00000000000E+00 0. -1.
        -12    1    4    4    0    0 -0.69166671670E+02  0.43433477246E+02  0.38422264723E+02  0.90259436304E+02  0.00000000000E+00 0.  1.
</event>
<event>
12    1  0.8633375E-002  0.2197270E+03  0.7818608E-02  0.1134483E+00
         21   -1    0    0  503  502  0.00000000000E+00  0.00000000000E+00  0.61015986589E+03  0.61015986589E+03  0.00000000000E+00 0.  1.
         21   -1    0    0  501  503 -0.00000000000E+00 -0.00000000000E+00 -0.90721321645E+02  0.90721321645E+02  0.00000000000E+00 0. -1.
          6    2    1    2  501    0  0.10008555947E+03 -0.95118318321E+02  0.13148684985E+03  0.25606396574E+03  0.17092498112E+03 0.  0.
         24    2    3    3    0    0  0.13479531708E+03 -0.98234267335E+02  0.11186966793E+03  0.21579735131E+03  0.78955211626E+02 0.  0.
         -6    2    1    2    0  502 -0.10008555947E+03  0.95118318321E+02  0.38795169439E+03  0.44481722179E+03  0.16819997005E+03 0.  0.
        -24    2    5    5    0    0 -0.10065835430E+03  0.94755243947E+01  0.21582708102E+03  0.25250500487E+03  0.83399992407E+02 0.  0.
          5    1    3    3  501    0 -0.34709757608E+02  0.31159490144E+01  0.19617181922E+02  0.40266614435E+02  0.47000000000E+01 0. -1.
        -13    1    4    4    0    0  0.25916505442E+02 -0.39672446366E+02 -0.23992238428E+01  0.47448124621E+02  0.00000000000E+00 0.  1.
         14    1    4    4    0    0  0.10887881164E+03 -0.58561820969E+02  0.11426889177E+03  0.16834922669E+03  0.00000000000E+00 0. -1.
         -5    1    5    5    0  502  0.57279482863E+00  0.85642793926E+02  0.17212461338E+03  0.19231221692E+03  0.47000000000E+01 0.  1.
         13    1    6    6    0    0 -0.29089738748E+02 -0.32148155611E+02  0.43998179361E+02  0.61770191813E+02  0.00000000000E+00 0. -1.
        -14    1    6    6    0    0 -0.71568615553E+02  0.41623680005E+02  0.17182890166E+03  0.19073481306E+03  0.00000000000E+00 0.  1.
</event>
<event>
12    1  0.8633375E-002  0.4466895E+03  0.7818608E-02  0.1028775E+00
         21   -1    0    0  501  502  0.00000000000E+00  0.00000000000E+00  0.13859805925E+04  0.13859805925E+04  0.00000000000E+00 0. -1.
         21   -1    0    0  502  503 -0.00000000000E+00 -0.00000000000E+00 -0.28966202115E+03  0.28966202115E+03  0.00000000000E+00 0.  1.
         -6    2    1    2    0  503 -0.21582859266E+03 -0.35064988932E+03 -0.46823868547E+02  0.44832597623E+03  0.17107419445E+03 0.  0.
        -24    2    3    3    0    0 -0.16399393648E+03 -0.32624289032E+03  0.68557327416E+00  0.37374869923E+03  0.79744501265E+02 0.  0.
          6    2    1    2  501    0  0.21582859266E+03  0.35064988932E+03  0.11431424399E+04  0.12273166374E+04  0.17318823371E+03 0.  0.
         24    2    5    5    0    0  0.48875244067E+02  0.20389353488E+03  0.62126182357E+03  0.66004922616E+03  0.75745392469E+02 0.  0.
          5    1    5    5  501    0  0.16695334860E+03  0.14675635444E+03  0.52188061629E+03  0.56726741122E+03  0.47000000000E+01 0. -1.
        -13    1    6    6    0    0 -0.16489674282E+02  0.29235439414E+02  0.61836738690E+02  0.70359096977E+02  0.00000000000E+00 0.  1.
         14    1    6    6    0    0  0.65364918348E+02  0.17465809547E+03  0.55942508488E+03  0.58969012919E+03  0.00000000000E+00 0. -1.
         -5    1    3    3    0  503 -0.51834656187E+02 -0.24406998997E+02 -0.47509441821E+02  0.74577276997E+02  0.47000000000E+01 0.  1.
         11    1    4    4    0    0 -0.28806502507E+02 -0.36040362542E+02  0.25369584180E+02  0.52652997259E+02  0.00000000000E+00 0. -1.
        -12    1    4    4    0    0 -0.13518743397E+03 -0.29020252778E+03 -0.24684010905E+02  0.32109570198E+03  0.00000000000E+00 0.  1.
</event>
<event>
12    1  0.8633375E-002  0.3012701E+03  0.7818608E-02  0.1084704E+00
         21   -1    0    0  501  502  0.00000000000E+00  0.00000000000E+00  0.25989212894E+03  0.25989212894E+03  0.00000000000E+00 0. -1.
         21   -1    0    0  502  503 -0.00000000000E+00 -0.00000000000E+00 -0.46578017499E+03  0.46578017499E+03  0.00000000000E+00 0.  1.
         -6    2    1    2    0  503 -0.24507978825E+03  0.26183237676E+02  0.79345822964E+02  0.31079638029E+03  0.17189812633E+03 0.  0.
        -24    2    3    3    0    0 -0.19188810463E+03  0.67722331077E+02  0.99841530077E+02  0.24010680894E+03  0.79218619955E+02 0.  0.
          6    2    1    2  501    0  0.24507978825E+03 -0.26183237676E+02 -0.28523386901E+03  0.41487592364E+03  0.17324551204E+03 0.  0.
         24    2    5    5    0    0  0.17419930372E+03 -0.83948929684E+02 -0.18818615553E+03  0.28145453498E+03  0.80061263522E+02 0.  0.
          5    1    5    5  501    0  0.70880484528E+02  0.57765692008E+02 -0.97047713485E+02  0.13342138866E+03  0.47000000000E+01 0. -1.
        -13    1    6    6    0    0  0.16101920857E+03 -0.43649871121E+02 -0.15273687031E+03  0.22618808176E+03  0.00000000000E+00 0.  1.
         14    1    6    6    0    0  0.13180095149E+02 -0.40299058562E+02 -0.35449285216E+02  0.55266453220E+02  0.00000000000E+00 0. -1.
         -5    1    3    3    0  503 -0.53191683615E+02 -0.41539093401E+02 -0.20495707113E+02  0.70689571341E+02  0.47000000000E+01 0.  1.
         13    1    4    4    0    0 -0.13581093344E+03  0.14475381303E+02  0.39970058762E+02  0.14230865014E+03  0.00000000000E+00 0. -1.
        -14    1    4    4    0    0 -0.56077171191E+02  0.53246949774E+02  0.59871471315E+02  0.97798158809E+02  0.00000000000E+00 0.  1.
</event>
<event>
12    1  0.8633375E-002  0.3211946E+03  0.7818608E-02  0.1075691E+00
         21   -1    0    0  501  502  0.00000000000E+00  0.00000000000E+00  0.99133799211E+03  0.99133799211E+03  0.00000000000E+00 0. -1.
         21   -1    0    0  502  503 -0.00000000000E+00 -0.00000000000E+00 -0.10656099179E+03  0.10656099179E+03  0.00000000000E+00 0.  1.
         -6    2    1    2    0  503  0.26175803828E+02  0.26982103175E+03  0.33755208976E+03  0.46594781407E+03  0.17227126938E+03 0.  0.
        -24    2    3    3    0    0  0.40088429501E+02  0.58098601260E+02  0.72640530014E+02  0.12650684245E+03  0.75794491476E+02 0.  0.
          6    2    1    2  501    0 -0.26175803828E+02 -0.26982103175E+03  0.54722491056E+03  0.63195116984E+03  0.16253804614E+03 0.  0.
         24    2    5    5    0    0  0.23193410119E+02 -0.23377508913E+03  0.37872341714E+03  0.45264285282E+03  0.79154273120E+02 0.  0.
          5    1    5    5  501    0 -0.49369213947E+02 -0.36045942616E+02  0.16850149342E+03  0.17930831701E+03  0.47000000000E+01 0. -1.
        -13    1    6    6    0    0 -0.16074311896E+02 -0.58747161700E+02  0.52751167481E+02  0.80574798674E+02  0.00000000000E+00 0.  1.
         14    1    6    6    0    0  0.39267722015E+02 -0.17502792743E+03  0.32597224966E+03  0.37206805415E+03  0.00000000000E+00 0. -1.
         -5    1    3    3    0  503 -0.13912625673E+02  0.21172243049E+03  0.26491155975E+03  0.33944097162E+03  0.47000000000E+01 0.  1.
         13    1    4    4    0    0  0.22420871461E+02  0.52593553128E+01  0.66595677420E+02  0.70465172578E+02  0.00000000000E+00 0. -1.
        -14    1    4    4    0    0  0.17667558040E+02  0.52839245947E+02  0.60448525939E+01  0.56041669874E+02  0.00000000000E+00 0.  1.
</event>
<event>
12    1  0.8633375E-002  0.3369149E+03  0.7818608E-02  0.1068213E+00
         21   -1    0    0  501  502  0.00000000000E+00  0.00000000000E+00  0.38751046068E+03  0.38751046068E+03  0.00000000000E+00 0.  1.
         21   -1    0    0  502  503 -0.00000000000E+00 -0.00000000000E+00 -0.65646261864E+03  0.65646261864E+03  0.00000000000E+00 0. -1.
         -6    2    1    2    0  503 -0.61306051400E+02  0.28217526231E+03 -0.52340891174E+03  0.62246973182E+03  0.17358101146E+03 0.  0.
        -24    2    3    3    0    0 -0.10382363889E+03  0.24325178029E+03 -0.39933940357E+03  0.48558249517E+03  0.79797391969E+02 0.  0.
          6    2    1    2  501    0  0.61306051400E+02 -0.28217526231E+03  0.25445675378E+03  0.42150334750E+03  0.17185901725E+03 0.  0.
         24    2    5    5    0    0  0.76590130049E+02 -0.29480163527E+03  0.23628388915E+03  0.39420185737E+03  0.82407377734E+02 0.  0.
          5    1    5    5  501    0 -0.15284078650E+02  0.12626372960E+02  0.18172864626E+02  0.27301490124E+02  0.47000000000E+01 0. -1.
        -13    1    6    6    0    0  0.60257929486E+02 -0.17761223658E+03  0.19049144831E+03  0.26732773244E+03  0.00000000000E+00 0.  1.
         14    1    6    6    0    0  0.16332200563E+02 -0.11718939869E+03  0.45792440840E+02  0.12687412494E+03  0.00000000000E+00 0. -1.
         -5    1    3    3    0  503  0.42517587493E+02  0.38923482019E+02 -0.12406950818E+03  0.13688723665E+03  0.47000000000E+01 0.  1.
         13    1    4    4    0    0 -0.74235989869E+02  0.22749515280E+03 -0.37201659723E+03  0.44233626954E+03  0.00000000000E+00 0. -1.
        -14    1    4    4    0    0 -0.29587649024E+02  0.15756627486E+02 -0.27322806340E+02  0.43246225625E+02  0.00000000000E+00 0.  1.
</event>
<event>
12    1  0.8633375E-002  0.2088413E+03  0.7818608E-02  0.1144492E+00
         21   -1    0    0  503  502  0.00000000000E+00  0.00000000000E+00  0.10489730274E+03  0.10489730274E+03  0.00000000000E+00 0.  1.
         21   -1    0    0  501  503 -0.00000000000E+00 -0.00000000000E+00 -0.46806676940E+03  0.46806676940E+03  0.00000000000E+00 0.  1.
          6    2    1    2  501    0 -0.83038651341E+01 -0.10170765178E+03 -0.28987911695E+03  0.35163591234E+03  0.17089327605E+03 0.  0.
         24    2    3    3    0    0 -0.57018354094E+00 -0.13884376461E+03 -0.24326278596E+03  0.29135263919E+03  0.80197638689E+02 0.  0.
         -6    2    1    2    0  502  0.83038651341E+01  0.10170765178E+03 -0.73290349705E+02  0.22132815979E+03  0.18221217948E+03 0.  0.
        -24    2    5    5    0    0 -0.51624731332E+02  0.46090493827E+02  0.86972513740E+01  0.10544562589E+03  0.79080284086E+02 0.  0.
          5    1    3    3  501    0 -0.77336815931E+01  0.37136112827E+02 -0.46616330996E+02  0.60283273156E+02  0.47000000000E+01 0. -1.
        -13    1    4    4    0    0 -0.59376789214E+01 -0.48790176371E+02 -0.16419526597E+03  0.17139376508E+03  0.00000000000E+00 0.  1.
         14    1    4    4    0    0  0.53674953804E+01 -0.90053588236E+02 -0.79067519989E+02  0.11995887411E+03  0.00000000000E+00 0. -1.
         -5    1    5    5    0  502  0.59928596466E+02  0.55617157953E+02 -0.81987601079E+02  0.11588253390E+03  0.47000000000E+01 0.  1.
         13    1    6    6    0    0 -0.83977381829E+01 -0.22346119265E+02 -0.11729320120E+01  0.23900770328E+02  0.00000000000E+00 0. -1.
        -14    1    6    6    0    0 -0.43226993149E+02  0.68436613092E+02  0.98701833860E+01  0.81544855560E+02  0.00000000000E+00 0.  1.
</event>
<event>
12    1  0.8633375E-002  0.2357677E+03  0.7818608E-02  0.1122775E+00
         21   -1    0    0  501  502  0.00000000000E+00  0.00000000000E+00  0.22804122991E+03  0.22804122991E+03  0.00000000000E+00 0.  1.
         21   -1    0    0  502  503 -0.00000000000E+00 -0.00000000000E+00 -0.26613001840E+03  0.26613001840E+03  0.00000000000E+00 0. -1.
         -6    2    1    2    0  503 -0.27208646652E+02  0.15805559205E+03 -0.91913859362E+02  0.25233752282E+03  0.17176782949E+03 0.  0.
        -24    2    3    3    0    0 -0.44409964384E+02  0.13164056848E+03 -0.57844806492E+01  0.16050071822E+03  0.80159441903E+02 0.  0.
          6    2    1    2  501    0  0.27208646652E+02 -0.15805559205E+03  0.53825070877E+02  0.24183372549E+03  0.17281357557E+03 0.  0.
         24    2    5    5    0    0  0.53432969479E+02 -0.15481876916E+03  0.85262080337E+02  0.20049890127E+03  0.78142520792E+02 0.  0.
          5    1    5    5  501    0 -0.26224322826E+02 -0.32368228906E+01 -0.31437009460E+02  0.41334824227E+02  0.47000000000E+01 0. -1.
        -11    1    6    6    0    0 -0.61200088926E+01 -0.50434095289E+02  0.58306718270E+02  0.77335152885E+02  0.00000000000E+00 0.  1.
         12    1    6    6    0    0  0.59552978371E+02 -0.10438467387E+03  0.26955362067E+02  0.12316374838E+03  0.00000000000E+00 0. -1.
         -5    1    3    3    0  503  0.17201317732E+02  0.26415023569E+02 -0.86129378713E+02  0.91836804601E+02  0.47000000000E+01 0.  1.
         11    1    4    4    0    0 -0.42520834948E+01  0.11785785986E+03 -0.37137472777E+01  0.11799299667E+03  0.00000000000E+00 0. -1.
        -12    1    4    4    0    0 -0.40157880889E+02  0.13782708619E+02 -0.20707333715E+01  0.42507721547E+02  0.00000000000E+00 0.  1.
</event>
<event>
12    1  0.8633375E-002  0.1743237E+03  0.7818608E-02  0.1173912E+00
         21   -1    0    0  503  502  0.00000000000E+00  0.00000000000E+00  0.19688619648E+03  0.19688619648E+03  0.00000000000E+00 0. -1.
         21   -1    0    0  501  503 -0.00000000000E+00 -0.00000000000E+00 -0.29864518283E+03  0.29864518283E+03  0.00000000000E+00 0. -1.
          6    2    1    2  501    0  0.62625533899E+01  0.20143055717E+01 -0.22428442546E+03  0.28406383861E+03  0.17419955195E+03 0.  0.
         24    2    3    3    0    0 -0.23191398758E+02 -0.56338299864E+01 -0.23670240739E+03  0.25086255023E+03  0.79588996910E+02 0.  0.
         -6    2    1    2    0  502 -0.62625533899E+01 -0.20143055717E+01  0.12252543910E+03  0.21146754070E+03  0.17222880288E+03 0.  0.
        -24    2    5    5    0    0 -0.69675211437E+02  0.47279280559E+01  0.95069122505E+02  0.14187901984E+03  0.78832289217E+02 0.  0.
          5    1    3    3  501    0  0.29453952148E+02  0.76481355581E+01  0.12417981928E+02  0.33201288376E+02  0.47000000000E+01 0. -1.
        -11    1    4    4    0    0  0.22059312857E+02 -0.87581026491E+01 -0.25467089756E+02  0.34812214902E+02  0.00000000000E+00 0.  1.
         12    1    4    4    0    0 -0.45250711615E+02  0.31242726627E+01 -0.21123531763E+03  0.21605033533E+03  0.00000000000E+00 0. -1.
         -5    1    5    5    0  502  0.63412658047E+02 -0.67422336276E+01  0.27456316598E+02  0.69588520864E+02  0.47000000000E+01 0.  1.
         11    1    6    6    0    0  0.15297824204E+02  0.11261861432E+02  0.25891550420E+02  0.32112697355E+02  0.00000000000E+00 0. -1.
        -12    1    6    6    0    0 -0.84973035641E+02 -0.65339333756E+01  0.69177572086E+02  0.10976632248E+03  0.00000000000E+00 0.  1.
</event>
<event>
12    1  0.8633375E-002  0.1900127E+03  0.7818608E-02  0.1158605E+00
         21   -1    0    0  503  502  0.00000000000E+00  0.00000000000E+00  0.12602505309E+04  0.12602505309E+04  0.00000000000E+00 0. -1.
         21   -1    0    0  501  503 -0.00000000000E+00 -0.00000000000E+00 -0.29954195693E+02  0.29954195693E+02  0.00000000000E+00 0. -1.
          6    2    1    2  501    0 -0.41045852931E+02 -0.71804358393E+02  0.75609408397E+03  0.77960445141E+03  0.17106784887E+03 0.  0.
         24    2    3    3    0    0  0.91888371600E+01 -0.97668915558E+01  0.16965286759E+03  0.18773659314E+03  0.79266045847E+02 0.  0.
         -6    2    1    2    0  502  0.41045852931E+02  0.71804358393E+02  0.47420225125E+03  0.51060027519E+03  0.17030630644E+03 0.  0.
        -24    2    5    5    0    0  0.62964043874E+01 -0.24104931983E+02  0.26167145378E+03  0.27480895638E+03  0.80170570229E+02 0.  0.
          5    1    3    3  501    0 -0.50234690091E+02 -0.62037466837E+02  0.58644121638E+03  0.59186785826E+03  0.47000000000E+01 0. -1.
        -11    1    4    4    0    0 -0.15578884606E+01  0.18849752557E+02  0.15045678075E+03  0.15164096762E+03  0.00000000000E+00 0.  1.
         12    1    4    4    0    0  0.10746725621E+02 -0.28616644112E+02  0.19196086844E+02  0.36095625524E+02  0.00000000000E+00 0. -1.
         -5    1    5    5    0  502  0.34749448544E+02  0.95909290376E+02  0.21253079747E+03  0.23579131881E+03  0.47000000000E+01 0.  1.
         11    1    6    6    0    0 -0.22489737918E+02  0.17256309900E+02  0.14460345001E+03  0.14735578135E+03  0.00000000000E+00 0. -1.
        -12    1    6    6    0    0  0.28786142305E+02 -0.41361241883E+02  0.11706800377E+03  0.12745317503E+03  0.00000000000E+00 0.  1.
</event>
<event>
12    1  0.8633375E-002  0.1953625E+03  0.7818608E-02  0.1154253E+00
         21   -1    0    0  501  502  0.00000000000E+00  0.00000000000E+00  0.54096678859E+03  0.54096678859E+03  0.00000000000E+00 0.  1.
         21   -1    0    0  502  503 -0.00000000000E+00 -0.00000000000E+00 -0.70927928478E+02  0.70927928478E+02  0.00000000000E+00 0. -1.
         -6    2    1    2    0  503 -0.23053538330E+02  0.90958420412E+02  0.19267735961E+03  0.27263684449E+03  0.16852710225E+03 0.  0.
        -24    2    3    3    0    0  0.50840118445E+02  0.39483546647E+02  0.94833787168E+02  0.13957524293E+03  0.79650066863E+02 0.  0.
          6    2    1    2  501    0  0.23053538330E+02 -0.90958420412E+02  0.27736150051E+03  0.33925787259E+03  0.17135227537E+03 0.  0.
         24    2    5    5    0    0  0.41992402898E+02 -0.33873333768E+02  0.25871453336E+03  0.27611369556E+03  0.79967483786E+02 0.  0.
          5    1    5    5  501    0 -0.18938864568E+02 -0.57085086643E+02  0.18646967147E+02  0.63144177024E+02  0.47000000000E+01 0. -1.
        -13    1    6    6    0    0 -0.53959285199E+00 -0.23774020416E+02  0.20716050450E+03  0.20852090982E+03  0.00000000000E+00 0.  1.
         14    1    6    6    0    0  0.42531995750E+02 -0.10099313353E+02  0.51554028861E+02  0.67592785743E+02  0.00000000000E+00 0. -1.
         -5    1    3    3    0  503 -0.73893656774E+02  0.51474873765E+02  0.97843572439E+02  0.13306160155E+03  0.47000000000E+01 0.  1.
         13    1    4    4    0    0  0.26667946171E+02 -0.20280864578E+02  0.53073585972E+02  0.62763829942E+02  0.00000000000E+00 0. -1.
        -14    1    4    4    0    0  0.24172172273E+02  0.59764411225E+02  0.41760201196E+02  0.76811412989E+02  0.00000000000E+00 0.  1.
</event>
<event>
12    1  0.8633375E-002  0.2307487E+03  0.7818608E-02  0.1126260E+00
         21   -1    0    0  501  502  0.00000000000E+00  0.00000000000E+00  0.13269878727E+03  0.13269878727E+03  0.00000000000E+00 0.  1.
         21   -1    0    0  502  503 -0.00000000000E+00 -0.00000000000E+00 -0.45221753870E+03  0.45221753870E+03  0.00000000000E+00 0. -1.
         -6    2    1    2    0  503 -0.11223016780E+03 -0.10378760249E+03 -0.25958381198E+03  0.34731646341E+03  0.17285107265E+03 0.  0.
        -24    2    3    3    0    0 -0.61745060189E+02 -0.68981052490E+02 -0.25450152445E+03  0.28560615909E+03  0.90713913472E+02 0.  0.
          6    2    1    2  501    0  0.11223016780E+03  0.10378760249E+03 -0.59934939451E+02  0.23759986255E+03  0.17173823315E+03 0.  0.
         24    2    5    5    0    0  0.76197574412E+02  0.13662447441E+03 -0.33707846073E+02  0.18204305945E+03  0.86782136719E+02 0.  0.
          5    1    5    5  501    0  0.36032593384E+02 -0.32836871923E+02 -0.26227093378E+02  0.55556803100E+02  0.47000000000E+01 0. -1.
        -11    1    6    6    0    0  0.89939783929E+02  0.79314370541E+02 -0.20698675518E+02  0.12168964326E+03  0.00000000000E+00 0.  1.
         12    1    6    6    0    0 -0.13742209517E+02  0.57310103872E+02 -0.13009170555E+02  0.60353416198E+02  0.00000000000E+00 0. -1.
         -5    1    3    3    0  503 -0.50485107606E+02 -0.34806550001E+02 -0.50822875248E+01  0.61710304321E+02  0.47000000000E+01 0.  1.
         11    1    4    4    0    0  0.12741911715E+02 -0.51514734631E+02 -0.10076983141E+03  0.11388890692E+03  0.00000000000E+00 0. -1.
        -12    1    4    4    0    0 -0.74486971904E+02 -0.17466317859E+02 -0.15373169305E+03  0.17171725216E+03  0.00000000000E+00 0.  1.
</event>
<event>
12    1  0.8633375E-002  0.1838470E+03  0.7818608E-02  0.1164314E+00
         21   -1    0    0  503  502  0.00000000000E+00  0.00000000000E+00  0.67535554387E+03  0.67535554387E+03  0.00000000000E+00 0. -1.
         21   -1    0    0  501  503 -0.00000000000E+00 -0.00000000000E+00 -0.13586707545E+03  0.13586707545E+03  0.00000000000E+00 0. -1.
          6    2    1    2  501    0 -0.64517862127E+02 -0.35106403442E+01 -0.52805862727E+02  0.19128041195E+03  0.17211873149E+03 0.  0.
         24    2    3    3    0    0 -0.22145462410E+02  0.31204011770E+02  0.28449730835E+02  0.93172874965E+02  0.80048020517E+02 0.  0.
         -6    2    1    2    0  502  0.64517862127E+02  0.35106403442E+01  0.59229433115E+03  0.61994220736E+03  0.17129181716E+03 0.  0.
        -24    2    5    5    0    0  0.97405428519E+02  0.41494822111E+02  0.43400558809E+03  0.45380429397E+03  0.79798803013E+02 0.  0.
          5    1    3    3  501    0 -0.42372399717E+02 -0.34714652114E+02 -0.81255593562E+02  0.98107536990E+02  0.47000000000E+01 0. -1.
        -11    1    4    4    0    0 -0.26902590332E+02  0.52991297925E+02  0.32433741458E+01  0.59517615025E+02  0.00000000000E+00 0.  1.
         12    1    4    4    0    0  0.47571279220E+01 -0.21787286156E+02  0.25206356689E+02  0.33655259940E+02  0.00000000000E+00 0. -1.
         -5    1    5    5    0  502 -0.32887566392E+02 -0.37984181767E+02  0.15828874306E+03  0.16613791339E+03  0.47000000000E+01 0.  1.
         13    1    6    6    0    0  0.69973736324E+01  0.34391126962E+02  0.19579145607E+03  0.19891205876E+03  0.00000000000E+00 0. -1.
        -14    1    6    6    0    0  0.90408054886E+02  0.71036951492E+01  0.23821413203E+03  0.25489223521E+03  0.00000000000E+00 0.  1.
</event>
<event>
12    1  0.8633375E-002  0.3133361E+03  0.7818608E-02  0.1078781E+00
         21   -1    0    0  501  502  0.00000000000E+00  0.00000000000E+00  0.41646706514E+03  0.41646706514E+03  0.00000000000E+00 0. -1.
         21   -1    0    0  502  503 -0.00000000000E+00 -0.00000000000E+00 -0.39102125424E+03  0.39102125424E+03  0.00000000000E+00 0.  1.
         -6    2    1    2    0  503  0.79513211518E+02 -0.24992736647E+03 -0.24182296126E+03  0.39580023500E+03  0.17144515776E+03 0.  0.
        -24    2    3    3    0    0 -0.57129096260E+01 -0.55267705495E+02 -0.10293680424E+03  0.14189606027E+03  0.80320294110E+02 0.  0.
          6    2    1    2  501    0 -0.79513211518E+02  0.24992736647E+03  0.26726877216E+03  0.41168808438E+03  0.17108022367E+03 0.  0.
         24    2    5    5    0    0 -0.10381916360E+03  0.21051623534E+03  0.26756402896E+03  0.36514569789E+03  0.81519120585E+02 0.  0.
          5    1    5    5  501    0  0.24305952086E+02  0.39411131125E+02 -0.29525679605E+00  0.46542386488E+02  0.47000000000E+01 0. -1.
        -11    1    6    6    0    0  0.11293418555E+02  0.38412726921E+02  0.58623808268E+02  0.70991758592E+02  0.00000000000E+00 0.  1.
         12    1    6    6    0    0 -0.11511258216E+03  0.17210350842E+03  0.20894022069E+03  0.29415393930E+03  0.00000000000E+00 0. -1.
         -5    1    3    3    0  503  0.85226121144E+02 -0.19465966097E+03 -0.13888615703E+03  0.25390417473E+03  0.47000000000E+01 0.  1.
         11    1    4    4    0    0  0.27839222528E+02  0.21536101361E+00 -0.53677122634E+02  0.60467364632E+02  0.00000000000E+00 0. -1.
        -12    1    4    4    0    0 -0.33552132154E+02 -0.55483066509E+02 -0.49259681605E+02  0.81428695637E+02  0.00000000000E+00 0.  1.
</event>
<event>
12    1  0.8633375E-002  0.2564931E+03  0.7818608E-02  0.1109397E+00
         21   -1    0    0  501  502  0.00000000000E+00  0.00000000000E+00  0.14958795721E+04  0.14958795721E+04  0.00000000000E+00 0.  1.
         21   -1    0    0  502  503 -0.00000000000E+00 -0.00000000000E+00 -0.44015575242E+02  0.44015575242E+02  0.00000000000E+00 0.  1.
         -6    2    1    2    0  503  0.17673778664E+03 -0.67180844003E+02  0.67801009244E+03  0.72490439647E+03  0.17331816851E+03 0.  0.
        -24    2    3    3    0    0  0.13579147506E+03  0.25425415231E+01  0.29703256976E+03  0.33541253042E+03  0.76337597902E+02 0.  0.
          6    2    1    2  501    0 -0.17673778664E+03  0.67180844003E+02  0.77385390443E+03  0.81499075089E+03  0.17207715597E+03 0.  0.
         24    2    5    5    0    0 -0.16698818428E+03 -0.26712748204E+01  0.55387323021E+03  0.58393240268E+03  0.79431142191E+02 0.  0.
          5    1    5    5  501    0 -0.97496023600E+01  0.69852118823E+02  0.21998067422E+03  0.23105834821E+03  0.47000000000E+01 0. -1.
        -11    1    6    6    0    0 -0.14275533633E+03  0.62484045931E+01  0.52943623575E+03  0.54838021148E+03  0.00000000000E+00 0.  1.
         12    1    6    6    0    0 -0.24232847958E+02 -0.89196794135E+01  0.24436994460E+02  0.35552191202E+02  0.00000000000E+00 0. -1.
         -5    1    3    3    0  503  0.40946311585E+02 -0.69723385526E+02  0.38097752269E+03  0.38949186605E+03  0.47000000000E+01 0.  1.
         11    1    4    4    0    0  0.17151440244E+02  0.12829761047E+02  0.12101265387E+03  0.12289360060E+03  0.00000000000E+00 0. -1.
        -12    1    4    4    0    0  0.11864003481E+03 -0.10287219524E+02  0.17601991588E+03  0.21251892983E+03  0.00000000000E+00 0.  1.
</event>
<event>
12    1  0.8633375E-002  0.2490828E+03  0.7818608E-02  0.1113950E+00
         21   -1    0    0  501  502  0.00000000000E+00  0.00000000000E+00  0.34167313402E+03  0.34167313402E+03  0.00000000000E+00 0. -1.
         21   -1    0    0  502  503 -0.00000000000E+00 -0.00000000000E+00 -0.18808738520E+03  0.18808738520E+03  0.00000000000E+00 0.  1.
         -6    2    1    2    0  503  0.48425010521E+02  0.17336257813E+03  0.26500066876E+02  0.25048851634E+03  0.17217049148E+03 0.  0.
        -24    2    3    3    0    0 -0.33111308095E+01  0.67385086107E+02  0.68270719150E+02  0.12528973629E+03  0.80528960691E+02 0.  0.
          6    2    1    2  501    0 -0.48425010521E+02 -0.17336257813E+03  0.12708568194E+03  0.27927200288E+03  0.17158821609E+03 0.  0.
         24    2    5    5    0    0  0.23715156932E+01 -0.22325573836E+02  0.49873305609E+02  0.10213842391E+03  0.86260394693E+02 0.  0.
          5    1    5    5  501    0 -0.50796526214E+02 -0.15103700429E+03  0.77212376332E+02  0.17713357897E+03  0.47000000000E+01 0. -1.
        -13    1    6    6    0    0  0.36344278887E+02 -0.36225773105E+02  0.36908743856E+02  0.63209719331E+02  0.00000000000E+00 0.  1.
         14    1    6    6    0    0 -0.33972763194E+02  0.13900199269E+02  0.12964561753E+02  0.38928704579E+02  0.00000000000E+00 0. -1.
         -5    1    3    3    0  503  0.51736141330E+02  0.10597749202E+03 -0.41770652274E+02  0.12519878005E+03  0.47000000000E+01 0.  1.
         11    1    4    4    0    0  0.12117539020E+02  0.82147847371E+02  0.59746962509E+02  0.10229762025E+03  0.00000000000E+00 0. -1.
        -12    1    4    4    0    0 -0.15428669830E+02 -0.14762761264E+02  0.85237566411E+01  0.22992116043E+02  0.00000000000E+00 0.  1.
</event>
<event>
12    1  0.8633375E-002  0.2500878E+03  0.7818608E-02  0.1115841E+00
         21   -1    0    0  501  502  0.00000000000E+00  0.00000000000E+00  0.51938926351E+03  0.51938926351E+03  0.00000000000E+00 0. -1.
         21   -1    0    0  502  503 -0.00000000000E+00 -0.00000000000E+00 -0.19003725853E+03  0.19003725853E+03  0.00000000000E+00 0. -1.
         -6    2    1    2    0  503 -0.13483162952E+03 -0.11698038318E+03 -0.64431582981E+02  0.24294025197E+03  0.15167253796E+03 0.  0.
        -24    2    3    3    0    0 -0.87392241948E+02 -0.13245010453E+03 -0.25020447015E+02  0.17918183754E+03  0.79370485646E+02 0.  0.
          6    2    1    2  501    0  0.13483162952E+03  0.11698038318E+03  0.39378358796E+03  0.46648627007E+03  0.17515692293E+03 0.  0.
         24    2    5    5    0    0  0.11896659600E+03  0.15669676704E+03  0.32182977575E+03  0.38264993233E+03  0.64340021642E+02 0.  0.
          5    1    5    5  501    0  0.15865033518E+02 -0.39716383858E+02  0.71953812201E+02  0.83836337739E+02  0.47000000000E+01 0. -1.
        -13    1    6    6    0    0 -0.14921457724E+01 -0.47140031301E+01  0.13419034644E+02  0.14301007492E+02  0.00000000000E+00 0.  1.
         14    1    6    6    0    0  0.12045874178E+03  0.16141077017E+03  0.30841074111E+03  0.36834892484E+03  0.00000000000E+00 0. -1.
         -5    1    3    3    0  503 -0.47439387575E+02  0.15469721352E+02 -0.39411135967E+02  0.63758414428E+02  0.47000000000E+01 0.  1.
         11    1    4    4    0    0 -0.84335330090E+02 -0.93931594137E+02 -0.47031277303E+02  0.13471278085E+03  0.00000000000E+00 0. -1.
        -12    1    4    4    0    0 -0.30569118578E+01 -0.38518510396E+02  0.22010830288E+02  0.44469056693E+02  0.00000000000E+00 0.  1.
</event>
<event>
12    1  0.8633375E-002  0.1879384E+03  0.7818608E-02  0.1160652E+00
         21   -1    0    0  501  502  0.00000000000E+00  0.00000000000E+00  0.12454337724E+03  0.12454337724E+03  0.00000000000E+00 0. -1.
         21   -1    0    0  502  503 -0.00000000000E+00 -0.00000000000E+00 -0.28634269180E+03  0.28634269180E+03  0.00000000000E+00 0. -1.
         -6    2    1    2    0  503 -0.18901111344E+02 -0.71441550027E+02 -0.10785600508E+03  0.21668816909E+03  0.17279958828E+03 0.  0.
        -24    2    3    3    0    0  0.45776777293E+02 -0.70852238857E+02 -0.98321416796E+02  0.15113990488E+03  0.77849963114E+02 0.  0.
          6    2    1    2  501    0  0.18901111344E+02  0.71441550027E+02 -0.53943309474E+02  0.19419789996E+03  0.17129447344E+03 0.  0.
         24    2    5    5    0    0 -0.13252096290E+02  0.81681043490E+02 -0.88668712565E+02  0.14554998523E+03  0.80468917545E+02 0.  0.
          5    1    5    5  501    0  0.32153207633E+02 -0.10239493463E+02  0.34725403091E+02  0.48647914727E+02  0.47000000000E+01 0. -1.
        -13    1    6    6    0    0  0.36884375241E+01  0.91962906860E+02 -0.57205669179E+02  0.10836636653E+03  0.00000000000E+00 0.  1.
         14    1    6    6    0    0 -0.16940533814E+02 -0.10281863370E+02 -0.31463043386E+02  0.37183618697E+02  0.00000000000E+00 0. -1.
         -5    1    3    3    0  503 -0.64677888637E+02 -0.58931116983E+00 -0.95345882845E+01  0.65548264202E+02  0.47000000000E+01 0.  1.
         11    1    4    4    0    0  0.80131619218E+01 -0.25804901017E+02 -0.87231702726E+02  0.91320718574E+02  0.00000000000E+00 0. -1.
        -12    1    4    4    0    0  0.37763615371E+02 -0.45047337841E+02 -0.11089714070E+02  0.59819186308E+02  0.00000000000E+00 0.  1.
</event>
<event>
12    1  0.8633375E-002  0.1940552E+03  0.7818608E-02  0.1154987E+00
         21   -1    0    0  503  502  0.00000000000E+00  0.00000000000E+00  0.25172708488E+03  0.25172708488E+03  0.00000000000E+00 0. -1.
         21   -1    0    0  501  503 -0.00000000000E+00 -0.00000000000E+00 -0.14921075046E+03  0.14921075046E+03  0.00000000000E+00 0. -1.
          6    2    1    2  501    0  0.85621936188E+02 -0.31161593909E+02  0.56007659491E+02  0.20197594831E+03  0.17133378208E+03 0.  0.
         24    2    3    3    0    0  0.10128417264E+03 -0.58482761140E+02  0.78687724290E+02  0.16288340210E+03  0.81612056387E+02 0.  0.
         -6    2    1    2    0  502 -0.85621936188E+02  0.31161593909E+02  0.46508674929E+02  0.19896188703E+03  0.17064763331E+03 0.  0.
        -24    2    5    5    0    0 -0.12106614459E+03  0.16695298270E+02  0.99971523283E+01  0.14585118283E+03  0.78973920555E+02 0.  0.
          5    1    3    3  501    0 -0.15662236455E+02  0.27321167231E+02 -0.22680064799E+02  0.39092546207E+02  0.47000000000E+01 0. -1.
        -13    1    4    4    0    0  0.36906343309E+02  0.18227466757E+02  0.13198453476E+02  0.43226356485E+02  0.00000000000E+00 0.  1.
         14    1    4    4    0    0  0.64377829334E+02 -0.76710227898E+02  0.65489270814E+02  0.11965704562E+03  0.00000000000E+00 0. -1.
         -5    1    5    5    0  502  0.35444208398E+02  0.14466295639E+02  0.36511522601E+02  0.53110704205E+02  0.47000000000E+01 0.  1.
         11    1    6    6    0    0 -0.25653960218E+02  0.35673527535E+02  0.19567878776E+02  0.48100188372E+02  0.00000000000E+00 0. -1.
        -12    1    6    6    0    0 -0.95412184368E+02 -0.18978229265E+02 -0.95707264478E+01  0.97750994453E+02  0.00000000000E+00 0.  1.
</event>
<event>
12    1  0.8633375E-002  0.2220817E+03  0.7818608E-02  0.1133988E+00
         21   -1    0    0  503  502  0.00000000000E+00  0.00000000000E+00  0.50523372003E+02  0.50523372003E+02  0.00000000000E+00 0.  1.
         21   -1    0    0  501  503 -0.00000000000E+00 -0.00000000000E+00 -0.10335584116E+04  0.10335584116E+04  0.00000000000E+00 0. -1.
          6    2    1    2  501    0  0.36091399230E+02 -0.13446590048E+03 -0.33577050081E+03  0.40256938115E+03  0.17302199264E+03 0.  0.
         24    2    3    3    0    0  0.48191454483E+01 -0.61545425019E+02 -0.29776364669E+03  0.31446739163E+03  0.80096739031E+02 0.  0.
         -6    2    1    2    0  502 -0.36091399230E+02  0.13446590048E+03 -0.64726453883E+03  0.68151240249E+03  0.16162952711E+03 0.  0.
        -24    2    5    5    0    0 -0.62501867924E+01  0.90456027799E+02 -0.58867742444E+03  0.60225392140E+03  0.89147731263E+02 0.  0.
          5    1    3    3  501    0  0.31272253782E+02 -0.72920475463E+02 -0.38006854119E+02  0.88101989525E+02  0.47000000000E+01 0. -1.
        -11    1    4    4    0    0 -0.15924912282E+02 -0.19673236283E+02 -0.18575586176E+02  0.31395723575E+02  0.00000000000E+00 0.  1.
         12    1    4    4    0    0  0.20744057730E+02 -0.41872188737E+02 -0.27918806051E+03  0.28307166805E+03  0.00000000000E+00 0. -1.
         -5    1    5    5    0  502 -0.29841212437E+02  0.44009872683E+02 -0.58587114384E+02  0.79258481093E+02  0.47000000000E+01 0.  1.
         13    1    6    6    0    0  0.26404740716E+02  0.40664343666E+02 -0.11435984242E+03  0.12421341608E+03  0.00000000000E+00 0. -1.
        -14    1    6    6    0    0 -0.32654927508E+02  0.49791684133E+02 -0.47431758203E+03  0.47804050531E+03  0.00000000000E+00 0.  1.
</event>
<event>
12    1  0.8633375E-002  0.1865160E+03  0.7818608E-02  0.1161648E+00
         21   -1    0    0  503  502  0.00000000000E+00  0.00000000000E+00  0.73156838532E+02  0.73156838532E+02  0.00000000000E+00 0.  1.
         21   -1    0    0  501  503 -0.00000000000E+00 -0.00000000000E+00 -0.47565737543E+03  0.47565737543E+03  0.00000000000E+00 0.  1.
          6    2    1    2  501    0 -0.64766670352E+02  0.37780804104E+02 -0.19574373192E+03  0.27037717930E+03  0.17078085301E+03 0.  0.
         24    2    3    3    0    0  0.20305640829E+02  0.45621698877E+02 -0.14431598881E+03  0.17054892418E+03  0.75935317562E+02 0.  0.
         -6    2    1    2    0  502  0.64766670352E+02 -0.37780804104E+02 -0.20675680499E+03  0.27843703466E+03  0.17075331656E+03 0.  0.
        -24    2    5    5    0    0  0.13475758597E+02  0.34647655056E+02 -0.57323252725E+02  0.10457181138E+03  0.79165979830E+02 0.  0.
          5    1    3    3  501    0 -0.85072311181E+02 -0.78408947724E+01 -0.51427743103E+02  0.99828255125E+02  0.47000000000E+01 0. -1.
        -11    1    4    4    0    0  0.20054688103E+02  0.39470847088E+02 -0.15335208869E+03  0.15961516654E+03  0.00000000000E+00 0.  1.
         12    1    4    4    0    0  0.25095272613E+00  0.61508517885E+01  0.90360998781E+01  0.10933757634E+02  0.00000000000E+00 0. -1.
         -5    1    5    5    0  502  0.51290911755E+02 -0.72428459160E+02 -0.14943355226E+03  0.17386522328E+03  0.47000000000E+01 0.  1.
         13    1    6    6    0    0 -0.19842853049E+02 -0.14096130309E+02 -0.32302034775E+02  0.40445780465E+02  0.00000000000E+00 0. -1.
        -14    1    6    6    0    0  0.33318611646E+02  0.48743785365E+02 -0.25021217950E+02  0.64126030919E+02  0.00000000000E+00 0.  1.
</event>
<event>
12    1  0.8633375E-002  0.1997302E+03  0.7818608E-02  0.1150436E+00
         21   -1    0    0  501  502  0.00000000000E+00  0.00000000000E+00  0.23683132973E+03  0.23683132973E+03  0.00000000000E+00 0. -1.
         21   -1    0    0  502  503 -0.00000000000E+00 -0.00000000000E+00 -0.49207143767E+03  0.49207143767E+03  0.00000000000E+00 0. -1.
         -6    2    1    2    0  503  0.85451734480E+02 -0.49721524131E+02 -0.42378844661E+03  0.46755872577E+03  0.17099791133E+03 0.  0.
        -24    2    3    3    0    0  0.57869436714E+02 -0.60389427113E+02 -0.13676345612E+03  0.17897594307E+03  0.79576319697E+02 0.  0.
          6    2    1    2  501    0 -0.85451734480E+02  0.49721524131E+02  0.16854833867E+03  0.26134404163E+03  0.17354520086E+03 0.  0.
         24    2    5    5    0    0  0.14270355794E+02  0.50574406448E+02  0.11042514979E+03  0.14582080682E+03  0.79426572082E+02 0.  0.
          5    1    5    5  501    0 -0.99722090274E+02 -0.85288231650E+00  0.58123188881E+02  0.11552323482E+03  0.47000000000E+01 0. -1.
        -13    1    6    6    0    0 -0.58480231911E+01  0.21622912680E+02 -0.67997786706E+01  0.23409116130E+02  0.00000000000E+00 0.  1.
         14    1    6    6    0    0  0.20118378985E+02  0.28951493768E+02  0.11722492846E+03  0.12241169069E+03  0.00000000000E+00 0. -1.
         -5    1    3    3    0  503  0.27582297766E+02  0.10667902982E+02 -0.28702499049E+03  0.28858278270E+03  0.47000000000E+01 0.  1.
         13    1    4    4    0    0  0.45742484280E+01 -0.58072369162E+02 -0.94087335999E+02  0.11066051963E+03  0.00000000000E+00 0. -1.
        -14    1    4    4    0    0  0.53295188286E+02 -0.23170579504E+01 -0.42676120119E+02  0.68315423444E+02  0.00000000000E+00 0.  1.
</event>
<event>
12    1  0.8633375E-002  0.1941658E+03  0.7818608E-02  0.1154896E+00
         21   -1    0    0  501  502  0.00000000000E+00  0.00000000000E+00  0.11568174509E+03  0.11568174509E+03  0.00000000000E+00 0. -1.
         21   -1    0    0  502  503 -0.00000000000E+00 -0.00000000000E+00 -0.32813000613E+03  0.32813000613E+03  0.00000000000E+00 0.  1.
         -6    2    1    2    0  503  0.27644337247E+02  0.84657207703E+02 -0.12829669515E+03  0.23219451875E+03  0.17182316594E+03 0.  0.
        -24    2    3    3    0    0 -0.47108917236E+02  0.37169233039E+02 -0.95632080545E+02  0.13768407573E+03  0.78807410259E+02 0.  0.
          6    2    1    2  501    0 -0.27644337247E+02 -0.84657207703E+02 -0.84151565894E+02  0.21161723247E+03  0.17253786494E+03 0.  0.
         24    2    5    5    0    0  0.16343350102E+02 -0.10018004102E+03 -0.98396667768E+02  0.16261837616E+03  0.80372173823E+02 0.  0.
          5    1    5    5  501    0 -0.43987687349E+02  0.15522833315E+02  0.14245101874E+02  0.48998856312E+02  0.47000000000E+01 0. -1.
        -13    1    6    6    0    0  0.79828530770E+01 -0.11281494235E+03 -0.78771717034E+02  0.13782568906E+03  0.00000000000E+00 0.  1.
         14    1    6    6    0    0  0.83604970250E+01  0.12634901331E+02 -0.19624950734E+02  0.24792687096E+02  0.00000000000E+00 0. -1.
         -5    1    3    3    0  503  0.74753254483E+02  0.47487974664E+02 -0.32664614601E+02  0.94510443024E+02  0.47000000000E+01 0.  1.
         11    1    4    4    0    0 -0.47901630559E+02  0.57243014666E+02 -0.56213152971E+02  0.93441144606E+02  0.00000000000E+00 0. -1.
        -12    1    4    4    0    0  0.79271332253E+00 -0.20073781627E+02 -0.39418927573E+02  0.44242931122E+02  0.00000000000E+00 0.  1.
</event>
<event>
12    1  0.8633375E-002  0.2482493E+03  0.7818608E-02  0.1114514E+00
         21   -1    0    0  503  502  0.00000000000E+00  0.00000000000E+00  0.42010154408E+03  0.42010154408E+03  0.00000000000E+00 0. -1.
         21   -1    0    0  501  503 -0.00000000000E+00 -0.00000000000E+00 -0.34132851612E+03  0.34132851612E+03  0.00000000000E+00 0.  1.
          6    2    1    2  501    0  0.10923443639E+03 -0.13989596610E+03 -0.24838900016E+03  0.35074441401E+03  0.17268904173E+03 0.  0.
         24    2    3    3    0    0  0.41952239939E+02 -0.80647818759E+01 -0.14172002723E+03  0.16824314037E+03  0.79975977776E+02 0.  0.
         -6    2    1    2    0  502 -0.10923443639E+03  0.13989596610E+03  0.32716202811E+03  0.41068564619E+03  0.17356458142E+03 0.  0.
        -24    2    5    5    0    0 -0.91922536893E+02  0.14688895818E+03  0.33753862546E+03  0.38881403045E+03  0.84958270791E+02 0.  0.
          5    1    3    3  501    0  0.67282196450E+02 -0.13183118423E+03 -0.10666897293E+03  0.18250127364E+03  0.47000000000E+01 0. -1.
        -11    1    4    4    0    0  0.29234516579E+02 -0.34670519099E+02 -0.12784978054E+03  0.13565496024E+03  0.00000000000E+00 0.  1.
         12    1    4    4    0    0  0.12717723360E+02  0.26605737223E+02 -0.13870246684E+02  0.32588180123E+02  0.00000000000E+00 0. -1.
         -5    1    5    5    0  502 -0.17311899496E+02 -0.69929920761E+01 -0.10376597349E+02  0.21871615736E+02  0.47000000000E+01 0.  1.
         13    1    6    6    0    0  0.23659771702E+01  0.61763643264E+02  0.75227124359E+02  0.97362547812E+02  0.00000000000E+00 0. -1.
        -14    1    6    6    0    0 -0.94288514063E+02  0.85125314917E+02  0.26231150110E+03  0.29145148264E+03  0.00000000000E+00 0.  1.
</event>
<event>
12    1  0.8633375E-002  0.2122561E+03  0.7818608E-02  0.1140130E+00
         21   -1    0    0  501  502  0.00000000000E+00  0.00000000000E+00  0.21862559142E+04  0.21862559142E+04  0.00000000000E+00 0. -1.
         21   -1    0    0  502  503 -0.00000000000E+00 -0.00000000000E+00 -0.16240961958E+03  0.16240961958E+03  0.00000000000E+00 0.  1.
         -6    2    1    2    0  503  0.12043568782E+03  0.18135212430E+02 -0.85506701260E+02  0.22883194506E+03  0.17383619384E+03 0.  0.
        -24    2    3    3    0    0  0.14882698936E+03  0.41943816023E+02 -0.75353243145E+02  0.19012666997E+03  0.81001746380E+02 0.  0.
          6    2    1    2  501    0 -0.12043568782E+03 -0.18135212430E+02  0.21093529959E+04  0.21198335887E+04  0.17172868664E+03 0.  0.
         24    2    5    5    0    0 -0.12470741105E+03 -0.54974756446E+02  0.19364353499E+04  0.19429211756E+04  0.81158290189E+02 0.  0.
          5    1    5    5  501    0  0.42717232219E+01  0.36839544017E+02  0.17291764595E+03  0.17691241309E+03  0.47000000000E+01 0. -1.
        -11    1    6    6    0    0 -0.78685985710E+01  0.18258365453E+02  0.18473051334E+03  0.18579732321E+03  0.00000000000E+00 0.  1.
         12    1    6    6    0    0 -0.11683881247E+03 -0.73233121899E+02  0.17517048366E+04  0.17571238524E+04  0.00000000000E+00 0. -1.
         -5    1    3    3    0  503 -0.28391301540E+02 -0.23808603594E+02 -0.10153458115E+02  0.38705275091E+02  0.47000000000E+01 0.  1.
         13    1    4    4    0    0  0.12814202470E+01 -0.28809931475E+00  0.12982783963E+02  0.13049050482E+02  0.00000000000E+00 0. -1.
        -14    1    4    4    0    0  0.14754556912E+03  0.42231915338E+02 -0.88336027108E+02  0.17707761949E+03  0.00000000000E+00 0.  1.
</event>
<event>
12    1  0.8633375E-002  0.2452594E+03  0.7818608E-02  0.1116578E+00
         21   -1    0    0  501  502  0.00000000000E+00  0.00000000000E+00  0.12604155851E+03  0.12604155851E+03  0.00000000000E+00 0.  1.
         21   -1    0    0  502  503 -0.00000000000E+00 -0.00000000000E+00 -0.11314265541E+04  0.11314265541E+04  0.00000000000E+00 0. -1.
         -6    2    1    2    0  503  0.16031376433E+02 -0.16999283850E+03 -0.98118689464E+03  0.10110178396E+04  0.17399649321E+03 0.  0.
        -24    2    3    3    0    0  0.70442042393E+02 -0.58857862947E+02 -0.54167028820E+03  0.55439059482E+03  0.74269112934E+02 0.  0.
          6    2    1    2  501    0 -0.16031376433E+02  0.16999283850E+03 -0.24198100910E+02  0.24645027295E+03  0.17606140626E+03 0.  0.
         24    2    5    5    0    0 -0.18181300867E+02  0.32254942792E+02  0.36062074457E+02  0.96018465055E+02  0.80920525095E+02 0.  0.
          5    1    5    5  501    0  0.21499244339E+01  0.13773789571E+03 -0.60260175367E+02  0.15043180789E+03  0.47000000000E+01 0. -1.
        -11    1    6    6    0    0 -0.26168286812E+02  0.12631909409E+02  0.58401144068E+02  0.65230652292E+02  0.00000000000E+00 0.  1.
         12    1    6    6    0    0  0.79869859450E+01  0.19623033383E+02 -0.22339069611E+02  0.30787812763E+02  0.00000000000E+00 0. -1.
         -5    1    3    3    0  503 -0.54410665960E+02 -0.11113497556E+03 -0.43951660643E+03  0.45662724480E+03  0.47000000000E+01 0.  1.
         13    1    4    4    0    0  0.15812008115E+02 -0.33261111825E+02 -0.38085505320E+03  0.38263153647E+03  0.00000000000E+00 0. -1.
        -14    1    4    4    0    0  0.54630034278E+02 -0.25596751122E+02 -0.16081523501E+03  0.17175905835E+03  0.00000000000E+00 0.  1.
</event>
<event>
12    1  0.8633375E-002  0.2924304E+03  0.7818608E-02  0.1089611E+00
         21   -1    0    0  501  502  0.00000000000E+00  0.00000000000E+00  0.10120247719E+04  0.10120247719E+04  0.00000000000E+00 0.  1.
         21   -1    0    0  502  503 -0.00000000000E+00 -0.00000000000E+00 -0.90715929879E+02  0.90715929879E+02  0.00000000000E+00 0.  1.
         -6    2    1    2    0  503 -0.23583513156E+03  0.62783774862E+01  0.30050219126E+03  0.41650719040E+03  0.16588865361E+03 0.  0.
        -24    2    3    3    0    0 -0.37246694254E+02  0.20766745118E+02  0.95421572500E+02  0.13062709242E+03  0.78355515696E+02 0.  0.
          6    2    1    2  501    0  0.23583513156E+03 -0.62783774862E+01  0.62080665077E+03  0.68623351139E+03  0.17279440738E+03 0.  0.
         24    2    5    5    0    0  0.24403160640E+03  0.24295627212E+02  0.54275932411E+03  0.60188051998E+03  0.86780032201E+02 0.  0.
          5    1    5    5  501    0 -0.81964748462E+01 -0.30574004698E+02  0.78047326653E+02  0.84352991416E+02  0.47000000000E+01 0. -1.
        -13    1    6    6    0    0  0.18748770296E+03 -0.17976998572E+02  0.36798291235E+03  0.41338388335E+03  0.00000000000E+00 0.  1.
         14    1    6    6    0    0  0.56543903447E+02  0.42272625784E+02  0.17477641177E+03  0.18849663662E+03  0.00000000000E+00 0. -1.
         -5    1    3    3    0  503 -0.19858843730E+03 -0.14488367632E+02  0.20508061876E+03  0.28588009798E+03  0.47000000000E+01 0.  1.
         11    1    4    4    0    0 -0.32314164368E+01  0.21372320941E+02 -0.69862214806E+01  0.22716193457E+02  0.00000000000E+00 0. -1.
        -12    1    4    4    0    0 -0.34015277817E+02 -0.60557582250E+00  0.10240779398E+03  0.10791089896E+03  0.00000000000E+00 0.  1.
</event>
<event>
12    1  0.8633375E-002  0.2252991E+03  0.7818608E-02  0.1130125E+00
         21   -1    0    0  501  502  0.00000000000E+00  0.00000000000E+00  0.10318273402E+03  0.10318273402E+03  0.00000000000E+00 0.  1.
         21   -1    0    0  502  503 -0.00000000000E+00 -0.00000000000E+00 -0.20240616934E+04  0.20240616934E+04  0.00000000000E+00 0. -1.
         -6    2    1    2    0  503 -0.33396997983E+02 -0.14075652247E+03 -0.18859266280E+04  0.18992502806E+04  0.17176910061E+03 0.  0.
        -24    2    3    3    0    0  0.12568562717E+02 -0.12962263663E+02 -0.95460782206E+03  0.95806963178E+03  0.79343155616E+02 0.  0.
          6    2    1    2  501    0  0.33396997983E+02  0.14075652247E+03 -0.34952331357E+02  0.22799414684E+03  0.17271915768E+03 0.  0.
         24    2    5    5    0    0  0.52353387490E+02  0.40979982900E+02  0.23318109973E+02  0.11080951950E+03  0.85526482320E+02 0.  0.
          5    1    5    5  501    0 -0.18956389507E+02  0.99776539571E+02 -0.58270441330E+02  0.11718462734E+03  0.47000000000E+01 0. -1.
        -13    1    6    6    0    0  0.72013023700E+02  0.47292370003E+02  0.11228018452E+02  0.86882174473E+02  0.00000000000E+00 0.  1.
         14    1    6    6    0    0 -0.19659636210E+02 -0.63123871031E+01  0.12090091521E+02  0.23927345022E+02  0.00000000000E+00 0. -1.
         -5    1    3    3    0  503 -0.45965560700E+02 -0.12779425881E+03 -0.93131880598E+03  0.94118064883E+03  0.47000000000E+01 0.  1.
         13    1    4    4    0    0 -0.13123365863E+02 -0.38590917636E+02 -0.65593811835E+03  0.65720339071E+03  0.00000000000E+00 0. -1.
        -14    1    4    4    0    0  0.25691928579E+02  0.25628653973E+02 -0.29866970371E+03  0.30086624106E+03  0.00000000000E+00 0.  1.
</event>
<event>
12    1  0.8633375E-002  0.2441240E+03  0.7818608E-02  0.1117387E+00
         21   -1    0    0  501  502  0.00000000000E+00  0.00000000000E+00  0.59605468173E+03  0.59605468173E+03  0.00000000000E+00 0. -1.
         21   -1    0    0  502  503 -0.00000000000E+00 -0.00000000000E+00 -0.10277421557E+03  0.10277421557E+03  0.00000000000E+00 0. -1.
         -6    2    1    2    0  503 -0.11894066506E+03 -0.12592678476E+03  0.31079513526E+03  0.39403813292E+03  0.16931626376E+03 0.  0.
        -24    2    3    3    0    0 -0.10113972240E+03 -0.15687923083E+03  0.24087369413E+03  0.31538684300E+03  0.81291990361E+02 0.  0.
          6    2    1    2  501    0  0.11894066506E+03  0.12592678476E+03  0.18248533091E+03  0.30479076438E+03  0.17202347842E+03 0.  0.
         24    2    5    5    0    0  0.12306075808E+03  0.10708692014E+03  0.20593885803E+03  0.27406498367E+03  0.78033604204E+02 0.  0.
          5    1    5    5  501    0 -0.41200930199E+01  0.18839864617E+02 -0.23453527122E+02  0.30725780702E+02  0.47000000000E+01 0. -1.
        -13    1    6    6    0    0  0.12303667594E+03  0.68260741235E+02  0.14699175800E+03  0.20348004654E+03  0.00000000000E+00 0.  1.
         14    1    6    6    0    0  0.24082142993E-01  0.38826178907E+02  0.58947100032E+02  0.70584937137E+02  0.00000000000E+00 0. -1.
         -5    1    3    3    0  503 -0.17800942654E+02  0.30952446074E+02  0.69921441132E+02  0.78651289928E+02  0.47000000000E+01 0.  1.
         11    1    4    4    0    0 -0.10849476092E+03 -0.15345325193E+03  0.24281165207E+03  0.30704480464E+03  0.00000000000E+00 0. -1.
        -12    1    4    4    0    0  0.73550385133E+01 -0.34259789032E+01 -0.19379579413E+01  0.83420383576E+01  0.00000000000E+00 0.  1.
</event>
<event>
12    1  0.8633375E-002  0.1920367E+03  0.7818608E-02  0.1156695E+00
         21   -1    0    0  501  502  0.00000000000E+00  0.00000000000E+00  0.82458191414E+02  0.82458191414E+02  0.00000000000E+00 0. -1.
         21   -1    0    0  502  503 -0.00000000000E+00 -0.00000000000E+00 -0.22788939760E+04  0.22788939760E+04  0.00000000000E+00 0. -1.
         -6    2    1    2    0  503 -0.84644899417E+02 -0.82184251178E+01 -0.21570377106E+04  0.21655691591E+04  0.17217954589E+03 0.  0.
        -24    2    3    3    0    0 -0.75583274080E+02 -0.68569762431E+02 -0.13306808102E+04  0.13369484896E+04  0.79405299125E+02 0.  0.
          6    2    1    2  501    0  0.84644899417E+02  0.82184251178E+01 -0.39398073952E+02  0.19578300837E+03  0.17189088581E+03 0.  0.
         24    2    5    5    0    0  0.10595558907E+03 -0.28317170058E+02 -0.63379428003E+02  0.14693435894E+03  0.74460089762E+02 0.  0.
          5    1    5    5  501    0 -0.21310689656E+02  0.36535595176E+02  0.23981354051E+02  0.48848649424E+02  0.47000000000E+01 0. -1.
        -11    1    6    6    0    0  0.16165675836E+02 -0.34019097892E+02 -0.37883410759E+02  0.53420790966E+02  0.00000000000E+00 0.  1.
         12    1    6    6    0    0  0.89789913237E+02  0.57019278346E+01 -0.25496017244E+02  0.93513567975E+02  0.00000000000E+00 0. -1.
         -5    1    3    3    0  503 -0.90616253370E+01  0.60351337313E+02 -0.82635690042E+03  0.82862066945E+03  0.47000000000E+01 0.  1.
         13    1    4    4    0    0 -0.63493587222E+02 -0.69487982247E+02 -0.71750798695E+03  0.72365580674E+03  0.00000000000E+00 0. -1.
        -14    1    4    4    0    0 -0.12089686859E+02  0.91821981618E+00 -0.61317282327E+03  0.61329268286E+03  0.00000000000E+00 0.  1.
</event>
<event>
12    1  0.8633375E-002  0.2208766E+03  0.7818608E-02  0.1133476E+00
         21   -1    0    0  501  502  0.00000000000E+00  0.00000000000E+00  0.13324076992E+03  0.13324076992E+03  0.00000000000E+00 0. -1.
         21   -1    0    0  502  503 -0.00000000000E+00 -0.00000000000E+00 -0.39805464197E+03  0.39805464197E+03  0.00000000000E+00 0. -1.
         -6    2    1    2    0  503 -0.16567703891E+01  0.13658530214E+03 -0.54318704448E+02  0.22618116901E+03  0.17189854540E+03 0.  0.
        -24    2    3    3    0    0 -0.51971536376E+02  0.73274396643E+02 -0.77318445353E+02  0.14197354160E+03  0.78154761384E+02 0.  0.
          6    2    1    2  501    0  0.16567703891E+01 -0.13658530214E+03 -0.21049516760E+03  0.30511424289E+03  0.17357475616E+03 0.  0.
         24    2    5    5    0    0  0.19455054821E+02 -0.32111983223E+02 -0.16526994432E+03  0.18979354173E+03  0.85426900689E+02 0.  0.
          5    1    5    5  501    0 -0.17798284432E+02 -0.10447331892E+03 -0.45225223287E+02  0.11532070116E+03  0.47000000000E+01 0. -1.
        -13    1    6    6    0    0 -0.11047952966E+02  0.21124892527E+02 -0.87748144427E+02  0.90928846905E+02  0.00000000000E+00 0.  1.
         14    1    6    6    0    0  0.30503007788E+02 -0.53236875750E+02 -0.77521799890E+02  0.98864694820E+02  0.00000000000E+00 0. -1.
         -5    1    3    3    0  503  0.50314765987E+02  0.63310905500E+02  0.22999740904E+02  0.84207627406E+02  0.47000000000E+01 0.  1.
         11    1    4    4    0    0 -0.35660761637E+01  0.68302016012E+02 -0.32125462818E+02  0.75564063230E+02  0.00000000000E+00 0. -1.
        -12    1    4    4    0    0 -0.48405460212E+02  0.49723806310E+01 -0.45192982534E+02  0.66409478374E+02  0.00000000000E+00 0.  1.
</event>
<event>
12    1  0.8633375E-002  0.1909324E+03  0.7818608E-02  0.1157946E+00
         21   -1    0    0  503  502  0.00000000000E+00  0.00000000000E+00  0.18770275904E+02  0.18770275904E+02  0.00000000000E+00 0. -1.
         21   -1    0    0  501  503 -0.00000000000E+00 -0.00000000000E+00 -0.20174426838E+04  0.20174426838E+04  0.00000000000E+00 0.  1.
          6    2    1    2  501    0 -0.36844461667E+02  0.72262230473E+02 -0.78088673232E+03  0.80355034139E+03  0.17125921323E+03 0.  0.
         24    2    3    3    0    0 -0.73687310136E+02  0.96069458568E+02 -0.60711463438E+03  0.62426561918E+03  0.80375515358E+02 0.  0.
         -6    2    1    2    0  502  0.36844461667E+02 -0.72262230473E+02 -0.12177856756E+04  0.12326626184E+04  0.17284627464E+03 0.  0.
        -24    2    5    5    0    0 -0.69465737875E+01 -0.10684117089E+03 -0.93164795430E+03  0.94109745674E+03  0.78950754635E+02 0.  0.
          5    1    3    3  501    0  0.36842848469E+02 -0.23807228095E+02 -0.17377209795E+03  0.17928472221E+03  0.47000000000E+01 0. -1.
        -11    1    4    4    0    0 -0.19335050533E+02 -0.80957822384E+01 -0.18234856296E+03  0.18354940556E+03  0.00000000000E+00 0.  1.
         12    1    4    4    0    0 -0.54352259603E+02  0.10416524081E+03 -0.42476607142E+03  0.44071621362E+03  0.00000000000E+00 0. -1.
         -5    1    5    5    0  502  0.43791035455E+02  0.34578940421E+02 -0.28613772131E+03  0.29156516161E+03  0.47000000000E+01 0.  1.
         11    1    6    6    0    0 -0.14723491171E+02  0.42436702672E+01 -0.46201168586E+02  0.48675845225E+02  0.00000000000E+00 0. -1.
        -12    1    6    6    0    0  0.77769173839E+01 -0.11108484116E+03 -0.88544678571E+03  0.89242161152E+03  0.00000000000E+00 0.  1.
</event>
<event>
12    1  0.8633375E-002  0.1786051E+03  0.7818608E-02  0.1169869E+00
         21   -1    0    0  501  502  0.00000000000E+00  0.00000000000E+00  0.26621858645E+03  0.26621858645E+03  0.00000000000E+00 0. -1.
         21   -1    0    0  502  503 -0.00000000000E+00 -0.00000000000E+00 -0.33388804764E+03  0.33388804764E+03  0.00000000000E+00 0. -1.
         -6    2    1    2    0  503 -0.33418891490E+02  0.15229352892E+02 -0.27525806000E+03  0.32812614778E+03  0.17478848292E+03 0.  0.
        -24    2    3    3    0    0  0.33135412348E+02 -0.34597105789E+02 -0.12776347064E+03  0.15874818216E+03  0.81133011960E+02 0.  0.
          6    2    1    2  501    0  0.33418891490E+02 -0.15229352892E+02  0.20758859881E+03  0.27198048631E+03  0.17184761587E+03 0.  0.
         24    2    5    5    0    0 -0.25293478692E+02  0.30826125268E+02  0.65059356113E+02  0.11103041795E+03  0.80653727928E+02 0.  0.
          5    1    5    5  501    0  0.58712370183E+02 -0.46055478160E+02  0.14252924270E+03  0.16095006836E+03  0.47000000000E+01 0. -1.
        -13    1    6    6    0    0  0.20575761097E+02  0.26451456163E+02  0.28745881463E+01  0.33634873790E+02  0.00000000000E+00 0.  1.
         14    1    6    6    0    0 -0.45869239789E+02  0.43746691054E+01  0.62184767967E+02  0.77395544159E+02  0.00000000000E+00 0. -1.
         -5    1    3    3    0  503 -0.66554303839E+02  0.49826458681E+02 -0.14749458937E+03  0.16937796562E+03  0.47000000000E+01 0.  1.
         13    1    4    4    0    0  0.64156411934E+01  0.85456239544E+01 -0.10064350534E+03  0.10120920565E+03  0.00000000000E+00 0. -1.
        -14    1    4    4    0    0  0.26719771155E+02 -0.43142729744E+02 -0.27119965293E+02  0.57538976510E+02  0.00000000000E+00 0.  1.
</event>
<event>
12    1  0.8633375E-002  0.2006892E+03  0.7818608E-02  0.1150935E+00
         21   -1    0    0  501  502  0.00000000000E+00  0.00000000000E+00  0.55004786685E+03  0.55004786685E+03  0.00000000000E+00 0.  1.
         21   -1    0    0  502  503 -0.00000000000E+00 -0.00000000000E+00 -0.23440239166E+03  0.23440239166E+03  0.00000000000E+00 0. -1.
         -6    2    1    2    0  503  0.50182625769E+02 -0.69069373004E+02 -0.16940343892E+03  0.26262844169E+03  0.18162405967E+03 0.  0.
        -24    2    3    3    0    0 -0.17938967837E+01 -0.54887021860E+02 -0.18267330757E+03  0.20694291938E+03  0.80249805900E+02 0.  0.
          6    2    1    2  501    0 -0.50182625769E+02  0.69069373004E+02  0.48504891411E+03  0.52182181682E+03  0.17244328115E+03 0.  0.
         24    2    5    5    0    0 -0.70786419654E+02 -0.58672766532E+01  0.35747295636E+03  0.37236368629E+03  0.76306344417E+02 0.  0.
          5    1    5    5  501    0  0.20603793885E+02  0.74936649658E+02  0.12757595775E+03  0.14945813052E+03  0.47000000000E+01 0. -1.
        -11    1    6    6    0    0  0.14870304544E+02  0.87304461990E+01  0.52996527508E+02  0.55731306965E+02  0.00000000000E+00 0.  1.
         12    1    6    6    0    0 -0.85656724198E+02 -0.14597722852E+02  0.30447642885E+03  0.31663237933E+03  0.00000000000E+00 0. -1.
         -5    1    3    3    0  503  0.51976522553E+02 -0.14182351144E+02  0.13269868656E+02  0.55685522309E+02  0.47000000000E+01 0.  1.
         13    1    4    4    0    0  0.30625850887E+02 -0.56960009827E+02 -0.12559428771E+03  0.14126680632E+03  0.00000000000E+00 0. -1.
        -14    1    4    4    0    0 -0.32419747671E+02  0.20729879666E+01 -0.57079019860E+02  0.65676113057E+02  0.00000000000E+00 0.  1.
</event>
<event>
12    1  0.8633375E-002  0.2317793E+03  0.7818608E-02  0.1125681E+00
         21   -1    0    0  501  502  0.00000000000E+00  0.00000000000E+00  0.17043622877E+03  0.17043622877E+03  0.00000000000E+00 0.  1.
         21   -1    0    0  502  503 -0.00000000000E+00 -0.00000000000E+00 -0.34213511752E+03  0.34213511752E+03  0.00000000000E+00 0. -1.
         -6    2    1    2    0  503  0.15139270853E+03  0.20716222044E+02 -0.16039919581E+03  0.28051680703E+03  0.17208388350E+03 0.  0.
        -24    2    3    3    0    0  0.60127699519E+02 -0.48992708018E+02 -0.51526445253E+02  0.12220065936E+03  0.79135332813E+02 0.  0.
          6    2    1    2  501    0 -0.15139270853E+03 -0.20716222044E+02 -0.11299692943E+02  0.23205453925E+03  0.17427768668E+03 0.  0.
         24    2    5    5    0    0 -0.36721022820E+02  0.16559282534E+02 -0.51165735449E+02  0.10497011814E+03  0.82329519996E+02 0.  0.
          5    1    5    5  501    0 -0.11467168571E+03 -0.37275504578E+02  0.39866042505E+02  0.12708442111E+03  0.47000000000E+01 0. -1.
        -11    1    6    6    0    0 -0.46708466745E+02 -0.22107770851E+02 -0.27254325700E+02  0.58422877943E+02  0.00000000000E+00 0.  1.
         12    1    6    6    0    0  0.99874439254E+01  0.38667053385E+02 -0.23911409748E+02  0.46547240195E+02  0.00000000000E+00 0. -1.
         -5    1    3    3    0  503  0.91265009010E+02  0.69708930062E+02 -0.10887275056E+03  0.15831614767E+03  0.47000000000E+01 0.  1.
         13    1    4    4    0    0  0.63993315521E+02 -0.37882421222E+02 -0.68794812225E+02  0.10130621135E+03  0.00000000000E+00 0. -1.
        -14    1    4    4    0    0 -0.38656160020E+01 -0.11110286796E+02  0.17268366972E+02  0.20894448010E+02  0.00000000000E+00 0.  1.
</event>
<event>
12    1  0.8633375E-002  0.2037618E+03  0.7818608E-02  0.1146811E+00
         21   -1    0    0  503  502  0.00000000000E+00  0.00000000000E+00  0.20154133589E+02  0.20154133589E+02  0.00000000000E+00 0. -1.
         21   -1    0    0  501  503 -0.00000000000E+00 -0.00000000000E+00 -0.20596661601E+04  0.20596661601E+04  0.00000000000E+00 0.  1.
          6    2    1    2  501    0 -0.73854689660E+02  0.78915161592E+02 -0.10888010445E+04  0.11075187654E+04  0.17154586343E+03 0.  0.
         24    2    3    3    0    0 -0.64598320731E+02  0.10210094448E+03 -0.10560022818E+04  0.10660325059E+04  0.81773703002E+02 0.  0.
         -6    2    1    2    0  502  0.73854689660E+02 -0.78915161592E+02 -0.95071098199E+03  0.97230152829E+03  0.17273324148E+03 0.  0.
        -24    2    5    5    0    0  0.13232103272E+02 -0.65605553693E+02 -0.28487915854E+03  0.30356664004E+03  0.80730370611E+02 0.  0.
          5    1    3    3  501    0 -0.92563689294E+01 -0.23185782891E+02 -0.32798762720E+02  0.41486259532E+02  0.47000000000E+01 0. -1.
        -11    1    4    4    0    0 -0.56064963113E+02  0.48547892908E+02 -0.34074435242E+03  0.34872179699E+03  0.00000000000E+00 0.  1.
         12    1    4    4    0    0 -0.85333576184E+01  0.53553051575E+02 -0.71525792940E+03  0.71731070889E+03  0.00000000000E+00 0. -1.
         -5    1    5    5    0  502  0.60622586388E+02 -0.13309607899E+02 -0.66583182345E+03  0.66873488825E+03  0.47000000000E+01 0.  1.
         11    1    6    6    0    0 -0.31170888427E+01  0.12589852117E+02 -0.76522345903E+01  0.15059127246E+02  0.00000000000E+00 0. -1.
        -12    1    6    6    0    0  0.16349192115E+02 -0.78195405810E+02 -0.27722692395E+03  0.28850751279E+03  0.00000000000E+00 0.  1.
</event>
<event>
12    1  0.8633375E-002  0.2673848E+03  0.7818608E-02  0.1102987E+00
         21   -1    0    0  503  502  0.00000000000E+00  0.00000000000E+00  0.36171322290E+03  0.36171322290E+03  0.00000000000E+00 0.  1.
         21   -1    0    0  501  503 -0.00000000000E+00 -0.00000000000E+00 -0.38781548804E+03  0.38781548804E+03  0.00000000000E+00 0.  1.
          6    2    1    2  501    0  0.52778681765E+01 -0.20357032092E+03 -0.27619613797E+03  0.38442024514E+03  0.17327979338E+03 0.  0.
         24    2    3    3    0    0 -0.22985615210E+02 -0.21207627167E+03 -0.20207535366E+03  0.30450055822E+03  0.79884027740E+02 0.  0.
         -6    2    1    2    0  502 -0.52778681765E+01  0.20357032092E+03  0.25009387283E+03  0.36510846580E+03  0.17113887671E+03 0.  0.
        -24    2    5    5    0    0  0.89941076205E+00  0.21806420398E+03  0.17990220876E+03  0.29301691895E+03  0.77079855203E+02 0.  0.
          5    1    3    3  501    0  0.28263483387E+02  0.85059507475E+01 -0.74120784308E+02  0.79919686922E+02  0.47000000000E+01 0. -1.
        -11    1    4    4    0    0 -0.96526467683E+01 -0.84231345142E+02 -0.13525660518E+03  0.15963220959E+03  0.00000000000E+00 0.  1.
         12    1    4    4    0    0 -0.13332968442E+02 -0.12784492652E+03 -0.66818748479E+02  0.14486834863E+03  0.00000000000E+00 0. -1.
         -5    1    5    5    0  502 -0.61772789385E+01 -0.14493883064E+02  0.70191664079E+02  0.72091546852E+02  0.47000000000E+01 0.  1.
         11    1    6    6    0    0 -0.31700400582E+02  0.80526009161E+02  0.93257546483E+02  0.12722548300E+03  0.00000000000E+00 0. -1.
        -12    1    6    6    0    0  0.32599811344E+02  0.13753819482E+03  0.86644662272E+02  0.16579143595E+03  0.00000000000E+00 0.  1.
</event>
<event>
12    1  0.8633375E-002  0.3220857E+03  0.7818608E-02  0.1074826E+00
         21   -1    0    0  503  502  0.00000000000E+00  0.00000000000E+00  0.97092187387E+03  0.97092187387E+03  0.00000000000E+00 0. -1.
         21   -1    0    0  501  503 -0.00000000000E+00 -0.00000000000E+00 -0.11441556591E+03  0.11441556591E+03  0.00000000000E+00 0.  1.
          6    2    1    2  501    0  0.17620753908E+03  0.20568668975E+03  0.28444480506E+03  0.42883644273E+03  0.17215033058E+03 0.  0.
         24    2    3    3    0    0  0.16825677768E+03  0.15956365564E+03  0.15238313662E+03  0.28864755889E+03  0.79535460580E+02 0.  0.
         -6    2    1    2    0  502 -0.17620753908E+03 -0.20568668975E+03  0.57206150289E+03  0.65650099705E+03  0.17430744352E+03 0.  0.
        -24    2    5    5    0    0 -0.17187984693E+03 -0.96267640310E+02  0.39292873460E+03  0.44649648287E+03  0.78460043263E+02 0.  0.
          5    1    3    3  501    0  0.79507614014E+01  0.46123034112E+02  0.13206166844E+03  0.14018888384E+03  0.47000000000E+01 0. -1.
        -13    1    4    4    0    0  0.22180122829E+02  0.36469356696E+02 -0.24480614201E+01  0.42754705370E+02  0.00000000000E+00 0.  1.
         14    1    4    4    0    0  0.14607665485E+03  0.12309429894E+03  0.15483119804E+03  0.24589285352E+03  0.00000000000E+00 0. -1.
         -5    1    5    5    0  502 -0.43276921525E+01 -0.10941904944E+03  0.17913276829E+03  0.21000451418E+03  0.47000000000E+01 0.  1.
         11    1    6    6    0    0 -0.96721044258E+02 -0.38253715656E+02  0.28151620642E+03  0.30011611359E+03  0.00000000000E+00 0. -1.
        -12    1    6    6    0    0 -0.75158802672E+02 -0.58013924654E+02  0.11141252818E+03  0.14638036928E+03  0.00000000000E+00 0.  1.
</event>
<event>
12    1  0.8633375E-002  0.1942052E+03  0.7818608E-02  0.1155198E+00
         21   -1    0    0  503  502  0.00000000000E+00  0.00000000000E+00  0.12475780096E+04  0.12475780096E+04  0.00000000000E+00 0. -1.
         21   -1    0    0  501  503 -0.00000000000E+00 -0.00000000000E+00 -0.25772725300E+03  0.25772725300E+03  0.00000000000E+00 0. -1.
          6    2    1    2  501    0  0.17204940084E+02 -0.85964537586E+02 -0.21240638997E+03  0.28780569168E+03  0.17329088257E+03 0.  0.
         24    2    3    3    0    0  0.46421086100E+02  0.73153360010E+01 -0.72280025440E+02  0.11688990529E+03  0.78932987433E+02 0.  0.
         -6    2    1    2    0  502 -0.17204940084E+02  0.85964537586E+02  0.12022571466E+04  0.12174995709E+04  0.17087143420E+03 0.  0.
        -24    2    5    5    0    0 -0.18638928027E+02  0.65498113108E+02  0.11865641068E+04  0.11912451932E+04  0.80581129086E+02 0.  0.
          5    1    3    3  501    0 -0.29216146016E+02 -0.93279873587E+02 -0.14012636453E+03  0.17091578640E+03  0.47000000000E+01 0. -1.
        -13    1    4    4    0    0  0.15592687427E+02 -0.34788838490E+02 -0.41287294498E+02  0.56196404437E+02  0.00000000000E+00 0.  1.
         14    1    4    4    0    0  0.30828398673E+02  0.42104174491E+02 -0.30992730942E+02  0.60693500851E+02  0.00000000000E+00 0. -1.
         -5    1    5    5    0  502  0.14339879432E+01  0.20466424477E+02  0.15693039824E+02  0.26254377754E+02  0.47000000000E+01 0.  1.
         13    1    6    6    0    0 -0.47237049131E+02  0.48744409358E+02  0.61814443932E+03  0.62186003579E+03  0.00000000000E+00 0. -1.
        -14    1    6    6    0    0  0.28598121104E+02  0.16753703750E+02  0.56841966745E+03  0.56938515740E+03  0.00000000000E+00 0.  1.
</event>
<event>
12    1  0.8633375E-002  0.2032052E+03  0.7818608E-02  0.1147262E+00
         21   -1    0    0  501  502  0.00000000000E+00  0.00000000000E+00  0.14900370523E+03  0.14900370523E+03  0.00000000000E+00 0. -1.
         21   -1    0    0  502  503 -0.00000000000E+00 -0.00000000000E+00 -0.28988114818E+03  0.28988114818E+03  0.00000000000E+00 0. -1.
         -6    2    1    2    0  503  0.13201802777E+02  0.10663098898E+03 -0.22255121780E+02  0.20442026724E+03  0.17247579484E+03 0.  0.
        -24    2    3    3    0    0 -0.69376417510E+01  0.14589619552E+02  0.40802169372E+02  0.90949906004E+02  0.79662290357E+02 0.  0.
          6    2    1    2  501    0 -0.13201802777E+02 -0.10663098898E+03 -0.11862232117E+03  0.23446458616E+03  0.17134156436E+03 0.  0.
         24    2    5    5    0    0 -0.73855104160E+02 -0.53483983263E+02 -0.82786043158E+02  0.14609176225E+03  0.78575830754E+02 0.  0.
          5    1    5    5  501    0  0.60653301383E+02 -0.53147005715E+02 -0.35836278012E+02  0.88372823916E+02  0.47000000000E+01 0. -1.
        -13    1    6    6    0    0 -0.14676112421E+02 -0.17363005646E+02 -0.72525066960E+02  0.76004918120E+02  0.00000000000E+00 0.  1.
         14    1    6    6    0    0 -0.59178991738E+02 -0.36120977617E+02 -0.10260976198E+02  0.70086844127E+02  0.00000000000E+00 0. -1.
         -5    1    3    3    0  503  0.20139444528E+02  0.92041369426E+02 -0.63057291152E+02  0.11347036124E+03  0.47000000000E+01 0.  1.
         13    1    4    4    0    0 -0.33459473272E+02  0.32423385599E+02  0.12450695807E+02  0.48226881626E+02  0.00000000000E+00 0. -1.
        -14    1    4    4    0    0  0.26521831521E+02 -0.17833766047E+02  0.28351473565E+02  0.42723024378E+02  0.00000000000E+00 0.  1.
</event>
<event>
12    1  0.8633375E-002  0.4496750E+03  0.7818608E-02  0.1027845E+00
         21   -1    0    0  503  502  0.00000000000E+00  0.00000000000E+00  0.18879074562E+03  0.18879074562E+03  0.00000000000E+00 0. -1.
         21   -1    0    0  501  503 -0.00000000000E+00 -0.00000000000E+00 -0.12233939947E+04  0.12233939947E+04  0.00000000000E+00 0. -1.
          6    2    1    2  501    0  0.11346613433E+03  0.39917175996E+03 -0.76731980852E+03  0.88937464598E+03  0.17319040037E+03 0.  0.
         24    2    3    3    0    0  0.98677273008E+02  0.32189166119E+03 -0.48314295594E+03  0.59446873280E+03  0.81329654219E+02 0.  0.
         -6    2    1    2    0  502 -0.11346613433E+03 -0.39917175996E+03 -0.26728344057E+03  0.52281009435E+03  0.17227100615E+03 0.  0.
        -24    2    5    5    0    0 -0.49980035160E+02 -0.35172843357E+03 -0.18505513011E+03  0.40850813003E+03  0.80141101927E+02 0.  0.
          5    1    3    3  501    0  0.14788861325E+02  0.77280098771E+02 -0.28417685258E+03  0.29490591318E+03  0.47000000000E+01 0. -1.
        -13    1    4    4    0    0  0.92817385643E+02  0.19039147194E+03 -0.25955971092E+03  0.33501525816E+03  0.00000000000E+00 0.  1.
         14    1    4    4    0    0  0.58598873642E+01  0.13150018924E+03 -0.22358324502E+03  0.25945347464E+03  0.00000000000E+00 0. -1.
         -5    1    5    5    0  502 -0.63486099172E+02 -0.47443326385E+02 -0.82228310457E+02  0.11430196432E+03  0.47000000000E+01 0.  1.
         13    1    6    6    0    0 -0.23457368474E+02 -0.66438786367E+02 -0.71278186200E+02  0.10022444960E+03  0.00000000000E+00 0. -1.
        -14    1    6    6    0    0 -0.26522666686E+02 -0.28528964721E+03 -0.11377694391E+03  0.30828368043E+03  0.00000000000E+00 0.  1.
</event>
<event>
12    1  0.8633375E-002  0.4265994E+03  0.7818608E-02  0.1034972E+00
         21   -1    0    0  501  502  0.00000000000E+00  0.00000000000E+00  0.12782000804E+03  0.12782000804E+03  0.00000000000E+00 0. -1.
         21   -1    0    0  502  503 -0.00000000000E+00 -0.00000000000E+00 -0.14369626044E+04  0.14369626044E+04  0.00000000000E+00 0.  1.
         -6    2    1    2    0  503  0.38542907228E+03  0.57981196842E+02 -0.73361318562E+03  0.84863145228E+03  0.17340601698E+03 0.  0.
        -24    2    3    3    0    0  0.69531815726E+02 -0.96306767418E+01 -0.18376398973E+03  0.21088646377E+03  0.76003114044E+02 0.  0.
          6    2    1    2  501    0 -0.38542907228E+03 -0.57981196842E+02 -0.57552941073E+03  0.71615116015E+03  0.17239777441E+03 0.  0.
         24    2    5    5    0    0 -0.23256988855E+03 -0.42681473063E+02 -0.23699976599E+03  0.34436570862E+03  0.80674599428E+02 0.  0.
          5    1    5    5  501    0 -0.15285918374E+03 -0.15299723778E+02 -0.33852964474E+03  0.37178545153E+03  0.47000000000E+01 0. -1.
        -11    1    6    6    0    0 -0.84498220762E+02 -0.11948231482E+02 -0.14231995848E+03  0.16594481049E+03  0.00000000000E+00 0.  1.
         12    1    6    6    0    0 -0.14807166779E+03 -0.30733241581E+02 -0.94679807507E+02  0.17842089813E+03  0.00000000000E+00 0. -1.
         -5    1    3    3    0  503  0.31589725656E+03  0.67611873584E+02 -0.54984919589E+03  0.63774498851E+03  0.47000000000E+01 0.  1.
         11    1    4    4    0    0  0.10367315121E+02 -0.32785411006E+02 -0.10004417839E+03  0.10578847776E+03  0.00000000000E+00 0. -1.
        -12    1    4    4    0    0  0.59164500605E+02  0.23154734264E+02 -0.83719811348E+02  0.10509798601E+03  0.00000000000E+00 0.  1.
</event>
<event>
12    1  0.8633375E-002  0.2273408E+03  0.7818608E-02  0.1128732E+00
         21   -1    0    0  501  502  0.00000000000E+00  0.00000000000E+00  0.18935138330E+03  0.18935138330E+03  0.00000000000E+00 0.  1.
         21   -1    0    0  502  503 -0.00000000000E+00 -0.00000000000E+00 -0.39553547709E+03  0.39553547709E+03  0.00000000000E+00 0. -1.
         -6    2    1    2    0  503  0.12116365109E+03 -0.84424937115E+02 -0.26699120328E+03  0.35066815074E+03  0.17284573748E+03 0.  0.
        -24    2    3    3    0    0  0.41633209766E+01 -0.47545510851E+01 -0.54784793238E+02  0.95540539302E+02  0.78017190942E+02 0.  0.
          6    2    1    2  501    0 -0.12116365109E+03  0.84424937115E+02  0.60807109488E+02  0.23421870965E+03  0.17132629405E+03 0.  0.
         24    2    5    5    0    0 -0.76770381055E+02  0.12396294805E+03  0.37846848962E+02  0.17031815960E+03  0.79469413074E+02 0.  0.
          5    1    5    5  501    0 -0.44393270033E+02 -0.39538010939E+02  0.22960260526E+02  0.63900550050E+02  0.47000000000E+01 0. -1.
        -13    1    6    6    0    0 -0.30697535552E+02  0.62282938295E+02  0.58292628049E+02  0.90661643359E+02  0.00000000000E+00 0.  1.
         14    1    6    6    0    0 -0.46072845503E+02  0.61680009760E+02 -0.20445779087E+02  0.79656516238E+02  0.00000000000E+00 0. -1.
         -5    1    3    3    0  503  0.11700033011E+03 -0.79670386030E+02 -0.21220641004E+03  0.25512761144E+03  0.47000000000E+01 0.  1.
         11    1    4    4    0    0  0.24629970347E+02  0.15598596835E+02 -0.59533284117E+02  0.66288487539E+02  0.00000000000E+00 0. -1.
        -12    1    4    4    0    0 -0.20466649370E+02 -0.20353147920E+02  0.47484908790E+01  0.29252051763E+02  0.00000000000E+00 0.  1.
</event>
<event>
12    1  0.8633375E-002  0.1819855E+03  0.7818608E-02  0.1166290E+00
         21   -1    0    0  501  502  0.00000000000E+00  0.00000000000E+00  0.38641139380E+04  0.38641139380E+04  0.00000000000E+00 0. -1.
         21   -1    0    0  502  503 -0.00000000000E+00 -0.00000000000E+00 -0.11284400190E+02  0.11284400190E+02  0.00000000000E+00 0. -1.
         -6    2    1    2    0  503 -0.47618081041E+02  0.25000384284E+02  0.95615359495E+03  0.97301134901E+03  0.17213043689E+03 0.  0.
        -24    2    3    3    0    0 -0.19451755294E+02 -0.10422078766E+02  0.22704809432E+03  0.24248755484E+03  0.82233731571E+02 0.  0.
          6    2    1    2  501    0  0.47618081041E+02 -0.25000384284E+02  0.28966759428E+04  0.29023869891E+04  0.17385688418E+03 0.  0.
         24    2    5    5    0    0 -0.34335353736E+02 -0.44120916660E+02  0.15554756060E+04  0.15585408693E+04  0.80123084883E+02 0.  0.
          5    1    5    5  501    0  0.81953434777E+02  0.19120532377E+02  0.13412003368E+04  0.13438461198E+04  0.47000000000E+01 0. -1.
        -11    1    6    6    0    0 -0.51123863908E+02 -0.13142065570E+02  0.57094529333E+03  0.57338023277E+03  0.00000000000E+00 0.  1.
         12    1    6    6    0    0  0.16788510172E+02 -0.30978851090E+02  0.98453031267E+03  0.98516063657E+03  0.00000000000E+00 0. -1.
         -5    1    3    3    0  503 -0.28166325747E+02  0.35422463049E+02  0.72910550063E+03  0.73052379417E+03  0.47000000000E+01 0.  1.
         13    1    4    4    0    0 -0.47672628838E+02 -0.23240251678E+02  0.16139261990E+03  0.16988339117E+03  0.00000000000E+00 0. -1.
        -14    1    4    4    0    0  0.28220873544E+02  0.12818172912E+02  0.65655474421E+02  0.72604163667E+02  0.00000000000E+00 0.  1.
</event>
<event>
12    1  0.8633375E-002  0.2326225E+03  0.7818608E-02  0.1125229E+00
         21   -1    0    0  501  502  0.00000000000E+00  0.00000000000E+00  0.11502062529E+04  0.11502062529E+04  0.00000000000E+00 0.  1.
         21   -1    0    0  502  503 -0.00000000000E+00 -0.00000000000E+00 -0.14203422906E+03  0.14203422906E+03  0.00000000000E+00 0. -1.
         -6    2    1    2    0  503  0.14270279331E+03  0.64990986216E+02 -0.24787960083E+02  0.23393950024E+03  0.17182936681E+03 0.  0.
        -24    2    3    3    0    0  0.97556037202E+01  0.54267879247E+02  0.70708788994E+00  0.98064455754E+02  0.81092311517E+02 0.  0.
          6    2    1    2  501    0 -0.14270279331E+03 -0.64990986216E+02  0.10329599839E+04  0.10583009817E+04  0.16854294406E+03 0.  0.
         24    2    5    5    0    0 -0.13976595094E+02 -0.17527939824E+02  0.55042146659E+03  0.55661513819E+03  0.79712278172E+02 0.  0.
          5    1    5    5  501    0 -0.12872619822E+03 -0.47463046392E+02  0.48253851734E+03  0.50168584353E+03  0.47000000000E+01 0. -1.
        -13    1    6    6    0    0 -0.37063813597E+02 -0.36709703344E+02  0.31545973467E+03  0.31974391753E+03  0.00000000000E+00 0.  1.
         14    1    6    6    0    0  0.23087218504E+02  0.19181763519E+02  0.23496173192E+03  0.23687122066E+03  0.00000000000E+00 0. -1.
         -5    1    3    3    0  503  0.13294718959E+03  0.10723106969E+02 -0.25495047973E+02  0.13587504449E+03  0.47000000000E+01 0.  1.
         11    1    4    4    0    0  0.39737798509E+02  0.85896182438E+01  0.11752321405E+02  0.42320104327E+02  0.00000000000E+00 0. -1.
        -12    1    4    4    0    0 -0.29982194788E+02  0.45678261003E+02 -0.11045233515E+02  0.55744351426E+02  0.00000000000E+00 0.  1.
</event>
<event>
12    1  0.8633375E-002  0.1970307E+03  0.7818608E-02  0.1152479E+00
         21   -1    0    0  503  502  0.00000000000E+00  0.00000000000E+00  0.24678579126E+04  0.24678579126E+04  0.00000000000E+00 0.  1.
         21   -1    0    0  501  503 -0.00000000000E+00 -0.00000000000E+00 -0.34332780212E+02  0.34332780212E+02  0.00000000000E+00 0.  1.
          6    2    1    2  501    0  0.73532085382E+02  0.60477621035E+02  0.29530737943E+03  0.35500356260E+03  0.17250093011E+03 0.  0.
         24    2    3    3    0    0 -0.26528143695E+02  0.35218660986E+02  0.15261607831E+03  0.17884181329E+03  0.82150047668E+02 0.  0.
         -6    2    1    2    0  502 -0.73532085382E+02 -0.60477621035E+02  0.21382177529E+04  0.21471871302E+04  0.17138524690E+03 0.  0.
        -24    2    5    5    0    0 -0.22705440682E+02 -0.10125592922E+03  0.15383482298E+04  0.15437703977E+04  0.77093868288E+02 0.  0.
          5    1    3    3  501    0  0.10006022908E+03  0.25258960049E+02  0.14269130112E+03  0.17616174931E+03  0.47000000000E+01 0. -1.
        -11    1    4    4    0    0  0.85602045235E+00  0.17844410823E+02 -0.44923233437E+01  0.18421094910E+02  0.00000000000E+00 0.  1.
         12    1    4    4    0    0 -0.27384164147E+02  0.17374250163E+02  0.15710840166E+03  0.16042071838E+03  0.00000000000E+00 0. -1.
         -5    1    5    5    0  502 -0.50826644700E+02  0.40778308183E+02  0.59986952313E+03  0.60341673246E+03  0.47000000000E+01 0.  1.
         11    1    6    6    0    0  0.14657914145E+01 -0.22394059056E+01  0.58200029645E+03  0.58200645061E+03  0.00000000000E+00 0. -1.
        -12    1    6    6    0    0 -0.24171232097E+02 -0.99016523313E+02  0.95634793335E+03  0.96176394712E+03  0.00000000000E+00 0.  1.
</event>
<event>
12    1  0.8633375E-002  0.2109268E+03  0.7818608E-02  0.1141784E+00
         21   -1    0    0  503  502  0.00000000000E+00  0.00000000000E+00  0.18649270068E+03  0.18649270068E+03  0.00000000000E+00 0. -1.
         21   -1    0    0  501  503 -0.00000000000E+00 -0.00000000000E+00 -0.24917192179E+03  0.24917192179E+03  0.00000000000E+00 0. -1.
          6    2    1    2  501    0 -0.11732673936E+01 -0.12223779825E+03  0.24142953880E+02  0.20756766997E+03  0.16600602253E+03 0.  0.
         24    2    3    3    0    0  0.81620473502E+01 -0.19222573681E+02 -0.33894411196E+02  0.88867584290E+02  0.79451180427E+02 0.  0.
         -6    2    1    2    0  502  0.11732673936E+01  0.12223779825E+03 -0.86822174994E+02  0.22809695251E+03  0.17189145934E+03 0.  0.
        -24    2    5    5    0    0  0.21987004258E+02  0.20437497014E+02 -0.88845512534E+02  0.12406476100E+03  0.81224504825E+02 0.  0.
          5    1    3    3  501    0 -0.93353147438E+01 -0.10301522457E+03  0.58037365076E+02  0.11870008568E+03  0.47000000000E+01 0. -1.
        -13    1    4    4    0    0  0.23464059014E+02 -0.25779241018E+02 -0.53056959847E+02  0.63483638215E+02  0.00000000000E+00 0.  1.
         14    1    4    4    0    0 -0.15302011664E+02  0.65566673366E+01  0.19162548651E+02  0.25383946075E+02  0.00000000000E+00 0. -1.
         -5    1    5    5    0  502 -0.20813736864E+02  0.10180030124E+03  0.20233375394E+01  0.10403219151E+03  0.47000000000E+01 0.  1.
         13    1    6    6    0    0  0.18943769722E+02  0.48026615195E+02 -0.79470036924E+02  0.94767657706E+02  0.00000000000E+00 0. -1.
        -14    1    6    6    0    0  0.30432345357E+01 -0.27589118181E+02 -0.93754756099E+01  0.29297103293E+02  0.00000000000E+00 0.  1.
</event>
<event>
12    1  0.8633375E-002  0.1792362E+03  0.7818608E-02  0.1168582E+00
         21   -1    0    0  503  502  0.00000000000E+00  0.00000000000E+00  0.45730443942E+03  0.45730443942E+03  0.00000000000E+00 0. -1.
         21   -1    0    0  501  503 -0.00000000000E+00 -0.00000000000E+00 -0.85510334364E+02  0.85510334364E+02  0.00000000000E+00 0. -1.
          6    2    1    2  501    0  0.17885201497E+02 -0.47068918833E+02  0.30071478880E+03  0.34999909185E+03  0.17185638348E+03 0.  0.
         24    2    3    3    0    0  0.18748002054E+02  0.39442785970E+02  0.12588683387E+03  0.15487881275E+03  0.78947645631E+02 0.  0.
         -6    2    1    2    0  502 -0.17885201497E+02  0.47068918833E+02  0.71079316254E+02  0.19281568193E+03  0.17201818057E+03 0.  0.
        -24    2    5    5    0    0 -0.52246766463E+02  0.73760230424E+02  0.14733304644E+02  0.12147070113E+03  0.79798275472E+02 0.  0.
          5    1    3    3  501    0 -0.86280055664E+00 -0.86511704803E+02  0.17482795493E+03  0.19512027911E+03  0.47000000000E+01 0. -1.
        -13    1    4    4    0    0 -0.21382015592E+02 -0.21460028761E+00  0.77996973198E+02  0.80874992873E+02  0.00000000000E+00 0.  1.
         14    1    4    4    0    0  0.40130017646E+02  0.39657386258E+02  0.47889860669E+02  0.74003819874E+02  0.00000000000E+00 0. -1.
         -5    1    5    5    0  502  0.34361564966E+02 -0.26691311591E+02  0.56346011610E+02  0.71344980802E+02  0.47000000000E+01 0.  1.
         11    1    6    6    0    0 -0.41431197917E+02  0.50389657432E+02  0.46842033500E+02  0.80310882447E+02  0.00000000000E+00 0. -1.
        -12    1    6    6    0    0 -0.10815568546E+02  0.23370572992E+02 -0.32108728856E+02  0.41159818679E+02  0.00000000000E+00 0.  1.
</event>
<event>
12    1  0.8633375E-002  0.2529217E+03  0.7818608E-02  0.1111944E+00
         21   -1    0    0  503  502  0.00000000000E+00  0.00000000000E+00  0.49966816948E+03  0.49966816948E+03  0.00000000000E+00 0.  1.
         21   -1    0    0  501  503 -0.00000000000E+00 -0.00000000000E+00 -0.14723752845E+03  0.14723752845E+03  0.00000000000E+00 0. -1.
          6    2    1    2  501    0  0.18071276131E+03  0.71602798897E+01  0.55746046847E+02  0.25899225723E+03  0.17680779354E+03 0.  0.
         24    2    3    3    0    0  0.14276706591E+03 -0.21028240803E+02  0.10041282554E+03  0.19378735237E+03  0.81524109231E+02 0.  0.
         -6    2    1    2    0  502 -0.18071276131E+03 -0.71602798897E+01  0.29668459418E+03  0.38791344071E+03  0.17247236692E+03 0.  0.
        -24    2    5    5    0    0 -0.12695162868E+03  0.51289889725E+02  0.14574557645E+03  0.21729292968E+03  0.85012207487E+02 0.  0.
          5    1    3    3  501    0  0.37945695398E+02  0.28188520692E+02 -0.44666778694E+02  0.65204904854E+02  0.47000000000E+01 0. -1.
        -13    1    4    4    0    0  0.91899229868E+02  0.19462510421E+02  0.85636690287E+02  0.12711373052E+03  0.00000000000E+00 0.  1.
         14    1    4    4    0    0  0.50867836046E+02 -0.40490751224E+02  0.14776135255E+02  0.66673621859E+02  0.00000000000E+00 0. -1.
         -5    1    5    5    0  502 -0.53761132633E+02 -0.58450169615E+02  0.15093901774E+03  0.17062051103E+03  0.47000000000E+01 0.  1.
         13    1    6    6    0    0 -0.61041707287E+02  0.37137049734E+02  0.19319148567E+02  0.74016754812E+02  0.00000000000E+00 0. -1.
        -14    1    6    6    0    0 -0.65909921392E+02  0.14152839991E+02  0.12642642788E+03  0.14327617487E+03  0.00000000000E+00 0.  1.
</event>
<event>
12    1  0.8633375E-002  0.2084518E+03  0.7818608E-02  0.1143258E+00
         21   -1    0    0  501  502  0.00000000000E+00  0.00000000000E+00  0.99912844662E+03  0.99912844662E+03  0.00000000000E+00 0.  1.
         21   -1    0    0  502  503 -0.00000000000E+00 -0.00000000000E+00 -0.49494892402E+02  0.49494892402E+02  0.00000000000E+00 0.  1.
         -6    2    1    2    0  503 -0.76372786945E+02 -0.89622276409E+02  0.28736953383E+03  0.35501183977E+03  0.17200930901E+03 0.  0.
        -24    2    3    3    0    0 -0.23245444776E+02  0.13915736481E+02  0.12062570340E+03  0.15162002679E+03  0.87772853315E+02 0.  0.
          6    2    1    2  501    0  0.76372786945E+02  0.89622276409E+02  0.66226402039E+03  0.69361149925E+03  0.16922861514E+03 0.  0.
         24    2    5    5    0    0  0.19727835345E+02  0.98893785501E+02  0.57460411098E+03  0.58872603248E+03  0.79115666395E+02 0.  0.
          5    1    5    5  501    0  0.56644951600E+02 -0.92715090920E+01  0.87659909405E+02  0.10488546677E+03  0.47000000000E+01 0. -1.
        -11    1    6    6    0    0  0.20666755268E+02  0.20336096441E+02  0.34170802233E+03  0.34293591838E+03  0.00000000000E+00 0.  1.
         12    1    6    6    0    0 -0.93891992315E+00  0.78557689060E+02  0.23289608865E+03  0.24579011410E+03  0.00000000000E+00 0. -1.
         -5    1    3    3    0  503 -0.53127342169E+02 -0.10353801289E+03  0.16674383043E+03  0.20339181298E+03  0.47000000000E+01 0.  1.
         13    1    4    4    0    0  0.22539914759E+02 -0.46652806774E+01  0.19876356209E+01  0.23103317868E+02  0.00000000000E+00 0. -1.
        -14    1    4    4    0    0 -0.45785359535E+02  0.18581017158E+02  0.11863806778E+03  0.12851670893E+03  0.00000000000E+00 0.  1.
</event>
<event>
12    1  0.8633375E-002  0.1752142E+03  0.7818608E-02  0.1172727E+00
         21   -1    0    0  501  502  0.00000000000E+00  0.00000000000E+00  0.38683067645E+03  0.38683067645E+03  0.00000000000E+00 0. -1.
         21   -1    0    0  502  503 -0.00000000000E+00 -0.00000000000E+00 -0.79991611382E+02  0.79991611382E+02  0.00000000000E+00 0. -1.
         -6    2    1    2    0  503  0.34433421528E+02 -0.38834698008E+00  0.17924315261E+03  0.25007189670E+03  0.17094453612E+03 0.  0.
        -24    2    3    3    0    0  0.59540631336E+02 -0.23801959216E+02  0.18910454224E+03  0.21404543104E+03  0.77092792228E+02 0.  0.
          6    2    1    2  501    0 -0.34433421528E+02  0.38834698008E+00  0.12759591245E+03  0.21675039113E+03  0.17179698440E+03 0.  0.
         24    2    5    5    0    0  0.60758506694E+01  0.34109505542E+02  0.97072431250E+01  0.87529858613E+02  0.79792676669E+02 0.  0.
          5    1    5    5  501    0 -0.40509272197E+02 -0.33721158562E+02  0.11788866933E+03  0.12922053252E+03  0.47000000000E+01 0. -1.
        -11    1    6    6    0    0 -0.48172838201E+01 -0.17318739075E+02  0.26783407078E+02  0.32256717769E+02  0.00000000000E+00 0.  1.
         12    1    6    6    0    0  0.10893134490E+02  0.51428244617E+02 -0.17076163953E+02  0.55273140844E+02  0.00000000000E+00 0. -1.
         -5    1    3    3    0  503 -0.25107209809E+02  0.23413612236E+02 -0.98613896238E+01  0.36026465655E+02  0.47000000000E+01 0.  1.
         11    1    4    4    0    0  0.37579129509E+02  0.63460423381E+01  0.16566663011E+03  0.16999381036E+03  0.00000000000E+00 0. -1.
        -12    1    4    4    0    0  0.21961501828E+02 -0.30148001554E+02  0.23437912129E+02  0.44051620687E+02  0.00000000000E+00 0.  1.
</event>
<event>
12    1  0.8633375E-002  0.1925726E+03  0.7818608E-02  0.1156383E+00
         21   -1    0    0  503  502  0.00000000000E+00  0.00000000000E+00  0.20733803718E+03  0.20733803718E+03  0.00000000000E+00 0.  1.
         21   -1    0    0  501  503 -0.00000000000E+00 -0.00000000000E+00 -0.18196842450E+03  0.18196842450E+03  0.00000000000E+00 0.  1.
          6    2    1    2  501    0  0.17555889498E+02 -0.89215478337E+02  0.41698719219E+02  0.19703546072E+03  0.16975446611E+03 0.  0.
         24    2    3    3    0    0  0.41755599998E+02 -0.12184241024E+03  0.31078033413E+02  0.15478582592E+03  0.80023150915E+02 0.  0.
         -6    2    1    2    0  502 -0.17555889498E+02  0.89215478337E+02 -0.16329106542E+02  0.19227100096E+03  0.16862350744E+03 0.  0.
        -24    2    5    5    0    0 -0.16588145639E+02  0.34181022438E+02  0.53982525376E+02  0.10285319822E+03  0.78874320712E+02 0.  0.
          5    1    3    3  501    0 -0.24199710500E+02  0.32626931900E+02  0.10620685806E+02  0.42249634796E+02  0.47000000000E+01 0. -1.
        -11    1    4    4    0    0 -0.74965132438E+01 -0.75383674816E+02  0.41347609737E+02  0.86304814296E+02  0.00000000000E+00 0.  1.
         12    1    4    4    0    0  0.49252113242E+02 -0.46458735420E+02 -0.10269576324E+02  0.68481011627E+02  0.00000000000E+00 0. -1.
         -5    1    5    5    0  502 -0.96774385898E+00  0.55034455899E+02 -0.70311631918E+02  0.89417802742E+02  0.47000000000E+01 0.  1.
         13    1    6    6    0    0 -0.17747455300E+02 -0.18763573812E+02  0.40787253314E+02  0.48276742897E+02  0.00000000000E+00 0. -1.
        -14    1    6    6    0    0  0.11593096606E+01  0.52944596250E+02  0.13195272062E+02  0.54576455324E+02  0.00000000000E+00 0.  1.
</event>
<event>
12    1  0.8633375E-002  0.2070704E+03  0.7818608E-02  0.1143927E+00
         21   -1    0    0  503  502  0.00000000000E+00  0.00000000000E+00  0.74939459267E+03  0.74939459267E+03  0.00000000000E+00 0.  1.
         21   -1    0    0  501  503 -0.00000000000E+00 -0.00000000000E+00 -0.15895178938E+03  0.15895178938E+03  0.00000000000E+00 0.  1.
          6    2    1    2  501    0 -0.11426156800E+03  0.33644605356E+01 -0.68150034520E+02  0.21799671743E+03  0.17265895890E+03 0.  0.
         24    2    3    3    0    0 -0.77828101733E+02 -0.74940607047E+02 -0.37637424446E+02  0.12627872330E+03  0.53445600709E+02 0.  0.
         -6    2    1    2    0  502  0.11426156800E+03 -0.33644605356E+01  0.65859283782E+03  0.69034966462E+03  0.17254306100E+03 0.  0.
        -24    2    5    5    0    0  0.44336015388E+02  0.61557249095E+02  0.33554022660E+03  0.35346765129E+03  0.81222901117E+02 0.  0.
          5    1    3    3  501    0 -0.36433466271E+02  0.78305067582E+02 -0.30512610075E+02  0.91717994130E+02  0.47000000000E+01 0. -1.
        -13    1    4    4    0    0 -0.50173958067E+02 -0.74445983114E+02 -0.40469709912E+02  0.98475519244E+02  0.00000000000E+00 0.  1.
         14    1    4    4    0    0 -0.27654143666E+02 -0.49462393236E+00  0.28322854668E+01  0.27803204054E+02  0.00000000000E+00 0. -1.
         -5    1    5    5    0  502  0.69925552615E+02 -0.64921709630E+02  0.32305261121E+03  0.33688201332E+03  0.47000000000E+01 0.  1.
         11    1    6    6    0    0  0.38284009427E+02  0.23876077789E+02  0.58838774222E+02  0.74146704717E+02  0.00000000000E+00 0. -1.
        -12    1    6    6    0    0  0.60520059609E+01  0.37681171306E+02  0.27670145238E+03  0.27932094658E+03  0.00000000000E+00 0.  1.
</event>
<event>
12    1  0.8633375E-002  0.1815886E+03  0.7818608E-02  0.1166736E+00
         21   -1    0    0  503  502  0.00000000000E+00  0.00000000000E+00  0.49753736086E+02  0.49753736086E+02  0.00000000000E+00 0.  1.
         21   -1    0    0  501  503 -0.00000000000E+00 -0.00000000000E+00 -0.73896351482E+03  0.73896351482E+03  0.00000000000E+00 0.  1.
          6    2    1    2  501    0  0.32505038978E+02 -0.45491399877E+02 -0.47530125348E+03  0.50812628528E+03  0.17074833881E+03 0.  0.
         24    2    3    3    0    0  0.55930920534E+02 -0.87022588542E+02 -0.32798486586E+03  0.35321398874E+03  0.80528571421E+02 0.  0.
         -6    2    1    2    0  502 -0.32505038978E+02  0.45491399877E+02 -0.21390852525E+03  0.28059096563E+03  0.17276685966E+03 0.  0.
        -24    2    5    5    0    0  0.30224417624E+02  0.98809904922E+01 -0.50855980121E+02  0.10223371611E+03  0.82790413708E+02 0.  0.
          5    1    3    3  501    0 -0.23425881556E+02  0.41531188665E+02 -0.14731638762E+03  0.15491229654E+03  0.47000000000E+01 0. -1.
        -11    1    4    4    0    0  0.39916241634E+02 -0.96087103008E+01 -0.18817760027E+03  0.19260436886E+03  0.00000000000E+00 0.  1.
         12    1    4    4    0    0  0.16014678900E+02 -0.77413878241E+02 -0.13980726559E+03  0.16060961988E+03  0.00000000000E+00 0. -1.
         -5    1    5    5    0  502 -0.62729456602E+02  0.35610409385E+02 -0.16305254513E+03  0.17835724951E+03  0.47000000000E+01 0.  1.
         13    1    6    6    0    0 -0.79111778259E+01 -0.20456256790E+02 -0.48751180628E+02  0.53457672873E+02  0.00000000000E+00 0. -1.
        -14    1    6    6    0    0  0.38135595450E+02  0.30337247282E+02 -0.21047994934E+01  0.48776043237E+02  0.00000000000E+00 0.  1.
</event>
<event>
12    1  0.8633375E-002  0.1862927E+03  0.7818608E-02  0.1163309E+00
         21   -1    0    0  503  502  0.00000000000E+00  0.00000000000E+00  0.58559075057E+03  0.58559075057E+03  0.00000000000E+00 0.  1.
         21   -1    0    0  501  503 -0.00000000000E+00 -0.00000000000E+00 -0.57314177269E+02  0.57314177269E+02  0.00000000000E+00 0.  1.
          6    2    1    2  501    0  0.28708636301E+02 -0.42163793335E+02  0.26281355668E+03  0.31859707932E+03  0.17271700007E+03 0.  0.
         24    2    3    3    0    0  0.20464409395E+01 -0.70009240969E+02  0.78255623570E+02  0.12999707325E+03  0.76614715903E+02 0.  0.
         -6    2    1    2    0  502 -0.28708636301E+02  0.42163793335E+02  0.26546301662E+03  0.32430784852E+03  0.17917308991E+03 0.  0.
        -24    2    5    5    0    0  0.16073486229E+02 -0.38063876758E+01  0.65732529950E+02  0.11446730585E+03  0.92245070698E+02 0.  0.
          5    1    3    3  501    0  0.26662195362E+02  0.27845447634E+02  0.18455793311E+03  0.18860000607E+03  0.47000000000E+01 0. -1.
        -13    1    4    4    0    0 -0.97197387267E+01 -0.18713559107E+02  0.74284586508E+02  0.77219624501E+02  0.00000000000E+00 0.  1.
         14    1    4    4    0    0  0.11766179666E+02 -0.51295681862E+02  0.39710370623E+01  0.52777448754E+02  0.00000000000E+00 0. -1.
         -5    1    5    5    0  502 -0.44782122530E+02  0.45970181011E+02  0.19973048667E+03  0.20984054267E+03  0.47000000000E+01 0.  1.
         11    1    6    6    0    0  0.35818325791E+02 -0.19478844560E+02  0.76787684574E+02  0.86940935986E+02  0.00000000000E+00 0. -1.
        -12    1    6    6    0    0 -0.19744839562E+02  0.15672456884E+02 -0.11055154624E+02  0.27526369863E+02  0.00000000000E+00 0.  1.
</event>
<event>
12    1  0.8633375E-002  0.1965489E+03  0.7818608E-02  0.1152974E+00
         21   -1    0    0  503  502  0.00000000000E+00  0.00000000000E+00  0.22789082048E+03  0.22789082048E+03  0.00000000000E+00 0.  1.
         21   -1    0    0  501  503 -0.00000000000E+00 -0.00000000000E+00 -0.18454887890E+03  0.18454887890E+03  0.00000000000E+00 0.  1.
          6    2    1    2  501    0 -0.90957260865E+02  0.21569417396E+02  0.82807113292E+02  0.21328030912E+03  0.17289594898E+03 0.  0.
         24    2    3    3    0    0 -0.81684158083E+02  0.75719909579E+02  0.36352251577E+02  0.14118030624E+03  0.78769196298E+02 0.  0.
         -6    2    1    2    0  502  0.90957260865E+02 -0.21569417396E+02 -0.39465171716E+02  0.19915939027E+03  0.17137240117E+03 0.  0.
        -24    2    5    5    0    0  0.40263937327E+01  0.21552664169E+01 -0.69525548259E+02  0.10405128062E+03  0.77278781810E+02 0.  0.
          5    1    3    3  501    0 -0.92731027817E+01 -0.54150492184E+02  0.46454861715E+02  0.72100002884E+02  0.47000000000E+01 0. -1.
        -11    1    4    4    0    0 -0.93345828484E+02  0.52736980332E+02  0.41381389504E+02  0.11492193954E+03  0.00000000000E+00 0.  1.
         12    1    4    4    0    0  0.11661670400E+02  0.22982929248E+02 -0.50291379268E+01  0.26258366697E+02  0.00000000000E+00 0. -1.
         -5    1    5    5    0  502  0.86930867132E+02 -0.23724683812E+02  0.30060376544E+02  0.95108109645E+02  0.47000000000E+01 0.  1.
         11    1    6    6    0    0  0.31383455514E+02  0.23198660981E+02 -0.20466816407E+02  0.44068012494E+02  0.00000000000E+00 0. -1.
        -12    1    6    6    0    0 -0.27357061782E+02 -0.21043394565E+02 -0.49058731852E+02  0.59983268126E+02  0.00000000000E+00 0.  1.
</event>
<event>
12    1  0.8633375E-002  0.1932044E+03  0.7818608E-02  0.1156576E+00
         21   -1    0    0  503  502  0.00000000000E+00  0.00000000000E+00  0.17830906872E+03  0.17830906872E+03  0.00000000000E+00 0.  1.
         21   -1    0    0  501  503 -0.00000000000E+00 -0.00000000000E+00 -0.44953525039E+03  0.44953525039E+03  0.00000000000E+00 0.  1.
          6    2    1    2  501    0 -0.19510669441E+02 -0.75116156352E+02 -0.36660033735E+03  0.41238163842E+03  0.17216185755E+03 0.  0.
         24    2    3    3    0    0  0.13246892843E+01 -0.11756879429E+03 -0.28264868836E+03  0.31591243085E+03  0.78014144497E+02 0.  0.
         -6    2    1    2    0  502  0.19510669441E+02  0.75116156352E+02  0.95374155676E+02  0.21546268069E+03  0.17693172138E+03 0.  0.
        -24    2    5    5    0    0 -0.29263566394E+02  0.11793269126E+01 -0.72412200863E+00  0.84685963329E+02  0.79457163946E+02 0.  0.
          5    1    3    3  501    0 -0.20835358725E+02  0.42452637937E+02 -0.83951648987E+02  0.96469207567E+02  0.47000000000E+01 0. -1.
        -13    1    4    4    0    0  0.16940590336E+02 -0.33554491188E+02 -0.17225967680E+03  0.17631302768E+03  0.00000000000E+00 0.  1.
         14    1    4    4    0    0 -0.15615901052E+02 -0.84014303101E+02 -0.11038901156E+03  0.13959940317E+03  0.00000000000E+00 0. -1.
         -5    1    5    5    0  502  0.48774235835E+02  0.73936829439E+02  0.96098277685E+02  0.13077671736E+03  0.47000000000E+01 0.  1.
         11    1    6    6    0    0 -0.21494903983E+01  0.32193726293E+01 -0.38194123713E+02  0.38389787123E+02  0.00000000000E+00 0. -1.
        -12    1    6    6    0    0 -0.27114075995E+02 -0.20400457167E+01  0.37470001705E+02  0.46296176207E+02  0.00000000000E+00 0.  1.
</event>
<event>
12    1  0.8633375E-002  0.1978137E+03  0.7818608E-02  0.1151875E+00
         21   -1    0    0  503  502  0.00000000000E+00  0.00000000000E+00  0.16056115754E+03  0.16056115754E+03  0.00000000000E+00 0. -1.
         21   -1    0    0  501  503 -0.00000000000E+00 -0.00000000000E+00 -0.45645407656E+03  0.45645407656E+03  0.00000000000E+00 0. -1.
          6    2    1    2  501    0 -0.61753989368E+02 -0.72421206754E+02 -0.35909480016E+03  0.40935025020E+03  0.17193069953E+03 0.  0.
         24    2    3    3    0    0 -0.60535197909E+02 -0.86592855905E+02 -0.14916840563E+03  0.19889003492E+03  0.78378567694E+02 0.  0.
         -6    2    1    2    0  502  0.61753989368E+02  0.72421206754E+02  0.63201881142E+02  0.20766498391E+03  0.17341246025E+03 0.  0.
        -24    2    5    5    0    0  0.24251700519E+02  0.96751757117E+02  0.89520190583E+02  0.15557716612E+03  0.79002168402E+02 0.  0.
          5    1    3    3  501    0 -0.12187914592E+01  0.14171649151E+02 -0.20992639453E+03  0.21046021527E+03  0.47000000000E+01 0. -1.
        -11    1    4    4    0    0  0.12157448683E+02 -0.21166773287E+02 -0.66478024738E+02  0.70817819954E+02  0.00000000000E+00 0.  1.
         12    1    4    4    0    0 -0.72692646592E+02 -0.65426082618E+02 -0.82690380894E+02  0.12807221497E+03  0.00000000000E+00 0. -1.
         -5    1    5    5    0  502  0.37502288849E+02 -0.24330550363E+02 -0.26318309441E+02  0.52087817786E+02  0.47000000000E+01 0.  1.
         13    1    6    6    0    0 -0.21055099088E+02  0.88532072195E+01  0.37326135049E+02  0.43759991241E+02  0.00000000000E+00 0. -1.
        -14    1    6    6    0    0  0.45306799607E+02  0.87898549898E+02  0.52194055533E+02  0.11181717488E+03  0.00000000000E+00 0.  1.
</event>
<event>
12    1  0.8633375E-002  0.1837112E+03  0.7818608E-02  0.1165171E+00
         21   -1    0    0  501  502  0.00000000000E+00  0.00000000000E+00  0.18119941519E+04  0.18119941519E+04  0.00000000000E+00 0.  1.
         21   -1    0    0  502  503 -0.00000000000E+00 -0.00000000000E+00 -0.42301336817E+02  0.42301336817E+02  0.00000000000E+00 0. -1.
         -6    2    1    2    0  503 -0.44066461309E+02  0.40998122970E+02  0.18962657676E+03  0.26402283996E+03  0.17357166333E+03 0.  0.
        -24    2    3    3    0    0 -0.94743239593E+02  0.34911070183E+02  0.10758345606E+03  0.16728426584E+03  0.78833757435E+02 0.  0.
          6    2    1    2  501    0  0.44066461309E+02 -0.40998122970E+02  0.15800662383E+04  0.15902726487E+04  0.16951424948E+03 0.  0.
         24    2    5    5    0    0 -0.10623648280E+02 -0.52780314767E+02  0.13471491565E+04  0.13506849088E+04  0.81487725867E+02 0.  0.
          5    1    5    5  501    0  0.54690109589E+02  0.11782191796E+02  0.23291708181E+03  0.23958773994E+03  0.47000000000E+01 0. -1.
        -13    1    6    6    0    0 -0.42118221293E+02 -0.22072460864E+02  0.46130907017E+03  0.46375337876E+03  0.00000000000E+00 0.  1.
         14    1    6    6    0    0  0.31494573013E+02 -0.30707853902E+02  0.88584008634E+03  0.88693153004E+03  0.00000000000E+00 0. -1.
         -5    1    3    3    0  503  0.50676778285E+02  0.60870527870E+01  0.82043120698E+02  0.96738574120E+02  0.47000000000E+01 0.  1.
         11    1    4    4    0    0 -0.54653963507E+02  0.44849187462E+02  0.10409521136E+03  0.12583448800E+03  0.00000000000E+00 0. -1.
        -12    1    4    4    0    0 -0.40089276086E+02 -0.99381172786E+01  0.34882447025E+01  0.41449777843E+02  0.00000000000E+00 0.  1.
</event>
<event>
12    1  0.8633375E-002  0.2486906E+03  0.7818608E-02  0.1114380E+00
         21   -1    0    0  501  502  0.00000000000E+00  0.00000000000E+00  0.11873233975E+04  0.11873233975E+04  0.00000000000E+00 0. -1.
         21   -1    0    0  502  503 -0.00000000000E+00 -0.00000000000E+00 -0.57255752133E+02  0.57255752133E+02  0.00000000000E+00 0.  1.
         -6    2    1    2    0  503  0.11375710020E+03 -0.13661523269E+03  0.37081231325E+03  0.44563255054E+03  0.17170381125E+03 0.  0.
        -24    2    3    3    0    0  0.24267787303E+02 -0.11750343543E+03  0.28777869297E+03  0.32197871917E+03  0.80360043749E+02 0.  0.
          6    2    1    2  501    0 -0.11375710020E+03  0.13661523269E+03  0.75925533207E+03  0.79894659904E+03  0.17390402294E+03 0.  0.
         24    2    5    5    0    0 -0.15041846716E+03  0.11343776713E+03  0.65783162560E+03  0.68853777253E+03  0.76472049040E+02 0.  0.
          5    1    5    5  501    0  0.36661366968E+02  0.23177465567E+02  0.10142370647E+03  0.11040882651E+03  0.47000000000E+01 0. -1.
        -11    1    6    6    0    0 -0.72483210794E+02  0.81458705914E+02  0.26096107800E+03  0.28282507110E+03  0.00000000000E+00 0.  1.
         12    1    6    6    0    0 -0.77935256369E+02  0.31979061213E+02  0.39687054761E+03  0.40571270143E+03  0.00000000000E+00 0. -1.
         -5    1    3    3    0  503  0.89489312893E+02 -0.19111797263E+02  0.83033620277E+02  0.12365383137E+03  0.47000000000E+01 0.  1.
         13    1    4    4    0    0  0.51689882934E+02 -0.53677372615E+02  0.16119171211E+03  0.17758342372E+03  0.00000000000E+00 0. -1.
        -14    1    4    4    0    0 -0.27422095631E+02 -0.63826062816E+02  0.12658698086E+03  0.14439529545E+03  0.00000000000E+00 0.  1.
</event>
<event>
12    1  0.8633375E-002  0.2309848E+03  0.7818608E-02  0.1126275E+00
         21   -1    0    0  501  502  0.00000000000E+00  0.00000000000E+00  0.17470340962E+03  0.17470340962E+03  0.00000000000E+00 0.  1.
         21   -1    0    0  502  503 -0.00000000000E+00 -0.00000000000E+00 -0.30555693562E+03  0.30555693562E+03  0.00000000000E+00 0. -1.
         -6    2    1    2    0  503  0.51419862583E+02 -0.14261003709E+03 -0.87351065592E+02  0.24521477742E+03  0.17180935206E+03 0.  0.
        -24    2    3    3    0    0  0.11587677542E+02 -0.16294587220E+03 -0.55169168519E+02  0.18991637189E+03  0.79617583585E+02 0.  0.
          6    2    1    2  501    0 -0.51419862583E+02  0.14261003709E+03 -0.43502460405E+02  0.23504556782E+03  0.17427659035E+03 0.  0.
         24    2    5    5    0    0 -0.75913932027E+02  0.15260103833E+03 -0.66918708138E+02  0.19940583997E+03  0.78959315718E+02 0.  0.
          5    1    5    5  501    0  0.24494069444E+02 -0.99910012352E+01  0.23416247733E+02  0.35639727854E+02  0.47000000000E+01 0. -1.
        -13    1    6    6    0    0 -0.37902974628E+02  0.11192849455E+02 -0.26217770251E+02  0.47426646956E+02  0.00000000000E+00 0.  1.
         14    1    6    6    0    0 -0.38010957399E+02  0.14140818887E+03 -0.40700937887E+02  0.15197919301E+03  0.00000000000E+00 0. -1.
         -5    1    3    3    0  503  0.39832185041E+02  0.20335835111E+02 -0.32181897073E+02  0.55298405529E+02  0.47000000000E+01 0.  1.
         11    1    4    4    0    0  0.33424438947E+02 -0.77454171870E+02  0.26906034699E+01  0.84401310452E+02  0.00000000000E+00 0. -1.
        -12    1    4    4    0    0 -0.21836761405E+02 -0.85491700335E+02 -0.57859771989E+02  0.10551506143E+03  0.00000000000E+00 0.  1.
</event>
<event>
12    1  0.8633375E-002  0.2032885E+03  0.7818608E-02  0.1147219E+00
         21   -1    0    0  503  502  0.00000000000E+00  0.00000000000E+00  0.18074669990E+02  0.18074669990E+02  0.00000000000E+00 0. -1.
         21   -1    0    0  501  503 -0.00000000000E+00 -0.00000000000E+00 -0.23063850875E+04  0.23063850875E+04  0.00000000000E+00 0. -1.
          6    2    1    2  501    0 -0.10616568717E+03 -0.10552282334E+02 -0.12845154556E+04  0.13005022809E+04  0.17304254747E+03 0.  0.
         24    2    3    3    0    0 -0.55597449278E+02  0.54843923442E+02 -0.90579794545E+03  0.91283895676E+03  0.81890846196E+02 0.  0.
         -6    2    1    2    0  502  0.10616568717E+03  0.10552282334E+02 -0.10037949620E+04  0.10239574766E+04  0.17176170834E+03 0.  0.
        -24    2    5    5    0    0  0.88075427327E+02  0.67506416546E+02 -0.57275340857E+03  0.58876792979E+03  0.79289412636E+02 0.  0.
          5    1    3    3  501    0 -0.50568237892E+02 -0.65396205777E+02 -0.37871751012E+03  0.38766332414E+03  0.47000000000E+01 0. -1.
        -11    1    4    4    0    0  0.14702052135E+02  0.34369801503E+02 -0.22119555890E+03  0.22433213963E+03  0.00000000000E+00 0.  1.
         12    1    4    4    0    0 -0.70299501413E+02  0.20474121940E+02 -0.68460238655E+03  0.68850681713E+03  0.00000000000E+00 0. -1.
         -5    1    5    5    0  502  0.18090259843E+02 -0.56954134212E+02 -0.43104155342E+03  0.43518954684E+03  0.47000000000E+01 0.  1.
         11    1    6    6    0    0  0.32622197055E+02  0.35328192742E+02 -0.92484367466E+02  0.10423841503E+03  0.00000000000E+00 0. -1.
        -12    1    6    6    0    0  0.55453230272E+02  0.32178223804E+02 -0.48026904110E+03  0.48452951476E+03  0.00000000000E+00 0.  1.
</event>
<event>
12    1  0.8633375E-002  0.4388978E+03  0.7818608E-02  0.1031116E+00
         21   -1    0    0  501  502  0.00000000000E+00  0.00000000000E+00  0.50572081025E+03  0.50572081025E+03  0.00000000000E+00 0. -1.
         21   -1    0    0  502  503 -0.00000000000E+00 -0.00000000000E+00 -0.61622602749E+03  0.61622602749E+03  0.00000000000E+00 0.  1.
         -6    2    1    2    0  503  0.29935356801E+03  0.27097517478E+03 -0.40214858571E+03  0.59498653929E+03  0.17101284431E+03 0.  0.
        -24    2    3    3    0    0  0.14157618901E+03  0.19735134644E+03 -0.19066486405E+03  0.32101277421E+03  0.87776646024E+02 0.  0.
          6    2    1    2  501    0 -0.29935356801E+03 -0.27097517478E+03  0.29164336848E+03  0.52696029845E+03  0.17202092239E+03 0.  0.
         24    2    5    5    0    0 -0.25909110282E+03 -0.17375270883E+03  0.16282891934E+03  0.36056160165E+03  0.78569766616E+02 0.  0.
          5    1    5    5  501    0 -0.40262465184E+02 -0.97222465957E+02  0.12881444914E+03  0.16639869680E+03  0.47000000000E+01 0. -1.
        -11    1    6    6    0    0 -0.53687218060E+02 -0.19862771070E+02  0.12086545728E+01  0.57256509704E+02  0.00000000000E+00 0.  1.
         12    1    6    6    0    0 -0.20540388476E+03 -0.15388993776E+03  0.16162026477E+03  0.30330509195E+03  0.00000000000E+00 0. -1.
         -5    1    3    3    0  503  0.15777737899E+03  0.73623828343E+02 -0.21148372167E+03  0.27397376508E+03  0.47000000000E+01 0.  1.
         13    1    4    4    0    0  0.36258268775E+02  0.34790279017E+02 -0.15020777253E+01  0.50272077798E+02  0.00000000000E+00 0. -1.
        -14    1    4    4    0    0  0.10531792024E+03  0.16256106742E+03 -0.18916278632E+03  0.27074069641E+03  0.00000000000E+00 0.  1.
</event>
<event>
12    1  0.8633375E-002  0.1793094E+03  0.7818608E-02  0.1168674E+00
         21   -1    0    0  503  502  0.00000000000E+00  0.00000000000E+00  0.22787251891E+03  0.22787251891E+03  0.00000000000E+00 0. -1.
         21   -1    0    0  501  503 -0.00000000000E+00 -0.00000000000E+00 -0.15398989219E+03  0.15398989219E+03  0.00000000000E+00 0. -1.
          6    2    1    2  501    0  0.74230666192E+01 -0.38379108853E+02  0.93483100372E+02  0.20148487736E+03  0.17415225475E+03 0.  0.
         24    2    3    3    0    0  0.64501190416E+02 -0.59309909613E+01  0.88058994439E+02  0.13543714086E+03  0.79957816411E+02 0.  0.
         -6    2    1    2    0  502 -0.74230666192E+01  0.38379108853E+02 -0.19600473656E+02  0.18037753375E+03  0.17499662339E+03 0.  0.
        -24    2    5    5    0    0 -0.48439400623E+02  0.71368481653E+02  0.12535872094E+02  0.11852712477E+03  0.80322447111E+02 0.  0.
          5    1    3    3  501    0 -0.57078123796E+02 -0.32448117891E+02  0.54241059329E+01  0.66047736494E+02  0.47000000000E+01 0. -1.
        -11    1    4    4    0    0  0.60794260110E+02  0.28323532003E+02  0.68277495809E+02  0.95707789450E+02  0.00000000000E+00 0.  1.
         12    1    4    4    0    0  0.37069303060E+01 -0.34254522964E+02  0.19781498630E+02  0.39729351415E+02  0.00000000000E+00 0. -1.
         -5    1    5    5    0  502  0.41016334003E+02 -0.32989372800E+02 -0.32136345750E+02  0.61850408980E+02  0.47000000000E+01 0.  1.
         13    1    6    6    0    0 -0.11611273713E+02  0.76031020060E+02  0.22416370133E+02  0.80112616600E+02  0.00000000000E+00 0. -1.
        -14    1    6    6    0    0 -0.36828126910E+02 -0.46625384070E+01 -0.98804980394E+01  0.38414508165E+02  0.00000000000E+00 0.  1.
</event>
<event>
12    1  0.8633375E-002  0.1746968E+03  0.7818608E-02  0.1173272E+00
         21   -1    0    0  503  502  0.00000000000E+00  0.00000000000E+00  0.40209278485E+03  0.40209278485E+03  0.00000000000E+00 0.  1.
         21   -1    0    0  501  503 -0.00000000000E+00 -0.00000000000E+00 -0.87854833212E+02  0.87854833212E+02  0.00000000000E+00 0.  1.
          6    2    1    2  501    0 -0.17938310510E+02 -0.22444606650E+02  0.65598583212E+02  0.18660696289E+03  0.17231784913E+03 0.  0.
         24    2    3    3    0    0 -0.17165790851E+02 -0.12251449708E+02 -0.32637590943E+02  0.87728587358E+02  0.78653228171E+02 0.  0.
         -6    2    1    2    0  502  0.17938310510E+02  0.22444606650E+02  0.24863936843E+03  0.30334065518E+03  0.17137232623E+03 0.  0.
        -24    2    5    5    0    0  0.77185463484E+02  0.20607911581E+02  0.15407883124E+03  0.19163844492E+03  0.81257156850E+02 0.  0.
          5    1    3    3  501    0 -0.77251965950E+00 -0.10193156942E+02  0.98236174155E+02  0.98878375532E+02  0.47000000000E+01 0. -1.
        -13    1    4    4    0    0 -0.20443768171E+02 -0.39528583247E+02 -0.39397417781E+02  0.59435789541E+02  0.00000000000E+00 0.  1.
         14    1    4    4    0    0  0.32779773205E+01  0.27277133539E+02  0.67598268377E+01  0.28292797817E+02  0.00000000000E+00 0. -1.
         -5    1    5    5    0  502 -0.59247152974E+02  0.18366950692E+01  0.94560537185E+02  0.11170221026E+03  0.47000000000E+01 0.  1.
         13    1    6    6    0    0  0.19365314199E+02  0.42568927159E+02  0.38599425575E+02  0.60638639564E+02  0.00000000000E+00 0. -1.
        -14    1    6    6    0    0  0.57820149285E+02 -0.21961015578E+02  0.11547940567E+03  0.13099980535E+03  0.00000000000E+00 0.  1.
</event>
<event>
12    1  0.8633375E-002  0.1783855E+03  0.7818608E-02  0.1169416E+00
         21   -1    0    0  503  502  0.00000000000E+00  0.00000000000E+00  0.42914621671E+03  0.42914621671E+03  0.00000000000E+00 0.  1.
         21   -1    0    0  501  503 -0.00000000000E+00 -0.00000000000E+00 -0.87931041282E+02  0.87931041282E+02  0.00000000000E+00 0.  1.
          6    2    1    2  501    0 -0.27058900215E+02  0.37922804647E+02  0.67933909755E+02  0.19072770868E+03  0.17202243915E+03 0.  0.
         24    2    3    3    0    0  0.16517877145E+02  0.78730539039E+02  0.23427909403E+02  0.11611483594E+03  0.80389365865E+02 0.  0.
         -6    2    1    2    0  502  0.27058900215E+02 -0.37922804647E+02  0.27328126568E+03  0.32634954931E+03  0.17219481692E+03 0.  0.
        -24    2    5    5    0    0  0.12050337921E+02  0.30301962101E+02  0.70518684480E+02  0.11183933959E+03  0.80447084901E+02 0.  0.
          5    1    3    3  501    0 -0.43576777360E+02 -0.40807734392E+02  0.44506000352E+02  0.74612872741E+02  0.47000000000E+01 0. -1.
        -11    1    4    4    0    0 -0.15095190456E+02  0.76189852045E+02  0.30799213684E+02  0.83554472610E+02  0.00000000000E+00 0.  1.
         12    1    4    4    0    0  0.31613067601E+02  0.25406869938E+01 -0.73713042807E+01  0.32560363333E+02  0.00000000000E+00 0. -1.
         -5    1    5    5    0  502  0.15008562294E+02 -0.68224766748E+02  0.20276258120E+03  0.21451020972E+03  0.47000000000E+01 0.  1.
         11    1    6    6    0    0  0.23765561662E+01 -0.17645209639E+02 -0.78504304046E+01  0.19458435188E+02  0.00000000000E+00 0. -1.
        -12    1    6    6    0    0  0.96737817546E+01  0.47947171740E+02  0.78369114884E+02  0.92380904407E+02  0.00000000000E+00 0.  1.
</event>
<event>
12    1  0.8633375E-002  0.1834532E+03  0.7818608E-02  0.1164555E+00
         21   -1    0    0  501  502  0.00000000000E+00  0.00000000000E+00  0.40581622112E+03  0.40581622112E+03  0.00000000000E+00 0. -1.
         21   -1    0    0  502  503 -0.00000000000E+00 -0.00000000000E+00 -0.17465112124E+03  0.17465112124E+03  0.00000000000E+00 0. -1.
         -6    2    1    2    0  503  0.39312220783E+02 -0.49917875354E+02 -0.94826157899E+02  0.20651171226E+03  0.17209835007E+03 0.  0.
        -24    2    3    3    0    0  0.80744738376E+02 -0.17251880576E+02 -0.10503671717E+03  0.15256668237E+03  0.73665055881E+02 0.  0.
          6    2    1    2  501    0 -0.39312220783E+02  0.49917875354E+02  0.32599125779E+03  0.37395563010E+03  0.17185827924E+03 0.  0.
         24    2    5    5    0    0 -0.77988471213E+02  0.70726844720E+02  0.19279824491E+03  0.23362981553E+03  0.79543945463E+02 0.  0.
          5    1    5    5  501    0  0.38676250430E+02 -0.20808969366E+02  0.13319301287E+03  0.14032581456E+03  0.47000000000E+01 0. -1.
        -13    1    6    6    0    0 -0.35569782574E+02 -0.11545790712E+02  0.75076490057E+02  0.83874871534E+02  0.00000000000E+00 0.  1.
         14    1    6    6    0    0 -0.42418688639E+02  0.82272635432E+02  0.11772175485E+03  0.14975494400E+03  0.00000000000E+00 0. -1.
         -5    1    3    3    0  503 -0.41432517592E+02 -0.32665994778E+02  0.10210559272E+02  0.53945029887E+02  0.47000000000E+01 0.  1.
         11    1    4    4    0    0  0.37601361413E+02  0.28871532192E+02 -0.48072233049E+02  0.67515682190E+02  0.00000000000E+00 0. -1.
        -12    1    4    4    0    0  0.43143376963E+02 -0.46123412768E+02 -0.56964484122E+02  0.85051000185E+02  0.00000000000E+00 0.  1.
</event>
<event>
12    1  0.8633375E-002  0.1903906E+03  0.7818608E-02  0.1158555E+00
         21   -1    0    0  501  502  0.00000000000E+00  0.00000000000E+00  0.45892038908E+02  0.45892038908E+02  0.00000000000E+00 0.  1.
         21   -1    0    0  502  503 -0.00000000000E+00 -0.00000000000E+00 -0.88560383236E+03  0.88560383236E+03  0.00000000000E+00 0.  1.
         -6    2    1    2    0  503 -0.78552385023E+02 -0.27879906982E+01 -0.57744688823E+03  0.60741030136E+03  0.17124285501E+03 0.  0.
        -24    2    3    3    0    0 -0.79055425467E+01 -0.47102095110E+02 -0.19956121608E+03  0.22040334094E+03  0.80447801503E+02 0.  0.
          6    2    1    2  501    0  0.78552385023E+02  0.27879906982E+01 -0.26226490522E+03  0.32408556990E+03  0.17340797566E+03 0.  0.
         24    2    5    5    0    0  0.29632562849E+01  0.40716766459E+02 -0.70215607860E+02  0.11418718727E+03  0.80261112572E+02 0.  0.
          5    1    5    5  501    0  0.75589128738E+02 -0.37928775761E+02 -0.19204929736E+03  0.20989838263E+03  0.47000000000E+01 0. -1.
        -11    1    6    6    0    0  0.30448546954E+01 -0.24557542138E+02 -0.18058867763E+02  0.30634404203E+02  0.00000000000E+00 0.  1.
         12    1    6    6    0    0 -0.81598410495E-01  0.65274308597E+02 -0.52156740097E+02  0.83552783070E+02  0.00000000000E+00 0. -1.
         -5    1    3    3    0  503 -0.70646842476E+02  0.44314104411E+02 -0.37788567215E+03  0.38700696042E+03  0.47000000000E+01 0.  1.
         11    1    4    4    0    0 -0.42115165443E+01  0.22931552052E+02 -0.54559081697E+02  0.59332001034E+02  0.00000000000E+00 0. -1.
        -12    1    4    4    0    0 -0.36940260024E+01 -0.70033647161E+02 -0.14500213438E+03  0.16107133990E+03  0.00000000000E+00 0.  1.
</event>
<event>
12    1  0.8633375E-002  0.2365759E+03  0.7818608E-02  0.1122286E+00
         21   -1    0    0  501  502  0.00000000000E+00  0.00000000000E+00  0.13098558967E+03  0.13098558967E+03  0.00000000000E+00 0.  1.
         21   -1    0    0  502  503 -0.00000000000E+00 -0.00000000000E+00 -0.43263782905E+03  0.43263782905E+03  0.00000000000E+00 0.  1.
         -6    2    1    2    0  503  0.15379569099E+03 -0.50551735503E+02 -0.18797578070E+03  0.30216397273E+03  0.17250965121E+03 0.  0.
        -24    2    3    3    0    0  0.96229915887E+02 -0.23755143086E+02 -0.24575291545E+02  0.12679668478E+03  0.75159502279E+02 0.  0.
          6    2    1    2  501    0 -0.15379569099E+03  0.50551735503E+02 -0.11367645868E+03  0.26145944598E+03  0.17096816109E+03 0.  0.
         24    2    5    5    0    0 -0.10769922443E+03 -0.11389990454E+02 -0.23107463282E+02  0.14235237410E+03  0.89450481991E+02 0.  0.
          5    1    5    5  501    0 -0.46096466558E+02  0.61941725957E+02 -0.90568995402E+02  0.11910707188E+03  0.47000000000E+01 0. -1.
        -11    1    6    6    0    0 -0.63345207343E+02  0.37907015405E+02 -0.17037571486E+02  0.75761705051E+02  0.00000000000E+00 0.  1.
         12    1    6    6    0    0 -0.44354017087E+02 -0.49297005859E+02 -0.60698917965E+01  0.66590669052E+02  0.00000000000E+00 0. -1.
         -5    1    3    3    0  503  0.57565775101E+02 -0.26796592418E+02 -0.16340048915E+03  0.17536728795E+03  0.47000000000E+01 0.  1.
         13    1    4    4    0    0  0.43939933395E+02  0.24225394228E+02 -0.24480863758E+02  0.55829205283E+02  0.00000000000E+00 0. -1.
        -14    1    4    4    0    0  0.52289982492E+02 -0.47980537314E+02 -0.94427787136E-01  0.70967479499E+02  0.00000000000E+00 0.  1.
</event>
<event>
12    1  0.8633375E-002  0.2025514E+03  0.7818608E-02  0.1147931E+00
         21   -1    0    0  501  502  0.00000000000E+00  0.00000000000E+00  0.16045147868E+03  0.16045147868E+03  0.00000000000E+00 0.  1.
         21   -1    0    0  502  503 -0.00000000000E+00 -0.00000000000E+00 -0.28569244796E+03  0.28569244796E+03  0.00000000000E+00 0. -1.
         -6    2    1    2    0  503 -0.10712313641E+03 -0.64459874649E+01 -0.13703031249E+03  0.24324976029E+03  0.16993005100E+03 0.  0.
        -24    2    3    3    0    0 -0.52479990142E+02  0.86978327570E+01 -0.17340620388E+01  0.96476553913E+02  0.80466867864E+02 0.  0.
          6    2    1    2  501    0  0.10712313641E+03  0.64459874649E+01  0.11789343207E+02  0.20289416635E+03  0.17178514783E+03 0.  0.
         24    2    5    5    0    0  0.10766567815E+03  0.43807966802E+02 -0.31292757064E+02  0.14567206209E+03  0.82037045430E+02 0.  0.
          5    1    5    5  501    0 -0.54254173475E+00 -0.37361979337E+02  0.43082100271E+02  0.57222104254E+02  0.47000000000E+01 0. -1.
        -11    1    6    6    0    0  0.67387297021E+02 -0.10371438062E+02 -0.37609840870E+02  0.77866004504E+02  0.00000000000E+00 0.  1.
         12    1    6    6    0    0  0.40278381128E+02  0.54179404864E+02  0.63170838062E+01  0.67806057587E+02  0.00000000000E+00 0. -1.
         -5    1    3    3    0  503 -0.54643146272E+02 -0.15143820222E+02 -0.13529625045E+03  0.14677320638E+03  0.47000000000E+01 0.  1.
         11    1    4    4    0    0  0.24348024713E+01 -0.19370763338E+02 -0.23973049498E+02  0.30917015341E+02  0.00000000000E+00 0. -1.
        -12    1    4    4    0    0 -0.54914792613E+02  0.28068596095E+02  0.22238987460E+02  0.65559538572E+02  0.00000000000E+00 0.  1.
</event>
<event>
12    1  0.8633375E-002  0.2663836E+03  0.7818608E-02  0.1103574E+00
         21   -1    0    0  503  502  0.00000000000E+00  0.00000000000E+00  0.69533150155E+03  0.69533150155E+03  0.00000000000E+00 0.  1.
         21   -1    0    0  501  503 -0.00000000000E+00 -0.00000000000E+00 -0.10258337517E+03  0.10258337517E+03  0.00000000000E+00 0.  1.
          6    2    1    2  501    0  0.51891279215E+02 -0.19519456926E+03  0.25480584597E+03  0.36760659286E+03  0.17150791016E+03 0.  0.
         24    2    3    3    0    0  0.94127592696E+02 -0.16868779803E+03  0.17101416461E+03  0.26998666169E+03  0.79569944580E+02 0.  0.
         -6    2    1    2    0  502 -0.51891279215E+02  0.19519456926E+03  0.33794228041E+03  0.43030828386E+03  0.17368537516E+03 0.  0.
        -24    2    5    5    0    0 -0.90117343288E+02  0.86494164959E+02  0.22075420067E+03  0.26589372884E+03  0.79778955805E+02 0.  0.
          5    1    3    3  501    0 -0.42236313481E+02 -0.26506771231E+02  0.83791681359E+02  0.97619931174E+02  0.47000000000E+01 0. -1.
        -13    1    4    4    0    0  0.59194048289E+02 -0.61907850443E+02  0.11786365574E+03  0.14569954922E+03  0.00000000000E+00 0.  1.
         14    1    4    4    0    0  0.34933544406E+02 -0.10677994759E+03  0.53150508872E+02  0.12428711247E+03  0.00000000000E+00 0. -1.
         -5    1    5    5    0  502  0.38226064073E+02  0.10870040431E+03  0.11718807974E+03  0.16441455502E+03  0.47000000000E+01 0.  1.
         13    1    6    6    0    0  0.11352321152E+02  0.86748404139E+01  0.53393067890E+02  0.55271581761E+02  0.00000000000E+00 0. -1.
        -14    1    6    6    0    0 -0.10146966444E+03  0.77819324545E+02  0.16736113278E+03  0.21062214708E+03  0.00000000000E+00 0.  1.
</event>
<event>
12    1  0.8633375E-002  0.2351565E+03  0.7818608E-02  0.1123255E+00
         21   -1    0    0  501  502  0.00000000000E+00  0.00000000000E+00  0.82952821621E+03  0.82952821621E+03  0.00000000000E+00 0. -1.
         21   -1    0    0  502  503 -0.00000000000E+00 -0.00000000000E+00 -0.67413883801E+02  0.67413883801E+02  0.00000000000E+00 0.  1.
         -6    2    1    2    0  503  0.42957636991E+01  0.15937181348E+03  0.32368428969E+03  0.39942878713E+03  0.17133011432E+03 0.  0.
        -24    2    3    3    0    0 -0.88599830820E+01  0.20373201887E+02  0.65788025618E+02  0.10612645041E+03  0.80257040235E+02 0.  0.
          6    2    1    2  501    0 -0.42957636991E+01 -0.15937181348E+03  0.43843004272E+03  0.49751331289E+03  0.17286053807E+03 0.  0.
         24    2    5    5    0    0 -0.35442643626E+02 -0.93172303167E+02  0.13814385029E+03  0.18840752087E+03  0.80476154747E+02 0.  0.
          5    1    5    5  501    0  0.31146879926E+02 -0.66199510311E+02  0.30028619243E+03  0.30910579202E+03  0.47000000000E+01 0. -1.
        -11    1    6    6    0    0 -0.59124394743E+02 -0.50839827323E+02  0.99347659784E+02  0.12629465389E+03  0.00000000000E+00 0.  1.
         12    1    6    6    0    0  0.23681751117E+02 -0.42332475844E+02  0.38796190507E+02  0.62112866984E+02  0.00000000000E+00 0. -1.
         -5    1    3    3    0  503  0.13155746781E+02  0.13899861159E+03  0.25789626407E+03  0.29330233671E+03  0.47000000000E+01 0.  1.
         11    1    4    4    0    0 -0.17116417798E+02  0.48955900198E+02  0.51623458795E+02  0.73175360747E+02  0.00000000000E+00 0. -1.
        -12    1    4    4    0    0  0.82564347157E+01 -0.28582698311E+02  0.14164566823E+02  0.32951089667E+02  0.00000000000E+00 0.  1.
</event>
<event>
12    1  0.8633375E-002  0.1845477E+03  0.7818608E-02  0.1163544E+00
         21   -1    0    0  501  502  0.00000000000E+00  0.00000000000E+00  0.25666335705E+03  0.25666335705E+03  0.00000000000E+00 0.  1.
         21   -1    0    0  502  503 -0.00000000000E+00 -0.00000000000E+00 -0.22290738265E+03  0.22290738265E+03  0.00000000000E+00 0.  1.
         -6    2    1    2    0  503 -0.16075178797E+02  0.65040163261E+02  0.16959756673E+03  0.25041841391E+03  0.17163162056E+03 0.  0.
        -24    2    3    3    0    0  0.33022898850E+02  0.50099099295E+02  0.34612820567E+02  0.10593025413E+03  0.80141997687E+02 0.  0.
          6    2    1    2  501    0  0.16075178797E+02 -0.65040163261E+02 -0.13584159233E+03  0.22915232578E+03  0.17195701787E+03 0.  0.
         24    2    5    5    0    0  0.62035638970E+02 -0.72813759810E+02 -0.13257676345E+03  0.18218912945E+03  0.80411544954E+02 0.  0.
          5    1    5    5  501    0 -0.45960460173E+02  0.77735965483E+01 -0.32648288783E+01  0.46963196337E+02  0.47000000000E+01 0. -1.
        -11    1    6    6    0    0  0.69722449103E+02 -0.66081391255E+02 -0.13983744578E+03  0.16965400503E+03  0.00000000000E+00 0.  1.
         12    1    6    6    0    0 -0.76868101330E+01 -0.67323685547E+01  0.72606823298E+01  0.12535124422E+02  0.00000000000E+00 0. -1.
         -5    1    3    3    0  503 -0.49098077647E+02  0.14941063967E+02  0.13498474617E+03  0.14448815979E+03  0.47000000000E+01 0.  1.
         13    1    4    4    0    0  0.36331751748E+02  0.41648176002E+02 -0.13562198278E+02  0.56907819950E+02  0.00000000000E+00 0. -1.
        -14    1    4    4    0    0 -0.33088528977E+01  0.84509232926E+01  0.48175018844E+02  0.49022434177E+02  0.00000000000E+00 0.  1.
</event>
<event>
12    1  0.8633375E-002  0.2012211E+03  0.7818608E-02  0.1148948E+00
         21   -1    0    0  501  502  0.00000000000E+00  0.00000000000E+00  0.59696866271E+03  0.59696866271E+03  0.00000000000E+00 0. -1.
         21   -1    0    0  502  503 -0.00000000000E+00 -0.00000000000E+00 -0.14871675727E+03  0.14871675727E+03  0.00000000000E+00 0.  1.
         -6    2    1    2    0  503  0.19750401031E+02  0.10046108651E+03 -0.51206480555E+02  0.20763439654E+03  0.17322653011E+03 0.  0.
        -24    2    3    3    0    0 -0.19792857317E+02  0.87180200969E+02 -0.90596745540E+02  0.15006935353E+03  0.79504062320E+02 0.  0.
          6    2    1    2  501    0 -0.19750401031E+02 -0.10046108651E+03  0.49945838600E+03  0.53805102344E+03  0.17192357675E+03 0.  0.
         24    2    5    5    0    0 -0.27086461673E+02 -0.65698881368E+02  0.14330128033E+03  0.18009543596E+03  0.82759227229E+02 0.  0.
          5    1    5    5  501    0  0.73360606413E+01 -0.34762205141E+02  0.35615710567E+03  0.35795558748E+03  0.47000000000E+01 0. -1.
        -11    1    6    6    0    0  0.18101709274E+02 -0.31231933325E+02  0.13753834521E+02  0.38629956017E+02  0.00000000000E+00 0.  1.
         12    1    6    6    0    0 -0.45188170947E+02 -0.34466948043E+02  0.12954744580E+03  0.14146547994E+03  0.00000000000E+00 0. -1.
         -5    1    3    3    0  503  0.39543258348E+02  0.13280885540E+02  0.39390264984E+02  0.57565043013E+02  0.47000000000E+01 0.  1.
         11    1    4    4    0    0  0.23459486688E+02  0.11561346927E+02 -0.44229576690E+02  0.51383535424E+02  0.00000000000E+00 0. -1.
        -12    1    4    4    0    0 -0.43252344005E+02  0.75618854042E+02 -0.46367168849E+02  0.98685818108E+02  0.00000000000E+00 0.  1.
</event>
<event>
12    1  0.8633375E-002  0.1867477E+03  0.7818608E-02  0.1161469E+00
         21   -1    0    0  501  502  0.00000000000E+00  0.00000000000E+00  0.17653765876E+03  0.17653765876E+03  0.00000000000E+00 0. -1.
         21   -1    0    0  502  503 -0.00000000000E+00 -0.00000000000E+00 -0.30665165336E+03  0.30665165336E+03  0.00000000000E+00 0. -1.
         -6    2    1    2    0  503 -0.49455468196E+02  0.54428134593E+02 -0.20926806192E+03  0.28035911990E+03  0.17146384226E+03 0.  0.
        -24    2    3    3    0    0 -0.38082851716E+02  0.72797981067E+02 -0.59611343892E+02  0.12907788870E+03  0.79735433700E+02 0.  0.
          6    2    1    2  501    0  0.49455468196E+02 -0.54428134593E+02  0.79154067312E+02  0.20283019222E+03  0.17165796030E+03 0.  0.
         24    2    5    5    0    0  0.78329204679E+02  0.73505632235E+01  0.31461218353E+02  0.11948153894E+03  0.84240933051E+02 0.  0.
          5    1    5    5  501    0 -0.28873736483E+02 -0.61778697816E+02  0.47692848959E+02  0.83348653284E+02  0.47000000000E+01 0. -1.
        -11    1    6    6    0    0  0.11405820623E+02  0.37587361733E+02  0.23103170671E+02  0.45570374161E+02  0.00000000000E+00 0.  1.
         12    1    6    6    0    0  0.66923384056E+02 -0.30236798509E+02  0.83580476822E+01  0.73911164776E+02  0.00000000000E+00 0. -1.
         -5    1    3    3    0  503 -0.11372616480E+02 -0.18369846474E+02 -0.14965671802E+03  0.15128123121E+03  0.47000000000E+01 0.  1.
         13    1    4    4    0    0 -0.55246175126E+01  0.72589412316E+02 -0.63090584649E+02  0.96333618485E+02  0.00000000000E+00 0. -1.
        -14    1    4    4    0    0 -0.32558234204E+02  0.20856875021E+00  0.34792407566E+01  0.32744270211E+02  0.00000000000E+00 0.  1.
</event>
<event>
12    1  0.8633375E-002  0.1915662E+03  0.7818608E-02  0.1157301E+00
         21   -1    0    0  501  502  0.00000000000E+00  0.00000000000E+00  0.21604330326E+04  0.21604330326E+04  0.00000000000E+00 0.  1.
         21   -1    0    0  502  503 -0.00000000000E+00 -0.00000000000E+00 -0.16954338253E+02  0.16954338253E+02  0.00000000000E+00 0.  1.
         -6    2    1    2    0  503  0.32387292555E+02  0.78105275538E+02  0.11420909153E+04  0.11580454552E+04  0.17189603430E+03 0.  0.
        -24    2    3    3    0    0  0.47570836224E+02 -0.16930855433E+02  0.54592208877E+03  0.55414002720E+03  0.80564287451E+02 0.  0.
          6    2    1    2  501    0 -0.32387292555E+02 -0.78105275538E+02  0.10013877790E+04  0.10193419157E+04  0.17067831230E+03 0.  0.
         24    2    5    5    0    0  0.28421022694E+02 -0.94610204279E+02  0.68012213555E+03  0.69192205136E+03  0.80194517270E+02 0.  0.
          5    1    5    5  501    0 -0.60808315249E+02  0.16504928740E+02  0.32126564348E+03  0.32741986433E+03  0.47000000000E+01 0. -1.
        -11    1    6    6    0    0 -0.17491478622E+02 -0.57925226495E+02  0.22396649031E+03  0.23199627685E+03  0.00000000000E+00 0.  1.
         12    1    6    6    0    0  0.45912501316E+02 -0.36684977784E+02  0.45615564524E+03  0.45992577450E+03  0.00000000000E+00 0. -1.
         -5    1    3    3    0  503 -0.15183543668E+02  0.95036130971E+02  0.59616882656E+03  0.60390542798E+03  0.47000000000E+01 0.  1.
         11    1    4    4    0    0 -0.30494393604E+01 -0.34865993042E+02  0.32067974798E+03  0.32258400040E+03  0.00000000000E+00 0. -1.
        -12    1    4    4    0    0  0.50620275584E+02  0.17935137609E+02  0.22524234079E+03  0.23155602680E+03  0.00000000000E+00 0.  1.
</event>
<event>
12    1  0.8633375E-002  0.1913082E+03  0.7818608E-02  0.1157600E+00
         21   -1    0    0  501  502  0.00000000000E+00  0.00000000000E+00  0.28830505497E+03  0.28830505497E+03  0.00000000000E+00 0. -1.
         21   -1    0    0  502  503 -0.00000000000E+00 -0.00000000000E+00 -0.12605643749E+03  0.12605643749E+03  0.00000000000E+00 0.  1.
         -6    2    1    2    0  503  0.17024332830E+02 -0.82264030986E+02  0.77858221748E+02  0.20654469788E+03  0.17187673148E+03 0.  0.
        -24    2    3    3    0    0  0.19392726362E+02 -0.12260904750E+02  0.10271479599E+03  0.13207331912E+03  0.79791131627E+02 0.  0.
          6    2    1    2  501    0 -0.17024332830E+02  0.82264030986E+02  0.84390395731E+02  0.20781679458E+03  0.17031994163E+03 0.  0.
         24    2    5    5    0    0 -0.56666179321E+02  0.49960887702E+02  0.18025416235E+01  0.11056550819E+03  0.80711438261E+02 0.  0.
          5    1    5    5  501    0  0.39641846491E+02  0.32303143285E+02  0.82587854108E+02  0.97251286395E+02  0.47000000000E+01 0. -1.
        -11    1    6    6    0    0 -0.22765596492E+02 -0.21521126828E+02 -0.17074228369E+01  0.31374298021E+02  0.00000000000E+00 0.  1.
         12    1    6    6    0    0 -0.33900582829E+02  0.71482014530E+02  0.35099644603E+01  0.79191210168E+02  0.00000000000E+00 0. -1.
         -5    1    3    3    0  503 -0.23683935318E+01 -0.70003126237E+02 -0.24856574247E+02  0.74471378758E+02  0.47000000000E+01 0.  1.
         11    1    4    4    0    0  0.44195667273E+02 -0.26822614929E+02  0.49455226648E+02  0.71543896456E+02  0.00000000000E+00 0. -1.
        -12    1    4    4    0    0 -0.24802940911E+02  0.14561710179E+02  0.53259569347E+02  0.60529422666E+02  0.00000000000E+00 0.  1.
</event>
<event>
12    1  0.8633375E-002  0.1986966E+03  0.7818608E-02  0.1152119E+00
         21   -1    0    0  501  502  0.00000000000E+00  0.00000000000E+00  0.26511202730E+03  0.26511202730E+03  0.00000000000E+00 0.  1.
         21   -1    0    0  502  503 -0.00000000000E+00 -0.00000000000E+00 -0.20320236252E+03  0.20320236252E+03  0.00000000000E+00 0.  1.
         -6    2    1    2    0  503 -0.49586287650E+02  0.69402375711E+02 -0.95191395817E+02  0.21501403802E+03  0.17289923374E+03 0.  0.
        -24    2    3    3    0    0 -0.79182404655E+02  0.65715613153E+02 -0.15341464093E+02  0.12964645660E+03  0.77359215161E+02 0.  0.
          6    2    1    2  501    0  0.49586287650E+02 -0.69402375711E+02  0.15710106060E+03  0.25330035181E+03  0.17945705701E+03 0.  0.
         24    2    5    5    0    0 -0.42033881169E+02 -0.41645391603E+02  0.59856267302E+02  0.11675971565E+03  0.80925105217E+02 0.  0.
          5    1    5    5  501    0  0.91620168819E+02 -0.27756984108E+02  0.97244793296E+02  0.13654063617E+03  0.47000000000E+01 0. -1.
        -13    1    6    6    0    0  0.89119844321E+01 -0.22657255281E+02  0.57382603128E+02  0.62334082372E+02  0.00000000000E+00 0.  1.
         14    1    6    6    0    0 -0.50945865601E+02 -0.18988136322E+02  0.24736641738E+01  0.54425633274E+02  0.00000000000E+00 0. -1.
         -5    1    3    3    0  503  0.29596117004E+02  0.36867625587E+01 -0.79849931725E+02  0.85367581413E+02  0.47000000000E+01 0.  1.
         13    1    4    4    0    0 -0.23898887375E+02 -0.15725848047E+02  0.52413167358E+01  0.29084884660E+02  0.00000000000E+00 0. -1.
        -14    1    4    4    0    0 -0.55283517280E+02  0.81441461200E+02 -0.20582780828E+02  0.10056157194E+03  0.00000000000E+00 0.  1.
</event>
<event>
12    1  0.8633375E-002  0.1848990E+03  0.7818608E-02  0.1163671E+00
         21   -1    0    0  503  502  0.00000000000E+00  0.00000000000E+00  0.67022602641E+02  0.67022602641E+02  0.00000000000E+00 0. -1.
         21   -1    0    0  501  503 -0.00000000000E+00 -0.00000000000E+00 -0.53889472386E+03  0.53889472386E+03  0.00000000000E+00 0. -1.
          6    2    1    2  501    0  0.35908952106E+02  0.57020884991E+02 -0.15741716660E+03  0.24113032699E+03  0.16977289562E+03 0.  0.
         24    2    3    3    0    0  0.12363615336E+02  0.10424500915E+03 -0.14633608538E+03  0.18700656929E+03  0.50371878620E+02 0.  0.
         -6    2    1    2    0  502 -0.35908952106E+02 -0.57020884991E+02 -0.31445495461E+03  0.36478699951E+03  0.17218246822E+03 0.  0.
        -24    2    5    5    0    0 -0.67220563780E+02 -0.58799376047E+02 -0.12547541532E+03  0.17316514186E+03  0.79158800448E+02 0.  0.
          5    1    3    3  501    0  0.23545336770E+02 -0.47224124164E+02 -0.11081081228E+02  0.54123757702E+02  0.47000000000E+01 0. -1.
        -11    1    4    4    0    0 -0.19325513167E+02  0.43231515297E+02 -0.66663640148E+02  0.81770901253E+02  0.00000000000E+00 0.  1.
         12    1    4    4    0    0  0.31689128502E+02  0.61013493858E+02 -0.79672445229E+02  0.10523566804E+03  0.00000000000E+00 0. -1.
         -5    1    5    5    0  502  0.31311611674E+02  0.17784910563E+01 -0.18897953929E+03  0.19162185764E+03  0.47000000000E+01 0.  1.
         11    1    6    6    0    0 -0.56030141519E+02 -0.15549267833E+02 -0.11250941585E+03  0.12664724689E+03  0.00000000000E+00 0. -1.
        -12    1    6    6    0    0 -0.11190422261E+02 -0.43250108214E+02 -0.12965999470E+02  0.46517894978E+02  0.00000000000E+00 0.  1.
</event>
<event>
12    1  0.8633375E-002  0.1928762E+03  0.7818608E-02  0.1155916E+00
         21   -1    0    0  501  502  0.00000000000E+00  0.00000000000E+00  0.23885310037E+03  0.23885310037E+03  0.00000000000E+00 0. -1.
         21   -1    0    0  502  503 -0.00000000000E+00 -0.00000000000E+00 -0.18028919687E+03  0.18028919687E+03  0.00000000000E+00 0.  1.
         -6    2    1    2    0  503 -0.86798720026E+02  0.16338812154E+02 -0.48164815518E+02  0.19879906128E+03  0.17146498981E+03 0.  0.
        -24    2    3    3    0    0 -0.10320742519E+03 -0.38584849743E+01  0.11503828210E+02  0.13353334700E+03  0.83857952368E+02 0.  0.
          6    2    1    2  501    0  0.86798720026E+02 -0.16338812154E+02  0.10672871902E+03  0.22034323596E+03  0.17134511253E+03 0.  0.
         24    2    5    5    0    0  0.32492254965E+02 -0.41418337920E+01 -0.13709273286E+02  0.87582705605E+02  0.80061755709E+02 0.  0.
          5    1    5    5  501    0  0.54306465061E+02 -0.12196978362E+02  0.12043799231E+03  0.13276053036E+03  0.47000000000E+01 0. -1.
        -13    1    6    6    0    0  0.57549318694E+02 -0.11307948468E+02 -0.17596857646E+02  0.61232696982E+02  0.00000000000E+00 0.  1.
         14    1    6    6    0    0 -0.25057063729E+02  0.71661146764E+01  0.38875843599E+01  0.26350008623E+02  0.00000000000E+00 0. -1.
         -5    1    3    3    0  503  0.16408705167E+02  0.20197297128E+02 -0.59668643727E+02  0.65265714282E+02  0.47000000000E+01 0.  1.
         13    1    4    4    0    0 -0.45913963205E+02 -0.27798131309E+02 -0.27396111285E+02  0.60260891423E+02  0.00000000000E+00 0. -1.
        -14    1    4    4    0    0 -0.57293461987E+02  0.23939646334E+02  0.38899939495E+02  0.73272455574E+02  0.00000000000E+00 0.  1.
</event>
<event>
12    1  0.8633375E-002  0.1743511E+03  0.7818608E-02  0.1173544E+00
         21   -1    0    0  503  502  0.00000000000E+00  0.00000000000E+00  0.16875547284E+03  0.16875547284E+03  0.00000000000E+00 0.  1.
         21   -1    0    0  501  503 -0.00000000000E+00 -0.00000000000E+00 -0.18758877125E+03  0.18758877125E+03  0.00000000000E+00 0.  1.
          6    2    1    2  501    0 -0.17122509207E+02 -0.25611000848E+02 -0.46475660410E+02  0.18043913742E+03  0.17160766770E+03 0.  0.
         24    2    3    3    0    0  0.13461877466E+02 -0.63320571691E+02  0.13682321291E+02  0.10298922325E+03  0.78923109710E+02 0.  0.
         -6    2    1    2    0  502  0.17122509207E+02  0.25611000848E+02  0.27642362004E+02  0.17590510668E+03  0.17096608638E+03 0.  0.
        -24    2    5    5    0    0  0.60218274856E+02  0.50864737648E+02 -0.10845046651E+02  0.11267246586E+03  0.79774728857E+02 0.  0.
          5    1    3    3  501    0 -0.30584386673E+02  0.37709570843E+02 -0.60157981701E+02  0.77449914162E+02  0.47000000000E+01 0. -1.
        -11    1    4    4    0    0  0.41832747417E+02 -0.12635689042E+02  0.20269340346E+01  0.43746403916E+02  0.00000000000E+00 0.  1.
         12    1    4    4    0    0 -0.28370869951E+02 -0.50684882649E+02  0.11655387256E+02  0.59242819337E+02  0.00000000000E+00 0. -1.
         -5    1    5    5    0  502 -0.43095765649E+02 -0.25253736800E+02  0.38487408655E+02  0.63232640813E+02  0.47000000000E+01 0.  1.
         11    1    6    6    0    0  0.20965351364E+02  0.62732938476E+02 -0.22791104912E+02  0.69960002793E+02  0.00000000000E+00 0. -1.
        -12    1    6    6    0    0  0.39252923493E+02 -0.11868200828E+02  0.11946058261E+02  0.42712463071E+02  0.00000000000E+00 0.  1.
</event>
<event>
12    1  0.8633375E-002  0.1815065E+03  0.7818608E-02  0.1166474E+00
         21   -1    0    0  503  502  0.00000000000E+00  0.00000000000E+00  0.36433906819E+03  0.36433906819E+03  0.00000000000E+00 0.  1.
         21   -1    0    0  501  503 -0.00000000000E+00 -0.00000000000E+00 -0.13179352773E+03  0.13179352773E+03  0.00000000000E+00 0.  1.
          6    2    1    2  501    0 -0.41040464350E+02  0.37755779486E+02 -0.23021519991E+02  0.18296062407E+03  0.17272747604E+03 0.  0.
         24    2    3    3    0    0 -0.44760638360E+02  0.61012552768E+02 -0.69234916287E+02  0.13087909956E+03  0.81300791673E+02 0.  0.
         -6    2    1    2    0  502  0.41040464350E+02 -0.37755779486E+02  0.25556706045E+03  0.31317197185E+03  0.17219855682E+03 0.  0.
        -24    2    5    5    0    0  0.31873650024E+02 -0.65635032108E+02  0.79265840448E+02  0.13438300859E+03  0.80323300043E+02 0.  0.
          5    1    3    3  501    0  0.37201740102E+01 -0.23256773281E+02  0.46213396296E+02  0.52081524510E+02  0.47000000000E+01 0. -1.
        -11    1    4    4    0    0 -0.33421250171E+02 -0.97134155689E+01 -0.59722858523E+01  0.35312867390E+02  0.00000000000E+00 0.  1.
         12    1    4    4    0    0 -0.11339388189E+02  0.70725968336E+02 -0.63262630435E+02  0.95566232170E+02  0.00000000000E+00 0. -1.
         -5    1    5    5    0  502  0.91668143261E+01  0.27879252622E+02  0.17630122000E+03  0.17878896326E+03  0.47000000000E+01 0.  1.
         11    1    6    6    0    0  0.24412087100E+02 -0.41530595124E+02  0.93667369123E+02  0.10532956074E+03  0.00000000000E+00 0. -1.
        -12    1    6    6    0    0  0.74615629231E+01 -0.24104436984E+02 -0.14401528674E+02  0.29053447846E+02  0.00000000000E+00 0.  1.
</event>
<event>
12    1  0.8633375E-002  0.3254981E+03  0.7818608E-02  0.1074571E+00
         21   -1    0    0  503  502  0.00000000000E+00  0.00000000000E+00  0.66186737614E+03  0.66186737614E+03  0.00000000000E+00 0. -1.
         21   -1    0    0  501  503 -0.00000000000E+00 -0.00000000000E+00 -0.24576425780E+03  0.24576425780E+03  0.00000000000E+00 0.  1.
          6    2    1    2  501    0  0.21038409984E+03 -0.15636243789E+03  0.48779979255E+03  0.58642789127E+03  0.19297241408E+03 0.  0.
         24    2    3    3    0    0  0.82831656616E+02 -0.11342970045E+02  0.10045743372E+03  0.15358096132E+03  0.80657729830E+02 0.  0.
         -6    2    1    2    0  502 -0.21038409984E+03  0.15636243789E+03 -0.71696674208E+02  0.32120374267E+03  0.17123302766E+03 0.  0.
        -24    2    5    5    0    0 -0.10683665289E+03  0.94263987993E+02 -0.10541648861E+03  0.19575491991E+03  0.83111868958E+02 0.  0.
          5    1    3    3  501    0  0.12755244323E+03 -0.14501946785E+03  0.38734235882E+03  0.43284692995E+03  0.47000000000E+01 0. -1.
        -13    1    4    4    0    0  0.96171753504E+02 -0.15345862452E+02  0.10008566886E+03  0.13964828240E+03  0.00000000000E+00 0.  1.
         14    1    4    4    0    0 -0.13340096888E+02  0.40028924068E+01  0.37176486124E+00  0.13932678914E+02  0.00000000000E+00 0. -1.
         -5    1    5    5    0  502 -0.10354744695E+03  0.62098449899E+02  0.33719814407E+02  0.12544882276E+03  0.47000000000E+01 0.  1.
         13    1    6    6    0    0 -0.59454302028E+02  0.35195475330E+01 -0.57277100651E+02  0.82630911307E+02  0.00000000000E+00 0. -1.
        -14    1    6    6    0    0 -0.47382350867E+02  0.90744440460E+02 -0.48139387964E+02  0.11312400860E+03  0.00000000000E+00 0.  1.
</event>
<event>
12    1  0.8633375E-002  0.1792948E+03  0.7818608E-02  0.1169519E+00
         21   -1    0    0  503  502  0.00000000000E+00  0.00000000000E+00  0.21574165609E+03  0.21574165609E+03  0.00000000000E+00 0.  1.
         21   -1    0    0  501  503 -0.00000000000E+00 -0.00000000000E+00 -0.20532610166E+03  0.20532610166E+03  0.00000000000E+00 0.  1.
          6    2    1    2  501    0  0.25903149443E+02  0.33737011382E+02 -0.10834368650E+03  0.20948744224E+03  0.17417656261E+03 0.  0.
         24    2    3    3    0    0 -0.20318164602E+02 -0.38771233299E+02 -0.66444349782E+02  0.11371949438E+03  0.81247987303E+02 0.  0.
         -6    2    1    2    0  502 -0.25903149443E+02 -0.33737011382E+02  0.11875924093E+03  0.21158031551E+03  0.16986263131E+03 0.  0.
        -24    2    5    5    0    0 -0.12275663294E+02 -0.18408891039E+02  0.15135454159E+03  0.17278336618E+03  0.80351199049E+02 0.  0.
          5    1    3    3  501    0  0.46221314045E+02  0.72508244681E+02 -0.41899336716E+02  0.95767947853E+02  0.47000000000E+01 0. -1.
        -13    1    4    4    0    0 -0.18684000514E+02  0.22711398986E+01 -0.70004548647E+02  0.72490597893E+02  0.00000000000E+00 0.  1.
         14    1    4    4    0    0 -0.16341640883E+01 -0.41042373198E+02  0.35601988653E+01  0.41228896492E+02  0.00000000000E+00 0. -1.
         -5    1    5    5    0  502 -0.13627486149E+02 -0.15328120343E+02 -0.32595300663E+02  0.38796949330E+02  0.47000000000E+01 0. -1.
         13    1    6    6    0    0 -0.23062881011E+01 -0.62848472201E+01 -0.92473221337E+01  0.11416270671E+02  0.00000000000E+00 0. -1.
        -14    1    6    6    0    0 -0.99693751926E+01 -0.12124043818E+02  0.16060186372E+03  0.16136709551E+03  0.00000000000E+00 0.  1.
</event>
<event>
12    1  0.8633375E-002  0.1982378E+03  0.7818608E-02  0.1151758E+00
         21   -1    0    0  501  502  0.00000000000E+00  0.00000000000E+00  0.23524749278E+02  0.23524749278E+02  0.00000000000E+00 0.  1.
         21   -1    0    0  502  503 -0.00000000000E+00 -0.00000000000E+00 -0.16610588687E+04  0.16610588687E+04  0.00000000000E+00 0.  1.
         -6    2    1    2    0  503 -0.55628042129E+02  0.80584544629E+02 -0.89242018202E+03  0.91417284386E+03  0.17236548167E+03 0.  0.
        -24    2    3    3    0    0  0.23592964340E+02  0.79436802900E+02 -0.62309969380E+03  0.63340087134E+03  0.77952561095E+02 0.  0.
          6    2    1    2  501    0  0.55628042129E+02 -0.80584544629E+02 -0.74511393743E+03  0.77041077414E+03  0.16955716812E+03 0.  0.
         24    2    5    5    0    0 -0.33623922901E+02 -0.30692932485E+02 -0.37306701969E+03  0.38454021913E+03  0.81360645622E+02 0.  0.
          5    1    5    5  501    0  0.89251965030E+02 -0.49891612144E+02 -0.37204691774E+03  0.38587055501E+03  0.47000000000E+01 0. -1.
        -11    1    6    6    0    0 -0.22340610729E+02 -0.53833654074E+02 -0.16716137689E+03  0.17703132808E+03  0.00000000000E+00 0.  1.
         12    1    6    6    0    0 -0.11283312172E+02  0.23140721589E+02 -0.20590564279E+03  0.20750889105E+03  0.00000000000E+00 0. -1.
         -5    1    3    3    0  503 -0.79221006469E+02  0.11477417292E+01 -0.26932048821E+03  0.28077197251E+03  0.47000000000E+01 0.  1.
         13    1    4    4    0    0  0.19031530578E+02  0.13285601298E+02 -0.37799255864E+02  0.44356398657E+02  0.00000000000E+00 0. -1.
        -14    1    4    4    0    0  0.45614337622E+01  0.66151201602E+02 -0.58530043794E+03  0.58904447269E+03  0.00000000000E+00 0.  1.
</event>
<event>
12    1  0.8633375E-002  0.1944842E+03  0.7818608E-02  0.1154730E+00
         21   -1    0    0  501  502  0.00000000000E+00  0.00000000000E+00  0.20532119731E+04  0.20532119731E+04  0.00000000000E+00 0.  1.
         21   -1    0    0  502  503 -0.00000000000E+00 -0.00000000000E+00 -0.24067834914E+02  0.24067834914E+02  0.00000000000E+00 0.  1.
         -6    2    1    2    0  503 -0.60971620928E+02 -0.66645609578E+02  0.50898823553E+03  0.54487901147E+03  0.17223512243E+03 0.  0.
        -24    2    3    3    0    0 -0.46950631697E+01 -0.51306091211E+01  0.99978040412E+02  0.12743131900E+03  0.78706834077E+02 0.  0.
          6    2    1    2  501    0  0.60971620928E+02  0.66645609578E+02  0.15201559027E+04  0.15324007966E+04  0.17093582724E+03 0.  0.
         24    2    5    5    0    0 -0.56812783210E+01  0.86319396818E+02  0.76778728395E+03  0.77681473573E+03  0.80377267074E+02 0.  0.
          5    1    5    5  501    0  0.66652899249E+02 -0.19673787239E+02  0.75236861875E+03  0.75558606085E+03  0.47000000000E+01 0. -1.
        -11    1    6    6    0    0  0.75255455329E+01  0.98732483704E+02  0.68042624494E+03  0.68759334782E+03  0.00000000000E+00 0.  1.
         12    1    6    6    0    0 -0.13206823854E+02 -0.12413086886E+02  0.87361039014E+02  0.89221387907E+02  0.00000000000E+00 0. -1.
         -5    1    3    3    0  503 -0.56276557759E+02 -0.61515000457E+02  0.40901019512E+03  0.41744769247E+03  0.47000000000E+01 0.  1.
         11    1    4    4    0    0 -0.20886564387E+02  0.32139380894E+02  0.50758860571E+02  0.63605426675E+02  0.00000000000E+00 0. -1.
        -12    1    4    4    0    0  0.16191501217E+02 -0.37269990015E+02  0.49219179841E+02  0.63825892329E+02  0.00000000000E+00 0.  1.
</event>
<event>
12    1  0.8633375E-002  0.2651141E+03  0.7818608E-02  0.1104157E+00
         21   -1    0    0  501  502  0.00000000000E+00  0.00000000000E+00  0.11868498912E+03  0.11868498912E+03  0.00000000000E+00 0.  1.
         21   -1    0    0  502  503 -0.00000000000E+00 -0.00000000000E+00 -0.11619018731E+04  0.11619018731E+04  0.00000000000E+00 0.  1.
         -6    2    1    2    0  503  0.19224972307E+03 -0.58645031896E+02 -0.97041052838E+03  0.10059732104E+04  0.17287657656E+03 0.  0.
        -24    2    3    3    0    0  0.15248049169E+03 -0.95057070572E+02 -0.59797905350E+03  0.62962932273E+03  0.81043128090E+02 0.  0.
          6    2    1    2  501    0 -0.19224972307E+03  0.58645031896E+02 -0.72806355629E+02  0.27461365182E+03  0.17237371191E+03 0.  0.
         24    2    5    5    0    0 -0.19771600941E+02  0.35361320665E+02 -0.13219950221E+02  0.90593371601E+02  0.79944059762E+02 0.  0.
          5    1    5    5  501    0 -0.17247812213E+03  0.23283711231E+02 -0.59586405409E+02  0.18402028022E+03  0.47000000000E+01 0. -1.
        -13    1    6    6    0    0 -0.34476985754E+02  0.54272724080E+02 -0.24946396311E+01  0.64346051570E+02  0.00000000000E+00 0.  1.
         14    1    6    6    0    0  0.14705384812E+02 -0.18911403414E+02 -0.10725310590E+02  0.26247320031E+02  0.00000000000E+00 0. -1.
         -5    1    3    3    0  503  0.39769231388E+02  0.36412038675E+02 -0.37243147488E+03  0.37634388769E+03  0.47000000000E+01 0.  1.
         13    1    4    4    0    0  0.13888455146E+03 -0.48334915386E+02 -0.41473176904E+03  0.44003138858E+03  0.00000000000E+00 0. -1.
        -14    1    4    4    0    0  0.13595940229E+02 -0.46722155186E+02 -0.18324728446E+03  0.18959793416E+03  0.00000000000E+00 0.  1.
</event>
<event>
12    1  0.8633375E-002  0.1891386E+03  0.7818608E-02  0.1159527E+00
         21   -1    0    0  501  502  0.00000000000E+00  0.00000000000E+00  0.17971822324E+03  0.17971822324E+03  0.00000000000E+00 0. -1.
         21   -1    0    0  502  503 -0.00000000000E+00 -0.00000000000E+00 -0.20753723560E+03  0.20753723560E+03  0.00000000000E+00 0. -1.
         -6    2    1    2    0  503 -0.19235845136E+02  0.76256368677E+02 -0.55956468536E+02  0.19603534178E+03  0.17062730542E+03 0.  0.
        -24    2    3    3    0    0  0.29613314898E+02  0.95649376884E+02 -0.65173081912E+02  0.14246888618E+03  0.77615083622E+02 0.  0.
          6    2    1    2  501    0  0.19235845136E+02 -0.76256368677E+02  0.28137456177E+02  0.19122011706E+03  0.17201268914E+03 0.  0.
         24    2    5    5    0    0 -0.41161199338E+01 -0.10246051312E+03  0.58516543375E+02  0.14456231602E+03  0.83420490129E+02 0.  0.
          5    1    5    5  501    0  0.23351965070E+02  0.26204144442E+02 -0.30379087198E+02  0.46657801036E+02  0.47000000000E+01 0. -1.
        -13    1    6    6    0    0  0.13332226089E+02 -0.12180927175E+02  0.48879036543E+02  0.52108381789E+02  0.00000000000E+00 0.  1.
         14    1    6    6    0    0 -0.17448346023E+02 -0.90279585944E+02  0.96375068315E+01  0.92453934233E+02  0.00000000000E+00 0. -1.
         -5    1    3    3    0  503 -0.48849160034E+02 -0.19393008207E+02  0.92166133757E+01  0.53566455599E+02  0.47000000000E+01 0.  1.
         13    1    4    4    0    0  0.17267485011E+02  0.37392855062E+02  0.13909367268E+02  0.43472544739E+02  0.00000000000E+00 0. -1.
        -14    1    4    4    0    0  0.12345829887E+02  0.58256521822E+02 -0.79082449179E+02  0.98996341440E+02  0.00000000000E+00 0.  1.
</event>
<event>
12    1  0.8633375E-002  0.1827385E+03  0.7818608E-02  0.1168130E+00
         21   -1    0    0  501  502  0.00000000000E+00  0.00000000000E+00  0.49645123384E+02  0.49645123384E+02  0.00000000000E+00 0. -1.
         21   -1    0    0  502  503 -0.00000000000E+00 -0.00000000000E+00 -0.14197156296E+04  0.14197156296E+04  0.00000000000E+00 0. -1.
         -6    2    1    2    0  503 -0.48279013403E+02  0.38938149666E+02 -0.12228056410E+04  0.12346688256E+04  0.15907994985E+03 0.  0.
        -24    2    3    3    0    0 -0.23385309288E+02  0.85505287462E+02 -0.91253999740E+03  0.91990692437E+03  0.75109758145E+02 0.  0.
          6    2    1    2  501    0  0.48279013403E+02 -0.38938149666E+02 -0.14726486513E+03  0.23469192737E+03  0.17189042334E+03 0.  0.
         24    2    5    5    0    0  0.36920099879E+02 -0.92916516902E+02 -0.11397491271E+03  0.17009316594E+03  0.77102733309E+02 0.  0.
          5    1    5    5  501    0  0.11358913524E+02  0.53978367235E+02 -0.33289952420E+02  0.64598761427E+02  0.47000000000E+01 0. -1.
        -13    1    6    6    0    0  0.35381260682E+02 -0.19561493058E+02 -0.79148453728E+02  0.88876112346E+02  0.00000000000E+00 0.  1.
         14    1    6    6    0    0  0.15388391973E+01 -0.73355023844E+02 -0.34826458984E+02  0.81217053595E+02  0.00000000000E+00 0. -1.
         -5    1    3    3    0  503 -0.24893704115E+02 -0.46567137796E+02 -0.31026564364E+03  0.31476190120E+03  0.47000000000E+01 0.  1.
         13    1    4    4    0    0 -0.62098514338E+01  0.10493679503E+02 -0.50606017856E+03  0.50620705634E+03  0.00000000000E+00 0. -1.
        -14    1    4    4    0    0 -0.17175457854E+02  0.75011607959E+02 -0.40647981885E+03  0.41369986803E+03  0.00000000000E+00 0.  1.
</event>
<event>
12    1  0.8633375E-002  0.2314621E+03  0.7818608E-02  0.1126226E+00
         21   -1    0    0  501  502  0.00000000000E+00  0.00000000000E+00  0.68134213253E+03  0.68134213253E+03  0.00000000000E+00 0. -1.
         21   -1    0    0  502  503 -0.00000000000E+00 -0.00000000000E+00 -0.13359033901E+03  0.13359033901E+03  0.00000000000E+00 0.  1.
         -6    2    1    2    0  503  0.11022046995E+03 -0.11177700473E+03  0.10949367901E+02  0.23172091858E+03  0.17009422291E+03 0.  0.
        -24    2    3    3    0    0  0.71781781010E+02 -0.14095352198E+03 -0.11565445513E+02  0.17826244133E+03  0.81383161748E+02 0.  0.
          6    2    1    2  501    0 -0.11022046995E+03  0.11177700473E+03  0.53680242562E+03  0.58321155296E+03  0.16533668854E+03 0.  0.
         24    2    5    5    0    0 -0.50276239758E+01  0.54544698071E+02  0.14812291696E+03  0.17647463280E+03  0.78755929328E+02 0.  0.
          5    1    5    5  501    0 -0.10519284598E+03  0.57232306661E+02  0.38867950866E+03  0.40673692016E+03  0.47000000000E+01 0. -1.
        -13    1    6    6    0    0 -0.16100552740E+02 -0.11729378678E+02  0.87638663000E+01  0.21762616461E+02  0.00000000000E+00 0.  1.
         14    1    6    6    0    0  0.11072928764E+02  0.66274076749E+02  0.13935905066E+03  0.15471201634E+03  0.00000000000E+00 0. -1.
         -5    1    3    3    0  503  0.38438688944E+02  0.29176517251E+02  0.22514813415E+02  0.53458477249E+02  0.47000000000E+01 0.  1.
         13    1    4    4    0    0  0.47768485386E+02 -0.21243401080E+02  0.12653595862E+02  0.53788695594E+02  0.00000000000E+00 0. -1.
        -14    1    4    4    0    0  0.24013295624E+02 -0.11971012090E+03 -0.24219041376E+02  0.12447374574E+03  0.00000000000E+00 0.  1.
</event>
<event>
12    1  0.8633375E-002  0.2079315E+03  0.7818608E-02  0.1143304E+00
         21   -1    0    0  501  502  0.00000000000E+00  0.00000000000E+00  0.10051061648E+04  0.10051061648E+04  0.00000000000E+00 0.  1.
         21   -1    0    0  502  503 -0.00000000000E+00 -0.00000000000E+00 -0.43117288751E+02  0.43117288751E+02  0.00000000000E+00 0. -1.
         -6    2    1    2    0  503 -0.11269765288E+03  0.27359728636E+02  0.51657361443E+03  0.55685168046E+03  0.17258672946E+03 0.  0.
        -24    2    3    3    0    0 -0.69426451303E+02  0.83355122537E+02  0.32969174235E+03  0.35696469955E+03  0.83420879619E+02 0.  0.
          6    2    1    2  501    0  0.11269765288E+03 -0.27359728636E+02  0.44541526163E+03  0.49137177311E+03  0.17205274888E+03 0.  0.
         24    2    5    5    0    0  0.13322175242E+03 -0.56502055961E+02  0.30715575271E+03  0.34851416670E+03  0.78593576814E+02 0.  0.
          5    1    5    5  501    0 -0.20524099542E+02  0.29142327325E+02  0.13825950892E+03  0.14285760641E+03  0.47000000000E+01 0. -1.
        -11    1    6    6    0    0  0.91749689735E+02  0.31270768710E+01  0.18072746492E+03  0.20270717983E+03  0.00000000000E+00 0.  1.
         12    1    6    6    0    0  0.41472062686E+02 -0.59629132832E+02  0.12642828779E+03  0.14580698687E+03  0.00000000000E+00 0. -1.
         -5    1    3    3    0  503 -0.43271201575E+02 -0.55995393901E+02  0.18688187208E+03  0.19988698090E+03  0.47000000000E+01 0.  1.
         11    1    4    4    0    0 -0.61791368943E+02  0.68653279151E+02  0.14758266091E+03  0.17410366974E+03  0.00000000000E+00 0. -1.
        -12    1    4    4    0    0 -0.76350823598E+01  0.14701843386E+02  0.18210908144E+03  0.18286102981E+03  0.00000000000E+00 0.  1.
</event>
<event>
12    1  0.8633375E-002  0.2493772E+03  0.7818608E-02  0.1113709E+00
         21   -1    0    0  501  502  0.00000000000E+00  0.00000000000E+00  0.14808090558E+03  0.14808090558E+03  0.00000000000E+00 0.  1.
         21   -1    0    0  502  503 -0.00000000000E+00 -0.00000000000E+00 -0.79003489694E+03  0.79003489694E+03  0.00000000000E+00 0.  1.
         -6    2    1    2    0  503 -0.17829718973E+03  0.29147450047E+02 -0.64207404998E+03  0.68880191774E+03  0.17189978045E+03 0.  0.
        -24    2    3    3    0    0 -0.16420986181E+03  0.16797196393E+02 -0.34063645873E+03  0.38674613980E+03  0.79324366413E+02 0.  0.
          6    2    1    2  501    0  0.17829718973E+03 -0.29147450047E+02  0.12005862054E+00  0.24931388478E+03  0.17180784912E+03 0.  0.
         24    2    5    5    0    0  0.37166748229E+02  0.32839601735E+02 -0.11565345774E+02  0.94656732400E+02  0.79789304733E+02 0.  0.
          5    1    5    5  501    0  0.14113044150E+03 -0.61987051782E+02  0.11685404394E+02  0.15465715238E+03  0.47000000000E+01 0. -1.
        -13    1    6    6    0    0 -0.44560261595E+01 -0.21511293767E+02  0.81266784898E+01  0.23422955235E+02  0.00000000000E+00 0.  1.
         14    1    6    6    0    0  0.41622774388E+02  0.54350895502E+02 -0.19692024264E+02  0.71233777165E+02  0.00000000000E+00 0. -1.
         -5    1    3    3    0  503 -0.14087327912E+02  0.12350253654E+02 -0.30143759125E+03  0.30205577795E+03  0.47000000000E+01 0.  1.
         11    1    4    4    0    0 -0.90265455701E+02 -0.73962861173E+01 -0.10534290151E+03  0.13892330416E+03  0.00000000000E+00 0. -1.
        -12    1    4    4    0    0 -0.73944406114E+02  0.24193482510E+02 -0.23529355722E+03  0.24782283563E+03  0.00000000000E+00 0.  1.
</event>
<event>
12    1  0.8633375E-002  0.2631240E+03  0.7818608E-02  0.1106531E+00
         21   -1    0    0  503  502  0.00000000000E+00  0.00000000000E+00  0.50902302458E+03  0.50902302458E+03  0.00000000000E+00 0.  1.
         21   -1    0    0  501  503 -0.00000000000E+00 -0.00000000000E+00 -0.19174782345E+03  0.19174782345E+03  0.00000000000E+00 0. -1.
          6    2    1    2  501    0  0.16120554487E+03  0.79972991141E+02 -0.39084442940E+02  0.25779633710E+03  0.18041189188E+03 0.  0.
         24    2    3    3    0    0  0.99230837966E+01 -0.94506673636E+01 -0.28705895375E+01  0.78306763839E+02  0.77044962671E+02 0.  0.
         -6    2    1    2    0  502 -0.16120554487E+03 -0.79972991141E+02  0.35635964407E+03  0.44297451094E+03  0.19196696175E+03 0.  0.
        -24    2    5    5    0    0 -0.74189870518E+02  0.18250733167E+02  0.78232629990E+02  0.13540930880E+03  0.79863072608E+02 0.  0.
          5    1    3    3  501    0  0.15128246108E+03  0.89423658504E+02 -0.36213853402E+02  0.17948957326E+03  0.47000000000E+01 0. -1.
        -11    1    4    4    0    0  0.72904109583E+01  0.55711938812E+01  0.35684345065E+02  0.36845091613E+02  0.00000000000E+00 0.  1.
         12    1    4    4    0    0  0.26326728384E+01 -0.15021861245E+02 -0.38554934603E+02  0.41461672226E+02  0.00000000000E+00 0. -1.
         -5    1    5    5    0  502 -0.87015674355E+02 -0.98223724308E+02  0.27812701408E+03  0.30756520213E+03  0.47000000000E+01 0.  1.
         11    1    6    6    0    0 -0.30036955769E+02  0.21811478546E+02  0.82935650760E+02  0.90864082426E+02  0.00000000000E+00 0. -1.
        -12    1    6    6    0    0 -0.44152914749E+02 -0.35607453789E+01 -0.47030207696E+01  0.44545226376E+02  0.00000000000E+00 0.  1.
</event>
<event>
12    1  0.8633375E-002  0.2144130E+03  0.7818608E-02  0.1138306E+00
         21   -1    0    0  503  502  0.00000000000E+00  0.00000000000E+00  0.12598536991E+03  0.12598536991E+03  0.00000000000E+00 0. -1.
         21   -1    0    0  501  503 -0.00000000000E+00 -0.00000000000E+00 -0.40975011932E+03  0.40975011932E+03  0.00000000000E+00 0. -1.
          6    2    1    2  501    0 -0.69967794889E+01  0.12587581162E+03 -0.23182839063E+03  0.31512198730E+03  0.17223178948E+03 0.  0.
         24    2    3    3    0    0 -0.61616566724E+02  0.10243236190E+03 -0.20426915187E+03  0.24943699561E+03  0.78765083098E+02 0.  0.
         -6    2    1    2    0  502  0.69967794889E+01 -0.12587581162E+03 -0.51936358775E+02  0.22061350192E+03  0.17343372508E+03 0.  0.
        -24    2    5    5    0    0 -0.26607167246E+02 -0.88084512804E+02 -0.93066095454E+02  0.15525944511E+03  0.83530679565E+02 0.  0.
          5    1    3    3  501    0  0.54619787235E+02  0.23443449717E+02 -0.27559238760E+02  0.65684991690E+02  0.47000000000E+01 0. -1.
        -11    1    4    4    0    0 -0.31425049667E+02  0.37026249720E+02 -0.15430726986E+03  0.16176900335E+03  0.00000000000E+00 0.  1.
         12    1    4    4    0    0 -0.30191517057E+02  0.65406112180E+02 -0.49961882013E+02  0.87667992261E+02  0.00000000000E+00 0. -1.
         -5    1    5    5    0  502  0.33603946735E+02 -0.37791298814E+02  0.41129736679E+02  0.65354056810E+02  0.47000000000E+01 0.  1.
         11    1    6    6    0    0 -0.22388605924E+02  0.14763182962E+01  0.43585566170E+01  0.22856644695E+02  0.00000000000E+00 0. -1.
        -12    1    6    6    0    0 -0.42185613218E+01 -0.89560831100E+02 -0.97424652071E+02  0.13240280042E+03  0.00000000000E+00 0.  1.
</event>
<event>
12    1  0.8633375E-002  0.2427485E+03  0.7818608E-02  0.1117981E+00
         21   -1    0    0  501  502  0.00000000000E+00  0.00000000000E+00  0.15850522479E+04  0.15850522479E+04  0.00000000000E+00 0.  1.
         21   -1    0    0  502  503 -0.00000000000E+00 -0.00000000000E+00 -0.55212611189E+02  0.55212611189E+02  0.00000000000E+00 0.  1.
         -6    2    1    2    0  503  0.58583940911E+02 -0.16173415934E+03  0.12337766984E+04  0.12574306276E+04  0.17127996155E+03 0.  0.
        -24    2    3    3    0    0  0.33448810682E+02 -0.17468049561E+03  0.11840594089E+04  0.12000435099E+04  0.80471383107E+02 0.  0.
          6    2    1    2  501    0 -0.58583940911E+02  0.16173415934E+03  0.29606293829E+03  0.38283423149E+03  0.17122724357E+03 0.  0.
         24    2    5    5    0    0 -0.57270326623E+02  0.10124622737E+03  0.86954863461E+02  0.16509862932E+03  0.78522100414E+02 0.  0.
          5    1    5    5  501    0 -0.13136142875E+01  0.60487931963E+02  0.20910807483E+03  0.21773560217E+03  0.47000000000E+01 0. -1.
        -13    1    6    6    0    0 -0.69110414386E+02  0.98248152739E+02  0.92574394094E+02  0.15165410425E+03  0.00000000000E+00 0.  1.
         14    1    6    6    0    0  0.11840087763E+02  0.29980746336E+01 -0.56195306331E+01  0.13444525067E+02  0.00000000000E+00 0. -1.
         -5    1    3    3    0  503  0.25135130229E+02  0.12946336277E+02  0.49717289564E+02  0.57387117685E+02  0.47000000000E+01 0.  1.
         11    1    4    4    0    0  0.22644050536E+02 -0.57326028559E+02  0.66122123090E+03  0.66408775231E+03  0.00000000000E+00 0. -1.
        -12    1    4    4    0    0  0.10804760146E+02 -0.11735446705E+03  0.52283817797E+03  0.53595575761E+03  0.00000000000E+00 0.  1.
</event>
<event>
12    1  0.8633375E-002  0.2347097E+03  0.7818608E-02  0.1123491E+00
         21   -1    0    0  503  502  0.00000000000E+00  0.00000000000E+00  0.66391010720E+03  0.66391010720E+03  0.00000000000E+00 0.  1.
         21   -1    0    0  501  503 -0.00000000000E+00 -0.00000000000E+00 -0.83354160687E+02  0.83354160687E+02  0.00000000000E+00 0. -1.
          6    2    1    2  501    0 -0.15750703208E+03 -0.16110240071E+02  0.32236573548E+03  0.39833612722E+03  0.17229044617E+03 0.  0.
         24    2    3    3    0    0 -0.12213070456E+02 -0.34545260799E+02  0.11183964303E+03  0.14183366938E+03  0.79159016432E+02 0.  0.
         -6    2    1    2    0  502  0.15750703208E+03  0.16110240071E+02  0.25819021103E+03  0.34892814067E+03  0.17326470296E+03 0.  0.
        -24    2    5    5    0    0  0.78504326316E+02  0.69646072801E+02  0.10402037458E+03  0.16755024407E+03  0.78989500908E+02 0.  0.
          5    1    3    3  501    0 -0.14529396162E+03  0.18435020728E+02  0.21052609246E+03  0.25650245784E+03  0.47000000000E+01 0. -1.
        -13    1    4    4    0    0 -0.10672316611E+02  0.57132354081E+01  0.98725716507E+02  0.99465101923E+02  0.00000000000E+00 0.  1.
         14    1    4    4    0    0 -0.15407538452E+01 -0.40258496207E+02  0.13113926520E+02  0.42368567453E+02  0.00000000000E+00 0. -1.
         -5    1    5    5    0  502  0.79002705764E+02 -0.53535832730E+02  0.15416983644E+03  0.18137789659E+03  0.47000000000E+01 0.  1.
         11    1    6    6    0    0  0.91979534402E+02  0.58387816128E+02  0.70670891361E+02  0.12986048940E+03  0.00000000000E+00 0. -1.
        -12    1    6    6    0    0 -0.13475208086E+02  0.11258256673E+02  0.33349483222E+02  0.37689754675E+02  0.00000000000E+00 0.  1.
</event>
<event>
12    1  0.8633375E-002  0.2364149E+03  0.7818608E-02  0.1122738E+00
         21   -1    0    0  503  502  0.00000000000E+00  0.00000000000E+00  0.45181439833E+03  0.45181439833E+03  0.00000000000E+00 0.  1.
         21   -1    0    0  501  503 -0.00000000000E+00 -0.00000000000E+00 -0.15402788518E+03  0.15402788518E+03  0.00000000000E+00 0.  1.
          6    2    1    2  501    0 -0.10502376238E+03 -0.12095806043E+03  0.10152453232E+02  0.23351801008E+03  0.16960762269E+03 0.  0.
         24    2    3    3    0    0 -0.12099989450E+03 -0.14407397216E+03  0.14816128901E+02  0.20464896016E+03  0.79141615475E+02 0.  0.
         -6    2    1    2    0  502  0.10502376238E+03  0.12095806043E+03  0.28763405992E+03  0.37232427344E+03  0.17387112789E+03 0.  0.
        -24    2    5    5    0    0  0.11224632201E+03  0.28990066441E+02  0.17252451007E+03  0.22473506058E+03  0.85448698758E+02 0.  0.
          5    1    3    3  501    0  0.15976132114E+02  0.23115911724E+02 -0.46636756694E+01  0.28869049913E+02  0.47000000000E+01 0. -1.
        -11    1    4    4    0    0 -0.61524075208E+02 -0.12792739955E+03  0.17092893664E+02  0.14297831443E+03  0.00000000000E+00 0.  1.
         12    1    4    4    0    0 -0.59475819288E+02 -0.16146572611E+02 -0.22767647632E+01  0.61670645731E+02  0.00000000000E+00 0. -1.
         -5    1    5    5    0  502 -0.72225596261E+01  0.91967993991E+02  0.11510954985E+03  0.14758921286E+03  0.47000000000E+01 0.  1.
         11    1    6    6    0    0  0.12138327043E+03  0.33110640108E+02  0.12949032196E+03  0.18054904129E+03  0.00000000000E+00 0. -1.
        -12    1    6    6    0    0 -0.91369484245E+01 -0.41205736670E+01  0.43034188111E+02  0.44186019285E+02  0.00000000000E+00 0.  1.
</event>
<event>
12    1  0.8633375E-002  0.2277442E+03  0.7818608E-02  0.1128786E+00
         21   -1    0    0  501  502  0.00000000000E+00  0.00000000000E+00  0.24870961663E+03  0.24870961663E+03  0.00000000000E+00 0.  1.
         21   -1    0    0  502  503 -0.00000000000E+00 -0.00000000000E+00 -0.21075005543E+03  0.21075005543E+03  0.00000000000E+00 0. -1.
         -6    2    1    2    0  503 -0.12620154851E+03 -0.80091294468E+02 -0.16494773256E+02  0.22529586567E+03  0.16776383176E+03 0.  0.
        -24    2    3    3    0    0 -0.15928190851E+03 -0.81462457411E+02 -0.21514596793E+02  0.19148050031E+03  0.64769173043E+02 0.  0.
          6    2    1    2  501    0  0.12620154851E+03  0.80091294468E+02  0.54454334456E+02  0.23416380640E+03  0.17183121774E+03 0.  0.
         24    2    5    5    0    0  0.91344750251E+01 -0.90695814830E+01  0.20286117228E+02  0.83021758761E+02  0.79469427664E+02 0.  0.
          5    1    5    5  501    0  0.11706707348E+03  0.89160875951E+02  0.34168217229E+02  0.15114204763E+03  0.47000000000E+01 0. -1.
        -13    1    6    6    0    0 -0.34974621197E+02 -0.47202802771E+01  0.28996138656E+01  0.35410633069E+02  0.00000000000E+00 0.  1.
         14    1    6    6    0    0  0.44109096222E+02 -0.43493012059E+01  0.17386503362E+02  0.47611125692E+02  0.00000000000E+00 0. -1.
         -5    1    3    3    0  503  0.33080360004E+02  0.13711629423E+01  0.50198235367E+01  0.33815365356E+02  0.47000000000E+01 0.  1.
         11    1    4    4    0    0 -0.62697793685E+02 -0.61910898696E+02 -0.28715883244E+02  0.92674563181E+02  0.00000000000E+00 0. -1.
        -12    1    4    4    0    0 -0.96584114828E+02 -0.19551558715E+02  0.72012864510E+01  0.98805937128E+02  0.00000000000E+00 0.  1.
</event>
<event>
12    1  0.8633375E-002  0.1804217E+03  0.7818608E-02  0.1168141E+00
         21   -1    0    0  501  502  0.00000000000E+00  0.00000000000E+00  0.18924419169E+03  0.18924419169E+03  0.00000000000E+00 0.  1.
         21   -1    0    0  502  503 -0.00000000000E+00 -0.00000000000E+00 -0.20258782719E+03  0.20258782719E+03  0.00000000000E+00 0.  1.
         -6    2    1    2    0  503 -0.12229840089E+02 -0.45724528485E+02 -0.86271442309E+02  0.19722868725E+03  0.17092715356E+03 0.  0.
        -24    2    3    3    0    0  0.55087061888E+02 -0.25333947799E+02 -0.66877521462E+02  0.12411538314E+03  0.85179998571E+02 0.  0.
          6    2    1    2  501    0  0.12229840089E+02  0.45724528485E+02  0.72927806808E+02  0.19460333163E+03  0.17410252779E+03 0.  0.
         24    2    5    5    0    0 -0.44454279322E+02  0.64513947621E+02  0.73941062483E+02  0.13469299570E+03  0.80849798891E+02 0.  0.
          5    1    5    5  501    0  0.56684119411E+02 -0.18789419137E+02 -0.10132556746E+01  0.59910335936E+02  0.47000000000E+01 0. -1.
        -13    1    6    6    0    0 -0.24689517505E+02 -0.12407268186E+02  0.39312811934E+02  0.48052156670E+02  0.00000000000E+00 0.  1.
         14    1    6    6    0    0 -0.19764761817E+02  0.76921215808E+02  0.34628250549E+02  0.86640839026E+02  0.00000000000E+00 0. -1.
         -5    1    3    3    0  503 -0.67316901976E+02 -0.20390580686E+02 -0.19393920848E+02  0.73113304113E+02  0.47000000000E+01 0.  1.
         11    1    4    4    0    0 -0.20997008706E+02 -0.17324736043E+02 -0.10919224331E+02  0.29330024097E+02  0.00000000000E+00 0. -1.
        -12    1    4    4    0    0  0.76084070593E+02 -0.80092117554E+01 -0.55958297130E+02  0.94785359042E+02  0.00000000000E+00 0.  1.
</event>
<event>
12    1  0.8633375E-002  0.2373447E+03  0.7818608E-02  0.1121623E+00
         21   -1    0    0  501  502  0.00000000000E+00  0.00000000000E+00  0.48528528953E+03  0.48528528953E+03  0.00000000000E+00 0.  1.
         21   -1    0    0  502  503 -0.00000000000E+00 -0.00000000000E+00 -0.11811447737E+03  0.11811447737E+03  0.00000000000E+00 0.  1.
         -6    2    1    2    0  503 -0.53764271762E+02 -0.15477564410E+03  0.14275502079E+03  0.27696842625E+03  0.17171609201E+03 0.  0.
        -24    2    3    3    0    0  0.10496023731E+02 -0.12407317257E+03  0.42809431150E+02  0.15415459062E+03  0.80166525098E+02 0.  0.
          6    2    1    2  501    0  0.53764271762E+02  0.15477564410E+03  0.22441579137E+03  0.32643134064E+03  0.17131513598E+03 0.  0.
         24    2    5    5    0    0  0.14859977620E+02  0.12157201419E+03  0.67118528109E+02  0.16096066599E+03  0.80017908066E+02 0.  0.
          5    1    5    5  501    0  0.38904294143E+02  0.33203629912E+02  0.15729726326E+03  0.16547067466E+03  0.47000000000E+01 0. -1.
        -13    1    6    6    0    0 -0.28471323976E+02  0.59119062135E+02  0.11133014597E+02  0.66555419093E+02  0.00000000000E+00 0.  1.
         14    1    6    6    0    0  0.43331301596E+02  0.62452952052E+02  0.55985513512E+02  0.94405246894E+02  0.00000000000E+00 0. -1.
         -5    1    3    3    0  503 -0.64260295493E+02 -0.30702471526E+02  0.99945589640E+02  0.12281383563E+03  0.47000000000E+01 0.  1.
         13    1    4    4    0    0 -0.13753172567E+02 -0.29154559483E+02 -0.19855392846E+02  0.37859935544E+02  0.00000000000E+00 0. -1.
        -14    1    4    4    0    0  0.24249196298E+02 -0.94918613089E+02  0.62664823996E+02  0.11629465507E+03  0.00000000000E+00 0.  1.
</event>
<event>
12    1  0.8633375E-002  0.2729743E+03  0.7818608E-02  0.1099699E+00
         21   -1    0    0  503  502  0.00000000000E+00  0.00000000000E+00  0.13471539910E+03  0.13471539910E+03  0.00000000000E+00 0. -1.
         21   -1    0    0  501  503 -0.00000000000E+00 -0.00000000000E+00 -0.63711673249E+03  0.63711673249E+03  0.00000000000E+00 0.  1.
          6    2    1    2  501    0  0.20649681371E+03  0.44178410708E+02 -0.39293085618E+03  0.47844499813E+03  0.17298061293E+03 0.  0.
         24    2    3    3    0    0  0.17699566449E+03  0.79778013310E-01 -0.20146997123E+03  0.27971309913E+03  0.79509728389E+02 0.  0.
         -6    2    1    2    0  502 -0.20649681371E+03 -0.44178410708E+02 -0.10947047722E+03  0.29338713346E+03  0.17175435556E+03 0.  0.
        -24    2    5    5    0    0 -0.14642393430E+03 -0.93378189145E+02 -0.57312869889E+02  0.19972884477E+03  0.80295651402E+02 0.  0.
          5    1    3    3  501    0  0.29501149227E+02  0.44098632695E+02 -0.19146088495E+03  0.19873189900E+03  0.47000000000E+01 0. -1.
        -13    1    4    4    0    0  0.47135160787E+01  0.90623921443E+00 -0.50244153667E+02  0.50472898481E+02  0.00000000000E+00 0.  1.
         14    1    4    4    0    0  0.17228214841E+03 -0.82646120112E+00 -0.15122581756E+03  0.22924020065E+03  0.00000000000E+00 0. -1.
         -5    1    5    5    0  502 -0.60072879412E+02  0.49199778437E+02 -0.52157607327E+02  0.93658288694E+02  0.47000000000E+01 0.  1.
         13    1    6    6    0    0 -0.37643122846E+02 -0.13948722418E+02  0.19545564279E+02  0.44649755181E+02  0.00000000000E+00 0. -1.
        -14    1    6    6    0    0 -0.10878081145E+03 -0.79429466726E+02 -0.76858434167E+02  0.15507908959E+03  0.00000000000E+00 0.  1.
</event>
<event>
12    1  0.8633375E-002  0.3002322E+03  0.7818608E-02  0.1085133E+00
         21   -1    0    0  501  502  0.00000000000E+00  0.00000000000E+00  0.75120739841E+02  0.75120739841E+02  0.00000000000E+00 0.  1.
         21   -1    0    0  502  503 -0.00000000000E+00 -0.00000000000E+00 -0.12705426248E+04  0.12705426248E+04  0.00000000000E+00 0.  1.
         -6    2    1    2    0  503  0.22430777599E+03  0.10118962358E+03 -0.75657207928E+03  0.81394115322E+03  0.17188825287E+03 0.  0.
        -24    2    3    3    0    0  0.14230597655E+03  0.28275732892E+02 -0.26571790197E+03  0.31094945951E+03  0.70944026575E+02 0.  0.
          6    2    1    2  501    0 -0.22430777599E+03 -0.10118962358E+03 -0.43884980571E+03  0.53172221145E+03  0.17200592980E+03 0.  0.
         24    2    5    5    0    0 -0.14007752883E+03 -0.13445405291E+03 -0.31891063250E+03  0.38136014154E+03  0.77665691330E+02 0.  0.
          5    1    5    5  501    0 -0.84230247158E+02  0.33264429334E+02 -0.11993917321E+03  0.15036206990E+03  0.47000000000E+01 0. -1.
        -11    1    6    6    0    0 -0.99776780918E+02 -0.43018812646E+02 -0.15238079908E+03  0.18715216317E+03  0.00000000000E+00 0.  1.
         12    1    6    6    0    0 -0.40300747916E+02 -0.91435240267E+02 -0.16652983342E+03  0.19420797837E+03  0.00000000000E+00 0. -1.
         -5    1    3    3    0  503  0.82001799441E+02  0.72913890687E+02 -0.49085417730E+03  0.50299169371E+03  0.47000000000E+01 0.  1.
         13    1    4    4    0    0  0.84517357227E+02  0.42733848965E+02 -0.11558185507E+03  0.14942734268E+03  0.00000000000E+00 0. -1.
        -14    1    4    4    0    0  0.57788619324E+02 -0.14458116073E+02 -0.15013604690E+03  0.16152211683E+03  0.00000000000E+00 0.  1.
</event>
<event>
12    1  0.8633375E-002  0.2156918E+03  0.7818608E-02  0.1140221E+00
         21   -1    0    0  503  502  0.00000000000E+00  0.00000000000E+00  0.99740368997E+03  0.99740368997E+03  0.00000000000E+00 0. -1.
         21   -1    0    0  501  503 -0.00000000000E+00 -0.00000000000E+00 -0.46054205020E+02  0.46054205020E+02  0.00000000000E+00 0.  1.
          6    2    1    2  501    0  0.97716812633E+02 -0.25438176080E+02  0.33268508218E+03  0.38827197603E+03  0.17285857569E+03 0.  0.
         24    2    3    3    0    0  0.11393591876E+02  0.32964585585E+02  0.20988143954E+03  0.22713412927E+03  0.79518653014E+02 0.  0.
         -6    2    1    2    0  502 -0.97716812633E+02  0.25438176080E+02  0.61866440277E+03  0.65518591896E+03  0.19059713765E+03 0.  0.
        -24    2    5    5    0    0  0.22911814112E+02 -0.34611283679E+01  0.15898401778E+03  0.17904037217E+03  0.79010165935E+02 0.  0.
          5    1    3    3  501    0  0.86323220757E+02 -0.58402761665E+02  0.12280364264E+03  0.16113784676E+03  0.47000000000E+01 0. -1.
        -11    1    4    4    0    0  0.16938291370E+02 -0.14917869926E+02  0.16827242480E+02  0.28153235110E+02  0.00000000000E+00 0.  1.
         12    1    4    4    0    0 -0.55446994945E+01  0.47882455511E+02  0.19305419706E+03  0.19898089416E+03  0.00000000000E+00 0. -1.
         -5    1    5    5    0  502 -0.12062862675E+03  0.28899304448E+02  0.45968038499E+03  0.47614554680E+03  0.47000000000E+01 0.  1.
         11    1    6    6    0    0  0.20494707541E+02 -0.31182660513E+02  0.14112707181E+03  0.14597685348E+03  0.00000000000E+00 0. -1.
        -12    1    6    6    0    0  0.24171065711E+01  0.27721532145E+02  0.17856945967E+02  0.33063518686E+02  0.00000000000E+00 0.  1.
</event>
<event>
12    1  0.8633375E-002  0.1851051E+03  0.7818608E-02  0.1162973E+00
         21   -1    0    0  501  502  0.00000000000E+00  0.00000000000E+00  0.35325370503E+02  0.35325370503E+02  0.00000000000E+00 0. -1.
         21   -1    0    0  502  503 -0.00000000000E+00 -0.00000000000E+00 -0.11636129491E+04  0.11636129491E+04  0.00000000000E+00 0. -1.
         -6    2    1    2    0  503 -0.65790875210E+02  0.19551009839E+02 -0.80888957817E+03  0.82977848552E+03  0.17181182764E+03 0.  0.
        -24    2    3    3    0    0  0.11780744707E+02 -0.31891265606E+02 -0.29449763026E+03  0.30701196977E+03  0.79822657088E+02 0.  0.
          6    2    1    2  501    0  0.65790875210E+02 -0.19551009839E+02 -0.31939800045E+03  0.36915983410E+03  0.17191049758E+03 0.  0.
         24    2    5    5    0    0  0.76014861907E+02  0.45304548943E+02 -0.19049807313E+03  0.22442540603E+03  0.79034711465E+02 0.  0.
          5    1    5    5  501    0 -0.10223986697E+02 -0.64855558782E+02 -0.12889992731E+03  0.14473442808E+03  0.47000000000E+01 0. -1.
        -11    1    6    6    0    0  0.25982395175E+02  0.39933164760E+02 -0.30182128610E+02  0.56397725080E+02  0.00000000000E+00 0.  1.
         12    1    6    6    0    0  0.50032466733E+02  0.53713841829E+01 -0.16031594452E+03  0.16802768095E+03  0.00000000000E+00 0. -1.
         -5    1    3    3    0  503 -0.77571619918E+02  0.51442275445E+02 -0.51439194791E+03  0.52276651575E+03  0.47000000000E+01 0.  1.
         11    1    4    4    0    0  0.35657908682E+02 -0.19629316428E+01 -0.22363063215E+03  0.22646412340E+03  0.00000000000E+00 0. -1.
        -12    1    4    4    0    0 -0.23877163975E+02 -0.29928333963E+02 -0.70866998113E+02  0.80547846370E+02  0.00000000000E+00 0.  1.
</event>
<event>
12    1  0.8633375E-002  0.1934542E+03  0.7818608E-02  0.1155461E+00
         21   -1    0    0  503  502  0.00000000000E+00  0.00000000000E+00  0.25892277625E+03  0.25892277625E+03  0.00000000000E+00 0. -1.
         21   -1    0    0  501  503 -0.00000000000E+00 -0.00000000000E+00 -0.25602547933E+03  0.25602547933E+03  0.00000000000E+00 0. -1.
          6    2    1    2  501    0 -0.87552090627E+02  0.57899144926E+01 -0.16865872129E+03  0.25638302093E+03  0.17201045745E+03 0.  0.
         24    2    3    3    0    0 -0.80639515868E+02  0.47928540473E+02 -0.17371507093E+03  0.21312675941E+03  0.80288312960E+02 0.  0.
         -6    2    1    2    0  502  0.87552090627E+02 -0.57899144926E+01  0.17155601821E+03  0.25856523465E+03  0.17241119889E+03 0.  0.
        -24    2    5    5    0    0  0.10537320884E+02 -0.19055547363E+02  0.15945731320E+03  0.17934578983E+03  0.79146248049E+02 0.  0.
          5    1    3    3  501    0 -0.69125747585E+01 -0.42138625980E+02  0.50563496391E+01  0.43256261523E+02  0.47000000000E+01 0. -1.
        -13    1    4    4    0    0 -0.84409320432E+01 -0.17287417549E+02 -0.77376389329E+01  0.20735843256E+02  0.00000000000E+00 0.  1.
         14    1    4    4    0    0 -0.72198583825E+02  0.65215958022E+02 -0.16597743199E+03  0.19239091615E+03  0.00000000000E+00 0. -1.
         -5    1    5    5    0  502  0.77014769743E+02  0.13265632871E+02  0.12098705007E+02  0.79219444815E+02  0.47000000000E+01 0.  1.
         11    1    6    6    0    0  0.44400872061E+02 -0.32825422082E+01  0.93028807344E+02  0.10313375548E+03  0.00000000000E+00 0. -1.
        -12    1    6    6    0    0 -0.33863551177E+02 -0.15773005155E+02  0.66428505857E+02  0.76212034354E+02  0.00000000000E+00 0.  1.
</event>
<event>
12    1  0.8633375E-002  0.1906110E+03  0.7818608E-02  0.1158089E+00
         21   -1    0    0  501  502  0.00000000000E+00  0.00000000000E+00  0.21883670029E+03  0.21883670029E+03  0.00000000000E+00 0. -1.
         21   -1    0    0  502  503 -0.00000000000E+00 -0.00000000000E+00 -0.33523402851E+03  0.33523402851E+03  0.00000000000E+00 0.  1.
         -6    2    1    2    0  503 -0.46409999092E+02  0.67793607180E+02 -0.25547849995E+03  0.31875042674E+03  0.17199624827E+03 0.  0.
        -24    2    3    3    0    0 -0.95936258552E+02  0.36385633027E+02 -0.18291598221E+03  0.22533351073E+03  0.82396932667E+02 0.  0.
          6    2    1    2  501    0  0.46409999092E+02 -0.67793607180E+02  0.13908117173E+03  0.23532030205E+03  0.17112045767E+03 0.  0.
         24    2    5    5    0    0 -0.78771388335E+01 -0.97084309850E+01  0.23266606665E+01  0.77064599670E+02  0.76008132618E+02 0.  0.
          5    1    5    5  501    0  0.54287137925E+02 -0.58085176195E+02  0.13675451107E+03  0.15825570238E+03  0.47000000000E+01 0. -1.
        -13    1    6    6    0    0  0.93487046755E+01 -0.39109321109E+02 -0.89056714623E+01  0.41185534608E+02  0.00000000000E+00 0.  1.
         14    1    6    6    0    0 -0.17225843509E+02  0.29400890124E+02  0.11232332129E+02  0.35879065062E+02  0.00000000000E+00 0. -1.
         -5    1    3    3    0  503  0.49526259460E+02  0.31407974153E+02 -0.72562517746E+02  0.93416916017E+02  0.47000000000E+01 0.  1.
         11    1    4    4    0    0 -0.81646734448E+02  0.61235404328E+02 -0.13139463759E+03  0.16637462179E+03  0.00000000000E+00 0. -1.
        -12    1    4    4    0    0 -0.14289524105E+02 -0.24849771302E+02 -0.51521344620E+02  0.58958888935E+02  0.00000000000E+00 0.  1.
</event>
<event>
12    1  0.8633375E-002  0.2399026E+03  0.7818608E-02  0.1119914E+00
         21   -1    0    0  503  502  0.00000000000E+00  0.00000000000E+00  0.37702156935E+02  0.37702156935E+02  0.00000000000E+00 0. -1.
         21   -1    0    0  501  503 -0.00000000000E+00 -0.00000000000E+00 -0.17503990705E+04  0.17503990705E+04  0.00000000000E+00 0. -1.
          6    2    1    2  501    0 -0.14178115678E+03 -0.88590276765E+02 -0.11770942935E+04  0.12012252242E+04  0.17158359426E+03 0.  0.
         24    2    3    3    0    0 -0.39319122026E+02  0.30660377104E+01 -0.30317214183E+03  0.31654371892E+03  0.82043795976E+02 0.  0.
         -6    2    1    2    0  502  0.14178115678E+03  0.88590276765E+02 -0.53560262003E+03  0.58687600324E+03  0.17205563937E+03 0.  0.
        -24    2    5    5    0    0  0.14226873804E+03  0.10729229604E+03 -0.35158979872E+03  0.40185489183E+03  0.78230025648E+02 0.  0.
          5    1    3    3  501    0 -0.10246203475E+03 -0.91656314476E+02 -0.87392215169E+03  0.88468150526E+03  0.47000000000E+01 0. -1.
        -11    1    4    4    0    0 -0.23470295398E+02  0.42043700581E+02 -0.18254031772E+03  0.18878425548E+03  0.00000000000E+00 0.  1.
         12    1    4    4    0    0 -0.15848826628E+02 -0.38977662871E+02 -0.12063182411E+03  0.12775946344E+03  0.00000000000E+00 0. -1.
         -5    1    5    5    0  502 -0.48758125837E+00 -0.18702019272E+02 -0.18401282131E+03  0.18502111141E+03  0.47000000000E+01 0.  1.
         11    1    6    6    0    0  0.70358052116E+02  0.99676087650E+02 -0.23118072690E+03  0.26140028010E+03  0.00000000000E+00 0. -1.
        -12    1    6    6    0    0  0.71910685919E+02  0.76162083871E+01 -0.12040907182E+03  0.14045461173E+03  0.00000000000E+00 0.  1.
</event>
<event>
12    1  0.8633375E-002  0.5557270E+03  0.7818608E-02  0.1000258E+00
         21   -1    0    0  501  502  0.00000000000E+00  0.00000000000E+00  0.88291258465E+03  0.88291258465E+03  0.00000000000E+00 0.  1.
         21   -1    0    0  502  503 -0.00000000000E+00 -0.00000000000E+00 -0.16348686230E+04  0.16348686230E+04  0.00000000000E+00 0. -1.
         -6    2    1    2    0  503 -0.12817959203E+03 -0.51092344602E+03 -0.14925887595E+04  0.15926875887E+04  0.17708691255E+03 0.  0.
        -24    2    3    3    0    0 -0.43315043063E+02 -0.10181264696E+03 -0.41915945498E+03  0.44079948673E+03  0.79796809243E+02 0.  0.
          6    2    1    2  501    0  0.12817959203E+03  0.51092344602E+03  0.74063272112E+03  0.92509361902E+03  0.17259374513E+03 0.  0.
         24    2    5    5    0    0  0.89503080994E+02  0.49712270462E+03  0.69845251474E+03  0.86603777444E+03  0.83926911416E+02 0.  0.
          5    1    5    5  501    0  0.38676511032E+02  0.13800741402E+02  0.42180206374E+02  0.59055844576E+02  0.47000000000E+01 0. -1.
        -11    1    6    6    0    0  0.18598704278E+01  0.17520095727E+03  0.19594968218E+03  0.26285949192E+03  0.00000000000E+00 0.  1.
         12    1    6    6    0    0  0.87643210566E+02  0.32192174734E+03  0.50250283256E+03  0.60317828252E+03  0.00000000000E+00 0. -1.
         -5    1    3    3    0  503 -0.84864548963E+02 -0.40911079906E+03 -0.10734293045E+04  0.11518881019E+04  0.47000000000E+01 0.  1.
         13    1    4    4    0    0 -0.23322408062E+02 -0.87154507919E+02 -0.39833090433E+03  0.40842055814E+03  0.00000000000E+00 0. -1.
        -14    1    4    4    0    0 -0.19992635001E+02 -0.14658139039E+02 -0.20828550654E+02  0.32378928591E+02  0.00000000000E+00 0.  1.
</event>
<event>
12    1  0.8633375E-002  0.1868767E+03  0.7818608E-02  0.1161429E+00
         21   -1    0    0  501  502  0.00000000000E+00  0.00000000000E+00  0.49940788069E+03  0.49940788069E+03  0.00000000000E+00 0.  1.
         21   -1    0    0  502  503 -0.00000000000E+00 -0.00000000000E+00 -0.70563059754E+02  0.70563059754E+02  0.00000000000E+00 0.  1.
         -6    2    1    2    0  503  0.52004939902E+02  0.51504780206E+02  0.18383807237E+03  0.26214376500E+03  0.17194667929E+03 0.  0.
        -24    2    3    3    0    0  0.79697681009E+02 -0.67080338158E+00  0.16559703190E+03  0.20014372476E+03  0.79265145240E+02 0.  0.
          6    2    1    2  501    0 -0.52004939902E+02 -0.51504780206E+02  0.24500674856E+03  0.30782717544E+03  0.17138263314E+03 0.  0.
         24    2    5    5    0    0 -0.88512050639E+02 -0.18683705177E+02  0.22241970809E+03  0.25358460454E+03  0.81554651412E+02 0.  0.
          5    1    5    5  501    0  0.36507110737E+02 -0.32821075029E+02  0.22587040474E+02  0.54242570900E+02  0.47000000000E+01 0. -1.
        -11    1    6    6    0    0 -0.57271928331E+02 -0.45931011133E+02  0.17941289521E+03  0.19385231112E+03  0.00000000000E+00 0.  1.
         12    1    6    6    0    0 -0.31240122308E+02  0.27247305956E+02  0.43006812882E+02  0.59732293426E+02  0.00000000000E+00 0. -1.
         -5    1    3    3    0  503 -0.27692741108E+02  0.52175583587E+02  0.18241040469E+02  0.62000040243E+02  0.47000000000E+01 0.  1.
         13    1    4    4    0    0  0.24286243159E+02 -0.22085449931E+02  0.12231410790E+03  0.12664252721E+03  0.00000000000E+00 0. -1.
        -14    1    4    4    0    0  0.55411437850E+02  0.21414646549E+02  0.43282924000E+02  0.73501197551E+02  0.00000000000E+00 0.  1.
</event>
<event>
12    1  0.8633375E-002  0.2273817E+03  0.7818608E-02  0.1128634E+00
         21   -1    0    0  501  502  0.00000000000E+00  0.00000000000E+00  0.13780919434E+04  0.13780919434E+04  0.00000000000E+00 0. -1.
         21   -1    0    0  502  503 -0.00000000000E+00 -0.00000000000E+00 -0.39388094120E+02  0.39388094120E+02  0.00000000000E+00 0. -1.
         -6    2    1    2    0  503  0.11358756763E+03 -0.94858430141E+02  0.51081226188E+03  0.55913468838E+03  0.17263306627E+03 0.  0.
        -24    2    3    3    0    0  0.12266561538E+03 -0.26328815429E+02  0.27118580962E+03  0.30969201828E+03  0.81408495427E+02 0.  0.
          6    2    1    2  501    0 -0.11358756763E+03  0.94858430141E+02  0.82789158735E+03  0.85834534909E+03  0.17161585187E+03 0.  0.
         24    2    5    5    0    0 -0.14401989608E+03  0.69938095183E+02  0.56048085934E+03  0.58801640657E+03  0.77404347992E+02 0.  0.
          5    1    5    5  501    0  0.30432328444E+02  0.24920334958E+02  0.26741072802E+03  0.27032894253E+03  0.47000000000E+01 0. -1.
        -13    1    6    6    0    0 -0.68803572920E+02  0.22553085353E+02  0.13341677926E+03  0.15179792585E+03  0.00000000000E+00 0.  1.
         14    1    6    6    0    0 -0.75216323157E+02  0.47385009830E+02  0.42706408008E+03  0.43621848071E+03  0.00000000000E+00 0. -1.
         -5    1    3    3    0  503 -0.90780477461E+01 -0.68529614712E+02  0.23962645226E+03  0.24944267010E+03  0.47000000000E+01 0.  1.
         13    1    4    4    0    0  0.70034240467E+02 -0.30467395370E+02  0.23113207798E+03  0.24342369336E+03  0.00000000000E+00 0. -1.
        -14    1    4    4    0    0  0.52631374911E+02  0.41385799410E+01  0.40053731641E+02  0.66268324917E+02  0.00000000000E+00 0.  1.
</event>
<event>
12    1  0.8633375E-002  0.5124041E+03  0.7818608E-02  0.1010623E+00
         21   -1    0    0  503  502  0.00000000000E+00  0.00000000000E+00  0.34956704994E+03  0.34956704994E+03  0.00000000000E+00 0. -1.
         21   -1    0    0  501  503 -0.00000000000E+00 -0.00000000000E+00 -0.76245782288E+03  0.76245782288E+03  0.00000000000E+00 0.  1.
          6    2    1    2  501    0  0.48160279158E+03 -0.28424977914E+02 -0.27638369853E+03  0.58174933587E+03  0.17115815127E+03 0.  0.
         24    2    3    3    0    0  0.44289799372E+03 -0.65042977763E+02 -0.26819707329E+03  0.52763787569E+03  0.77992537741E+02 0.  0.
         -6    2    1    2    0  502 -0.48160279158E+03  0.28424977914E+02 -0.13650707441E+03  0.53027553695E+03  0.17265206484E+03 0.  0.
        -24    2    5    5    0    0 -0.31939658555E+03 -0.45256578516E+02 -0.10961829842E+03  0.35003979879E+03  0.80307861589E+02 0.  0.
          5    1    3    3  501    0  0.38704797858E+02  0.36617999850E+02 -0.81866252475E+01  0.54111460183E+02  0.47000000000E+01 0. -1.
        -13    1    4    4    0    0  0.18202895201E+03 -0.64775324909E+02 -0.10447825130E+03  0.21964991937E+03  0.00000000000E+00 0.  1.
         14    1    4    4    0    0  0.26086904171E+03 -0.26765285428E+00 -0.16371882198E+03  0.30798795631E+03  0.00000000000E+00 0. -1.
         -5    1    5    5    0  502 -0.16220620603E+03  0.73681556430E+02 -0.26888775992E+02  0.18023573815E+03  0.47000000000E+01 0.  1.
         13    1    6    6    0    0 -0.22543579670E+03 -0.12341021717E+02 -0.41888312446E+02  0.22962628327E+03  0.00000000000E+00 0. -1.
        -14    1    6    6    0    0 -0.93960788851E+02 -0.32915556799E+02 -0.67729985970E+02  0.12041351552E+03  0.00000000000E+00 0.  1.
</event>
<event>
12    1  0.8633375E-002  0.1884816E+03  0.7818608E-02  0.1159863E+00
         21   -1    0    0  503  502  0.00000000000E+00  0.00000000000E+00  0.30106553655E+02  0.30106553655E+02  0.00000000000E+00 0.  1.
         21   -1    0    0  501  503 -0.00000000000E+00 -0.00000000000E+00 -0.12841577093E+04  0.12841577093E+04  0.00000000000E+00 0. -1.
          6    2    1    2  501    0  0.75641413842E+02 -0.52942041205E+01 -0.81497141074E+03  0.83648293746E+03  0.17255622925E+03 0.  0.
         24    2    3    3    0    0  0.73549965685E+02 -0.39949926582E+02 -0.32214417043E+03  0.34241191823E+03  0.80395653584E+02 0.  0.
         -6    2    1    2    0  502 -0.75641413842E+02  0.52942041205E+01 -0.43907974495E+03  0.47778132554E+03  0.17243642459E+03 0.  0.
        -24    2    5    5    0    0 -0.24998842721E+02 -0.45702927122E+02 -0.13540910515E+03  0.16568626809E+03  0.80016335789E+02 0.  0.
          5    1    3    3  501    0  0.20914481573E+01  0.34655722461E+02 -0.49282724030E+03  0.49407101923E+03  0.47000000000E+01 0. -1.
        -13    1    4    4    0    0  0.90650147821E+02 -0.30196244061E+02 -0.25021046281E+03  0.26783304157E+03  0.00000000000E+00 0.  1.
         14    1    4    4    0    0 -0.17100182136E+02 -0.97536825207E+01 -0.71933707622E+02  0.74578876661E+02  0.00000000000E+00 0. -1.
         -5    1    5    5    0  502 -0.50642571121E+02  0.50997131242E+02 -0.30367063981E+03  0.31209505745E+03  0.47000000000E+01 0.  1.
         11    1    6    6    0    0  0.16088143417E+02  0.59145256605E+01 -0.72598899922E+02  0.74594974645E+02  0.00000000000E+00 0. -1.
        -12    1    6    6    0    0 -0.41086986138E+02 -0.51617452782E+02 -0.62810205224E+02  0.91091293447E+02  0.00000000000E+00 0.  1.
</event>
<event>
12    1  0.8633375E-002  0.2006090E+03  0.7818608E-02  0.1150035E+00
         21   -1    0    0  501  502  0.00000000000E+00  0.00000000000E+00  0.95256457910E+02  0.95256457910E+02  0.00000000000E+00 0.  1.
         21   -1    0    0  502  503 -0.00000000000E+00 -0.00000000000E+00 -0.43819682034E+03  0.43819682034E+03  0.00000000000E+00 0.  1.
         -6    2    1    2    0  503 -0.44385917023E+02 -0.90465044126E+02 -0.23505422987E+03  0.30902180983E+03  0.17346456161E+03 0.  0.
        -24    2    3    3    0    0  0.29717538495E+02 -0.34812656375E+01 -0.92509264917E+02  0.12626881567E+03  0.80564250208E+02 0.  0.
          6    2    1    2  501    0  0.44385917023E+02  0.90465044126E+02 -0.10788613256E+03  0.22443146842E+03  0.16904446923E+03 0.  0.
         24    2    5    5    0    0  0.20726470653E+02  0.12457870958E+03 -0.58916598383E+02  0.16006053670E+03  0.78732257543E+02 0.  0.
          5    1    5    5  501    0  0.23659446370E+02 -0.34113665450E+02 -0.48969534177E+02  0.64370931720E+02  0.47000000000E+01 0. -1.
        -11    1    6    6    0    0  0.26117507350E+02  0.76229793816E+02 -0.73715186833E+02  0.10921096293E+03  0.00000000000E+00 0.  1.
         12    1    6    6    0    0 -0.53910366973E+01  0.48348915760E+02  0.14798588449E+02  0.50849573763E+02  0.00000000000E+00 0. -1.
         -5    1    3    3    0  503 -0.74103455518E+02 -0.86983778488E+02 -0.14254496495E+03  0.18275299416E+03  0.47000000000E+01 0.  1.
         13    1    4    4    0    0  0.33666290833E+02 -0.22503582823E+01 -0.74442206413E-01  0.33741499559E+02  0.00000000000E+00 0. -1.
        -14    1    4    4    0    0 -0.39487523376E+01 -0.12309073551E+01 -0.92434822711E+02  0.92527316115E+02  0.00000000000E+00 0.  1.
</event>
<event>
12    1  0.8633375E-002  0.1809175E+03  0.7818608E-02  0.1167025E+00
         21   -1    0    0  503  502  0.00000000000E+00  0.00000000000E+00  0.49174052360E+03  0.49174052360E+03  0.00000000000E+00 0.  1.
         21   -1    0    0  501  503 -0.00000000000E+00 -0.00000000000E+00 -0.78306050281E+02  0.78306050281E+02  0.00000000000E+00 0.  1.
          6    2    1    2  501    0  0.55472542935E+02 -0.46093272721E+01  0.95788695078E+02  0.20471108441E+03  0.17214152625E+03 0.  0.
         24    2    3    3    0    0  0.20499747766E+02 -0.68775445397E+02  0.66471072186E+02  0.12583142842E+03  0.79150763690E+02 0.  0.
         -6    2    1    2    0  502 -0.55472542935E+02  0.46093272721E+01  0.31764577824E+03  0.36533548947E+03  0.17167623748E+03 0.  0.
        -24    2    5    5    0    0 -0.41819259922E+02  0.14881944623E+02  0.63041517090E+02  0.11011527358E+03  0.78618177425E+02 0.  0.
          5    1    3    3  501    0  0.34972795169E+02  0.64166118125E+02  0.29317622892E+02  0.78879655991E+02  0.47000000000E+01 0. -1.
        -11    1    4    4    0    0  0.19810297265E+01 -0.26327437941E+02 -0.16269167789E+02  0.31012002320E+02  0.00000000000E+00 0.  1.
         12    1    4    4    0    0  0.18518718039E+02 -0.42448007456E+02  0.82740239975E+02  0.94819426100E+02  0.00000000000E+00 0. -1.
         -5    1    5    5    0  502 -0.13653283012E+02 -0.10272617351E+02  0.25460426115E+03  0.25522021589E+03  0.47000000000E+01 0.  1.
         11    1    6    6    0    0 -0.31953000381E+02 -0.25167838863E+02  0.54480141312E+02  0.67988970750E+02  0.00000000000E+00 0. -1.
        -12    1    6    6    0    0 -0.98662595416E+01  0.40049783486E+02  0.85613757782E+01  0.42126302827E+02  0.00000000000E+00 0.  1.
</event>
<event>
12    1  0.8633375E-002  0.3188537E+03  0.7818608E-02  0.1076527E+00
         21   -1    0    0  501  502  0.00000000000E+00  0.00000000000E+00  0.49305688866E+03  0.49305688866E+03  0.00000000000E+00 0.  1.
         21   -1    0    0  502  503 -0.00000000000E+00 -0.00000000000E+00 -0.21078360063E+03  0.21078360063E+03  0.00000000000E+00 0. -1.
         -6    2    1    2    0  503  0.23986225051E+03 -0.11686600670E+03  0.78586917280E+02  0.32548114695E+03  0.16902813585E+03 0.  0.
        -24    2    3    3    0    0  0.62561071750E+02  0.34809819798E+01  0.15159394118E+02  0.10195431105E+03  0.78986513891E+02 0.  0.
          6    2    1    2  501    0 -0.23986225051E+03  0.11686600670E+03  0.20368637075E+03  0.37835934234E+03  0.17457402889E+03 0.  0.
         24    2    5    5    0    0 -0.13479694533E+03  0.74729188949E+02  0.37660455437E+02  0.17735953060E+03  0.79268058127E+02 0.  0.
          5    1    5    5  501    0 -0.10506530518E+03  0.42136817747E+02  0.16602591531E+03  0.20099981174E+03  0.47000000000E+01 0. -1.
        -11    1    6    6    0    0 -0.77219763994E+02  0.82532615397E+02  0.38041564106E+02  0.11925470706E+03  0.00000000000E+00 0.  1.
         12    1    6    6    0    0 -0.57577181338E+02 -0.78034264482E+01 -0.38110866957E+00  0.58104823543E+02  0.00000000000E+00 0. -1.
         -5    1    3    3    0  503  0.17730117876E+03 -0.12034698868E+03  0.63427523162E+02  0.22352683590E+03  0.47000000000E+01 0.  1.
         11    1    4    4    0    0  0.61602366833E+02  0.33706567816E+02  0.66276216040E+01  0.70533039644E+02  0.00000000000E+00 0. -1.
        -12    1    4    4    0    0  0.95870491739E+00 -0.30225585836E+02  0.85317725137E+01  0.31421271401E+02  0.00000000000E+00 0.  1.
</event>
<event>
12    1  0.8633375E-002  0.1716047E+03  0.7818608E-02  0.1176186E+00
         21   -1    0    0  503  502  0.00000000000E+00  0.00000000000E+00  0.96879122910E+03  0.96879122910E+03  0.00000000000E+00 0. -1.
         21   -1    0    0  501  503 -0.00000000000E+00 -0.00000000000E+00 -0.60893081380E+02  0.60893081380E+02  0.00000000000E+00 0. -1.
          6    2    1    2  501    0  0.57538735673E+01 -0.39037464040E+01  0.89597846477E+02  0.19358410058E+03  0.17146044327E+03 0.  0.
         24    2    3    3    0    0  0.63458477150E+02  0.19663886782E+02  0.57953175682E+02  0.12352177263E+03  0.86518269608E+02 0.  0.
         -6    2    1    2    0  502 -0.57538735673E+01  0.39037464040E+01  0.81830030125E+03  0.83610020990E+03  0.17146379116E+03 0.  0.
        -24    2    5    5    0    0  0.92697754965E+01 -0.63841250834E+02  0.49317448509E+03  0.50361866002E+03  0.79050919840E+02 0.  0.
          5    1    3    3  501    0 -0.57704603583E+02 -0.23567633186E+02  0.31644670795E+02  0.70062327954E+02  0.47000000000E+01 0. -1.
        -13    1    4    4    0    0 -0.10978838703E+02 -0.48644917394E+01  0.41812319973E+02  0.43502508901E+02  0.00000000000E+00 0.  1.
         14    1    4    4    0    0  0.74437315853E+02  0.24528378522E+02  0.16140855709E+02  0.80019263727E+02  0.00000000000E+00 0. -1.
         -5    1    5    5    0  502 -0.15023649064E+02  0.67744997237E+02  0.32512581615E+03  0.33248154988E+03  0.47000000000E+01 0.  1.
         11    1    6    6    0    0 -0.32031662596E+02 -0.23292585881E+02  0.27753469443E+03  0.28034635467E+03  0.00000000000E+00 0. -1.
        -12    1    6    6    0    0  0.41301438093E+02 -0.40548664953E+02  0.21563979067E+03  0.22327230535E+03  0.00000000000E+00 0.  1.
</event>
<event>
12    1  0.8633375E-002  0.2153333E+03  0.7818608E-02  0.1137708E+00
         21   -1    0    0  503  502  0.00000000000E+00  0.00000000000E+00  0.18229290966E+04  0.18229290966E+04  0.00000000000E+00 0.  1.
         21   -1    0    0  501  503 -0.00000000000E+00 -0.00000000000E+00 -0.78136296372E+02  0.78136296372E+02  0.00000000000E+00 0. -1.
          6    2    1    2  501    0  0.10357647872E+03  0.74807155526E+02  0.89406614155E+02  0.23173263590E+03  0.17141258538E+03 0.  0.
         24    2    3    3    0    0  0.34459151351E+02  0.30845557181E+02  0.11399334834E+03  0.14607970502E+03  0.78777631611E+02 0.  0.
         -6    2    1    2    0  502 -0.10357647872E+03 -0.74807155526E+02  0.16553861861E+04  0.16693327571E+04  0.17333271855E+03 0.  0.
        -24    2    5    5    0    0 -0.51757525749E+02 -0.11226307588E+03  0.12931908004E+04  0.13015070684E+04  0.79349625861E+02 0.  0.
          5    1    3    3  501    0  0.69117327371E+02  0.43961598345E+02 -0.24586734183E+02  0.85652930888E+02  0.47000000000E+01 0. -1.
        -13    1    4    4    0    0 -0.10015510147E+02  0.23388331921E+02  0.22046260967E+01  0.25537910834E+02  0.00000000000E+00 0.  1.
         14    1    4    4    0    0  0.44474661498E+02  0.74572252600E+01  0.11178872224E+03  0.12054179418E+03  0.00000000000E+00 0. -1.
         -5    1    5    5    0  502 -0.51818952973E+02  0.37455920353E+02  0.36219538562E+03  0.36782568864E+03  0.47000000000E+01 0.  1.
         13    1    6    6    0    0 -0.56798016552E+01 -0.23295542001E+02  0.65782197619E+02  0.70015997797E+02  0.00000000000E+00 0. -1.
        -14    1    6    6    0    0 -0.46077724093E+02 -0.88967533879E+02  0.12274086028E+04  0.12314910706E+04  0.00000000000E+00 0.  1.
</event>
<event>
12    1  0.8633375E-002  0.2035296E+03  0.7818608E-02  0.1146943E+00
         21   -1    0    0  503  502  0.00000000000E+00  0.00000000000E+00  0.29919234879E+03  0.29919234879E+03  0.00000000000E+00 0. -1.
         21   -1    0    0  501  503 -0.00000000000E+00 -0.00000000000E+00 -0.22032282724E+03  0.22032282724E+03  0.00000000000E+00 0. -1.
          6    2    1    2  501    0  0.49578557576E+02 -0.96786924411E+02 -0.11942136541E+03  0.23536102358E+03  0.17119464594E+03 0.  0.
         24    2    3    3    0    0  0.50030447978E+02  0.99256251412E+01 -0.42034635155E+02  0.10345739037E+03  0.79592445052E+02 0.  0.
         -6    2    1    2    0  502 -0.49578557576E+02  0.96786924411E+02  0.19829088696E+03  0.28415415245E+03  0.17204233316E+03 0.  0.
        -24    2    5    5    0    0 -0.70042192071E+02  0.57534018693E+02  0.50700930986E+02  0.12999697277E+03  0.78182840507E+02 0.  0.
          5    1    3    3  501    0 -0.45189040212E+00 -0.10671254955E+03 -0.77386730254E+02  0.13190363322E+03  0.47000000000E+01 0. -1.
        -11    1    4    4    0    0  0.59855510439E+02  0.51186340575E+00 -0.57400837645E+02  0.82932504462E+02  0.00000000000E+00 0.  1.
         12    1    4    4    0    0 -0.98250624604E+01  0.94137617354E+01  0.15366202491E+02  0.20524885903E+02  0.00000000000E+00 0. -1.
         -5    1    5    5    0  502  0.20463634495E+02  0.39252905718E+02  0.14758995597E+03  0.15415717968E+03  0.47000000000E+01 0.  1.
         13    1    6    6    0    0 -0.51089152358E+02  0.59045431939E+02  0.68562417561E+02  0.10390991109E+03  0.00000000000E+00 0. -1.
        -14    1    6    6    0    0 -0.18953039712E+02 -0.15114132463E+01 -0.17861486574E+02  0.26087061678E+02  0.00000000000E+00 0.  1.
</event>
<event>
12    1  0.8633375E-002  0.2167179E+03  0.7818608E-02  0.1136439E+00
         21   -1    0    0  503  502  0.00000000000E+00  0.00000000000E+00  0.20012557140E+03  0.20012557140E+03  0.00000000000E+00 0. -1.
         21   -1    0    0  501  503 -0.00000000000E+00 -0.00000000000E+00 -0.43899166219E+03  0.43899166219E+03  0.00000000000E+00 0. -1.
          6    2    1    2  501    0 -0.50100772767E+02 -0.12157087283E+03 -0.33762885292E+03  0.40095612875E+03  0.17170617434E+03 0.  0.
         24    2    3    3    0    0 -0.83875601065E+02 -0.75720188349E+02 -0.14500840088E+03  0.20003885015E+03  0.78863438096E+02 0.  0.
         -6    2    1    2    0  502  0.50100772767E+02  0.12157087283E+03  0.98762762125E+02  0.23816110484E+03  0.17227032281E+03 0.  0.
        -24    2    5    5    0    0  0.33464598583E+02  0.44433055665E+01  0.47648710744E+01  0.86987949726E+02  0.80028601628E+02 0.  0.
          5    1    3    3  501    0  0.33774828298E+02 -0.45850684477E+02 -0.19262045204E+03  0.20091727859E+03  0.47000000000E+01 0. -1.
        -11    1    4    4    0    0  0.10402328853E+02  0.35867965852E+01 -0.18330118767E+01  0.11154975923E+02  0.00000000000E+00 0.  1.
         12    1    4    4    0    0 -0.94277929918E+02 -0.79306984934E+02 -0.14317538900E+03  0.18888387423E+03  0.00000000000E+00 0. -1.
         -5    1    5    5    0  502  0.16636174184E+02  0.11712756726E+03  0.93997891051E+02  0.15117315511E+03  0.47000000000E+01 0.  1.
         13    1    6    6    0    0  0.38619218999E+02 -0.60508444882E+01  0.36305970745E+02  0.53349604561E+02  0.00000000000E+00 0. -1.
        -14    1    6    6    0    0 -0.51546204160E+01  0.10494150055E+02 -0.31541099671E+02  0.33638345165E+02  0.00000000000E+00 0.  1.
</event>
<event>
12    1  0.8633375E-002  0.3283715E+03  0.7818608E-02  0.1071879E+00
         21   -1    0    0  503  502  0.00000000000E+00  0.00000000000E+00  0.19004211710E+04  0.19004211710E+04  0.00000000000E+00 0. -1.
         21   -1    0    0  501  503 -0.00000000000E+00 -0.00000000000E+00 -0.86280419161E+02  0.86280419161E+02  0.00000000000E+00 0.  1.
          6    2    1    2  501    0  0.99374215051E+02  0.26119629018E+03  0.14887730377E+04  0.15245566591E+04  0.17242132263E+03 0.  0.
         24    2    3    3    0    0  0.13762382967E+03  0.19582219599E+03  0.11497042519E+04  0.11770994147E+04  0.80352438016E+02 0.  0.
         -6    2    1    2    0  502 -0.99374215051E+02 -0.26119629018E+03  0.32536771414E+03  0.46214493103E+03  0.17209024159E+03 0.  0.
        -24    2    5    5    0    0 -0.41710568997E+02 -0.13151822274E+03  0.26174779512E+03  0.30654582645E+03  0.80135017200E+02 0.  0.
          5    1    3    3  501    0 -0.38249614616E+02  0.65374094187E+02  0.33906878575E+03  0.34745724439E+03  0.47000000000E+01 0. -1.
        -11    1    4    4    0    0 -0.90602393445E+00 -0.62384661214E+01  0.15398288481E+02  0.16638708696E+02  0.00000000000E+00 0.  1.
         12    1    4    4    0    0  0.13852985360E+03  0.20206066211E+03  0.11343059634E+04  0.11604607060E+04  0.00000000000E+00 0. -1.
         -5    1    5    5    0  502 -0.57663646055E+02 -0.12967806744E+03  0.63619919013E+02  0.15559910458E+03  0.47000000000E+01 0.  1.
         11    1    6    6    0    0  0.12823154657E+02 -0.73903324880E+02  0.16630823765E+03  0.18244057837E+03  0.00000000000E+00 0. -1.
        -12    1    6    6    0    0 -0.54533723654E+02 -0.57614897859E+02  0.95439557471E+02  0.12410524808E+03  0.00000000000E+00 0.  1.
</event>
<event>
12    1  0.8633375E-002  0.2158113E+03  0.7818608E-02  0.1137162E+00
         21   -1    0    0  503  502  0.00000000000E+00  0.00000000000E+00  0.86759597717E+03  0.86759597717E+03  0.00000000000E+00 0. -1.
         21   -1    0    0  501  503 -0.00000000000E+00 -0.00000000000E+00 -0.53588946987E+02  0.53588946987E+02  0.00000000000E+00 0. -1.
          6    2    1    2  501    0  0.80995652961E+02 -0.10023333024E+03  0.42274102197E+03  0.47464142015E+03  0.17311120639E+03 0.  0.
         24    2    3    3    0    0  0.73892849217E+01 -0.10023740426E+03  0.34085805392E+03  0.36443793614E+03  0.80800109091E+02 0.  0.
         -6    2    1    2    0  502 -0.80995652961E+02  0.10023333024E+03  0.39126600822E+03  0.44654350401E+03  0.17235137219E+03 0.  0.
        -24    2    5    5    0    0 -0.11179974291E+03  0.65812180695E+02  0.20539579865E+03  0.25496184440E+03  0.77380116016E+02 0.  0.
          5    1    3    3  501    0  0.73606368039E+02  0.40740211787E-02  0.81882968048E+02  0.11020348401E+03  0.47000000000E+01 0. -1.
        -11    1    4    4    0    0 -0.32777871773E+02 -0.18945774906E+02  0.11438475137E+03  0.12048735456E+03  0.00000000000E+00 0.  1.
         12    1    4    4    0    0  0.40167156695E+02 -0.81291629354E+02  0.22647330255E+03  0.24395058157E+03  0.00000000000E+00 0. -1.
         -5    1    5    5    0  502  0.30804089949E+02  0.34421149543E+02  0.18587020956E+03  0.19158165961E+03  0.47000000000E+01 0.  1.
         13    1    6    6    0    0 -0.19713006150E+02 -0.92700436723E+01  0.77014095576E+02  0.80035662292E+02  0.00000000000E+00 0. -1.
        -14    1    6    6    0    0 -0.92086736760E+02  0.75082224368E+02  0.12838170308E+03  0.17492618211E+03  0.00000000000E+00 0.  1.
</event>
<event>
12    1  0.8633375E-002  0.2368040E+03  0.7818608E-02  0.1122095E+00
         21   -1    0    0  503  502  0.00000000000E+00  0.00000000000E+00  0.10001553247E+04  0.10001553247E+04  0.00000000000E+00 0. -1.
         21   -1    0    0  501  503 -0.00000000000E+00 -0.00000000000E+00 -0.12354233796E+03  0.12354233796E+03  0.00000000000E+00 0.  1.
          6    2    1    2  501    0  0.11974399008E+03 -0.11411741121E+03  0.22802323763E+02  0.23789933981E+03  0.16945425109E+03 0.  0.
         24    2    3    3    0    0  0.93387127681E+02 -0.49986915578E+02 -0.48404771795E+02  0.13840087187E+03  0.74779222083E+02 0.  0.
         -6    2    1    2    0  502 -0.11974399008E+03  0.11411741121E+03  0.85381066294E+03  0.88579832281E+03  0.16818030160E+03 0.  0.
        -24    2    5    5    0    0 -0.14392112071E+03  0.12768402866E+03  0.70162509140E+03  0.73103681293E+03  0.71558038157E+02 0.  0.
          5    1    3    3  501    0  0.26356862398E+02 -0.64130495629E+02  0.71207095557E+02  0.99498467942E+02  0.47000000000E+01 0. -1.
        -11    1    4    4    0    0 -0.23925416875E+01  0.14166556555E+02 -0.47442542221E+01  0.15130219050E+02  0.00000000000E+00 0.  1.
         12    1    4    4    0    0  0.95779669369E+02 -0.64153472133E+02 -0.43660517573E+02  0.12327065282E+03  0.00000000000E+00 0. -1.
         -5    1    5    5    0  502  0.24177130629E+02 -0.13566617452E+02  0.15218557154E+03  0.15476150988E+03  0.47000000000E+01 0.  1.
         13    1    6    6    0    0 -0.79206705814E+02  0.11404891084E+03  0.49284234080E+03  0.51202971515E+03  0.00000000000E+00 0. -1.
        -14    1    6    6    0    0 -0.64714414895E+02  0.13635117817E+02  0.20878275059E+03  0.21900709778E+03  0.00000000000E+00 0.  1.
</event>
<event>
12    1  0.8633375E-002  0.1727933E+03  0.7818608E-02  0.1175185E+00
         21   -1    0    0  501  502  0.00000000000E+00  0.00000000000E+00  0.22912086750E+03  0.22912086750E+03  0.00000000000E+00 0.  1.
         21   -1    0    0  502  503 -0.00000000000E+00 -0.00000000000E+00 -0.13345396030E+03  0.13345396030E+03  0.00000000000E+00 0.  1.
         -6    2    1    2    0  503 -0.16346362275E+01 -0.10002276139E+02  0.17180503824E+02  0.17279168900E+03  0.17163647781E+03 0.  0.
        -24    2    3    3    0    0  0.16681166425E+02 -0.63194867197E+02 -0.20749238383E+02  0.10477936869E+03  0.79223308797E+02 0.  0.
          6    2    1    2  501    0  0.16346362275E+01  0.10002276139E+02  0.78486403379E+02  0.18978313880E+03  0.17249581645E+03 0.  0.
         24    2    5    5    0    0  0.12956357413E+02 -0.31384806349E+02  0.10484184720E+03  0.13920872445E+03  0.85055174858E+02 0.  0.
          5    1    5    5  501    0 -0.11321721185E+02  0.41387082487E+02 -0.26355443826E+02  0.50574414348E+02  0.47000000000E+01 0. -1.
        -11    1    6    6    0    0 -0.11257216371E+02  0.26327950677E+02  0.27322171699E+02  0.39577606972E+02  0.00000000000E+00 0.  1.
         12    1    6    6    0    0  0.24213573784E+02 -0.57712757026E+02  0.77519675506E+02  0.99631117475E+02  0.00000000000E+00 0. -1.
         -5    1    3    3    0  503 -0.18315802653E+02  0.53192591058E+02  0.37929742207E+02  0.68012320311E+02  0.47000000000E+01 0.  1.
         13    1    4    4    0    0 -0.10396086939E+02 -0.35074849513E+01  0.23338527618E+02  0.25788911294E+02  0.00000000000E+00 0. -1.
        -14    1    4    4    0    0  0.27077253365E+02 -0.59687382245E+02 -0.44087766001E+02  0.78990457399E+02  0.00000000000E+00 0.  1.
</event>
<event>
12    1  0.8633375E-002  0.1910363E+03  0.7818608E-02  0.1158134E+00
         21   -1    0    0  503  502  0.00000000000E+00  0.00000000000E+00  0.32816137053E+03  0.32816137053E+03  0.00000000000E+00 0.  1.
         21   -1    0    0  501  503 -0.00000000000E+00 -0.00000000000E+00 -0.11285767826E+03  0.11285767826E+03  0.00000000000E+00 0.  1.
          6    2    1    2  501    0 -0.15095670338E+02 -0.77272916544E+02  0.71251034441E+02  0.20389107295E+03  0.17405710795E+03 0.  0.
         24    2    3    3    0    0  0.31233714094E+02  0.15640271449E+02  0.36054939625E+02  0.94163558378E+02  0.79665890242E+02 0.  0.
         -6    2    1    2    0  502  0.15095670338E+02  0.77272916544E+02  0.14405265783E+03  0.23712797583E+03  0.17111261145E+03 0.  0.
        -24    2    5    5    0    0  0.19182058707E+02 -0.17492859623E+02  0.10184012362E+03  0.13319896666E+03  0.81832771104E+02 0.  0.
          5    1    3    3  501    0 -0.46329384433E+02 -0.92913187992E+02  0.35196094816E+02  0.10972751458E+03  0.47000000000E+01 0. -1.
        -13    1    4    4    0    0 -0.12451021825E+02  0.28657205982E+02  0.37181566730E+02  0.48566781896E+02  0.00000000000E+00 0.  1.
         14    1    4    4    0    0  0.43684735919E+02 -0.13016934534E+02 -0.11266271058E+01  0.45596776482E+02  0.00000000000E+00 0. -1.
         -5    1    5    5    0  502 -0.40863883684E+01  0.94765776167E+02  0.42212534210E+02  0.10392900917E+03  0.47000000000E+01 0.  1.
         13    1    6    6    0    0 -0.28959050359E+00  0.14225175749E+02  0.94119182024E+02  0.95188549273E+02  0.00000000000E+00 0. -1.
        -14    1    6    6    0    0  0.19471649210E+02 -0.31718035371E+02  0.77209415937E+01  0.38010417386E+02  0.00000000000E+00 0.  1.
</event>
<event>
12    1  0.8633375E-002  0.1757836E+03  0.7818608E-02  0.1172010E+00
         21   -1    0    0  501  502  0.00000000000E+00  0.00000000000E+00  0.14948147237E+03  0.14948147237E+03  0.00000000000E+00 0.  1.
         21   -1    0    0  502  503 -0.00000000000E+00 -0.00000000000E+00 -0.73425147816E+03  0.73425147816E+03  0.00000000000E+00 0.  1.
         -6    2    1    2    0  503 -0.13726392913E+02  0.32706055727E+02 -0.66708571018E+03  0.68985739085E+03  0.17216786878E+03 0.  0.
        -24    2    3    3    0    0  0.16490549714E+02 -0.10908177668E+02 -0.15644784918E+03  0.17644880106E+03  0.79166427955E+02 0.  0.
          6    2    1    2  501    0  0.13726392913E+02 -0.32706055727E+02  0.82315704390E+02  0.19387555968E+03  0.17191206331E+03 0.  0.
         24    2    5    5    0    0  0.20137694545E+02  0.14986313897E+02 -0.19575990810E+02  0.81094025471E+02  0.74584885902E+02 0.  0.
          5    1    5    5  501    0 -0.64113016318E+01 -0.47692369624E+02  0.10189169520E+03  0.11278153421E+03  0.47000000000E+01 0. -1.
        -13    1    6    6    0    0  0.32283762573E+02  0.16130711275E+02  0.18893918919E+02  0.40735995682E+02  0.00000000000E+00 0.  1.
         14    1    6    6    0    0 -0.12146068028E+02 -0.11443973780E+01 -0.38469909728E+02  0.40358029788E+02  0.00000000000E+00 0. -1.
         -5    1    3    3    0  503 -0.30216942627E+02  0.43614233395E+02 -0.51063786100E+03  0.51340858979E+03  0.47000000000E+01 0.  1.
         13    1    4    4    0    0  0.39828665436E+02  0.18522006584E+01 -0.38099404748E+02  0.55148144845E+02  0.00000000000E+00 0. -1.
        -14    1    4    4    0    0 -0.23338115722E+02 -0.12760378327E+02 -0.11834844443E+03  0.12130065622E+03  0.00000000000E+00 0.  1.
</event>
<event>
12    1  0.8633375E-002  0.1985201E+03  0.7818608E-02  0.1151584E+00
         21   -1    0    0  503  502  0.00000000000E+00  0.00000000000E+00  0.87526275530E+03  0.87526275530E+03  0.00000000000E+00 0.  1.
         21   -1    0    0  501  503 -0.00000000000E+00 -0.00000000000E+00 -0.19968411247E+03  0.19968411247E+03  0.00000000000E+00 0. -1.
          6    2    1    2  501    0 -0.98039632294E+02  0.15546793793E+02 -0.13564452727E+03  0.24043639924E+03  0.17192077245E+03 0.  0.
         24    2    3    3    0    0  0.70829490702E+01 -0.82560372057E+01 -0.82949120150E+02  0.12036880241E+03  0.86543409579E+02 0.  0.
         -6    2    1    2    0  502  0.98039632294E+02 -0.15546793793E+02  0.81122317011E+03  0.83451046853E+03  0.16873416392E+03 0.  0.
        -24    2    5    5    0    0  0.12878005392E+03  0.11266807477E+02  0.58856908231E+03  0.60810182129E+03  0.81627306481E+02 0.  0.
          5    1    3    3  501    0 -0.10512258136E+03  0.23802830999E+02 -0.52695407120E+02  0.12006759683E+03  0.47000000000E+01 0. -1.
        -11    1    4    4    0    0 -0.10875775169E+01 -0.27043811199E+02  0.71301367157E+01  0.27989094280E+02  0.00000000000E+00 0.  1.
         12    1    4    4    0    0  0.81705265871E+01  0.18787773993E+02 -0.90079256866E+02  0.92379708128E+02  0.00000000000E+00 0. -1.
         -5    1    5    5    0  502 -0.30740421622E+02 -0.26813601270E+02  0.22265408780E+03  0.22640864724E+03  0.47000000000E+01 0.  1.
         11    1    6    6    0    0  0.10236212136E+02  0.30581536470E+02  0.10505198946E+03  0.10989054055E+03  0.00000000000E+00 0. -1.
        -12    1    6    6    0    0  0.11854384178E+03 -0.19314728993E+02  0.48351709285E+03  0.49821128074E+03  0.00000000000E+00 0.  1.
</event>
<event>
12    1  0.8633375E-002  0.1784276E+03  0.7818608E-02  0.1170576E+00
         21   -1    0    0  503  502  0.00000000000E+00  0.00000000000E+00  0.12206054993E+03  0.12206054993E+03  0.00000000000E+00 0.  1.
         21   -1    0    0  501  503 -0.00000000000E+00 -0.00000000000E+00 -0.56862574883E+03  0.56862574883E+03  0.00000000000E+00 0.  1.
          6    2    1    2  501    0 -0.36857430425E+02  0.65528837120E+01 -0.48174515017E+03  0.51372636751E+03  0.17445624237E+03 0.  0.
         24    2    3    3    0    0 -0.27067119642E+02 -0.54062172290E+02 -0.39543202091E+03  0.40769768515E+03  0.78711955148E+02 0.  0.
         -6    2    1    2    0  502  0.36857430425E+02 -0.65528837120E+01  0.35179951268E+02  0.17695993126E+03  0.16933923892E+03 0.  0.
        -24    2    5    5    0    0  0.35800066652E+02  0.43899403743E+02 -0.21441001715E+02  0.10096931576E+03  0.80785417920E+02 0.  0.
          5    1    3    3  501    0 -0.97903107833E+01  0.60615056002E+02 -0.86313129261E+02  0.10602868236E+03  0.47000000000E+01 0. -1.
        -13    1    4    4    0    0  0.78328795159E+01 -0.57025805791E+02 -0.16807134590E+03  0.17765492912E+03  0.00000000000E+00 0.  1.
         14    1    4    4    0    0 -0.34899999158E+02  0.29636335014E+01 -0.22736067500E+03  0.23004275603E+03  0.00000000000E+00 0. -1.
         -5    1    5    5    0  502  0.10573637728E+01 -0.50452287455E+02  0.56620952983E+02  0.75990615501E+02  0.47000000000E+01 0.  1.
         13    1    6    6    0    0  0.40007309346E+01  0.55433746350E+02  0.79677769921E+01  0.56146162403E+02  0.00000000000E+00 0. -1.
        -14    1    6    6    0    0  0.31799335718E+02 -0.11534342607E+02 -0.29408778708E+02  0.44823153353E+02  0.00000000000E+00 0.  1.
</event>
<event>
12    1  0.8633375E-002  0.2048376E+03  0.7818608E-02  0.1146036E+00
         21   -1    0    0  503  502  0.00000000000E+00  0.00000000000E+00  0.16777582708E+03  0.16777582708E+03  0.00000000000E+00 0. -1.
         21   -1    0    0  501  503 -0.00000000000E+00 -0.00000000000E+00 -0.55029635639E+03  0.55029635639E+03  0.00000000000E+00 0. -1.
          6    2    1    2  501    0  0.50834624529E+02  0.98015414498E+02 -0.45694766743E+03  0.50013221641E+03  0.17070407901E+03 0.  0.
         24    2    3    3    0    0  0.93003699384E+02  0.49043035728E+02 -0.24564682476E+03  0.27911940938E+03  0.80686893154E+02 0.  0.
         -6    2    1    2    0  502 -0.50834624529E+02 -0.98015414498E+02  0.74427138124E+02  0.21793996705E+03  0.17253188059E+03 0.  0.
        -24    2    5    5    0    0 -0.74514120905E+02 -0.89637753817E+01  0.59562858659E+02  0.12448436379E+03  0.79472757676E+02 0.  0.
          5    1    3    3  501    0 -0.42169074854E+02  0.48972378770E+02 -0.21130084268E+03  0.22101280703E+03  0.47000000000E+01 0. -1.
        -13    1    4    4    0    0  0.58817706073E+02  0.35340076109E+02 -0.22833687564E+03  0.23842435342E+03  0.00000000000E+00 0.  1.
         14    1    4    4    0    0  0.34185993310E+02  0.13702959619E+02 -0.17309949114E+02  0.40695055956E+02  0.00000000000E+00 0. -1.
         -5    1    5    5    0  502  0.23679496375E+02 -0.89051639116E+02  0.14864279465E+02  0.93455603266E+02  0.47000000000E+01 0.  1.
         13    1    6    6    0    0 -0.30937594668E+02 -0.38043919306E+02  0.52134844930E+02  0.71571758507E+02  0.00000000000E+00 0. -1.
        -14    1    6    6    0    0 -0.43576526237E+02  0.29080143924E+02  0.74280137293E+01  0.52912605280E+02  0.00000000000E+00 0.  1.
</event>
<event>
12    1  0.8633375E-002  0.1896283E+03  0.7818608E-02  0.1163317E+00
         21   -1    0    0  501  502  0.00000000000E+00  0.00000000000E+00  0.15072162005E+04  0.15072162005E+04  0.00000000000E+00 0.  1.
         21   -1    0    0  502  503 -0.00000000000E+00 -0.00000000000E+00 -0.21542583776E+02  0.21542583776E+02  0.00000000000E+00 0.  1.
         -6    2    1    2    0  503  0.79602289318E+01 -0.73422213482E+02  0.77122774137E+03  0.79419842283E+03  0.17465600216E+03 0.  0.
        -24    2    3    3    0    0 -0.13601498740E+02 -0.41909191726E+01  0.63296458960E+03  0.63800409082E+03  0.78755848386E+02 0.  0.
          6    2    1    2  501    0 -0.79602289318E+01  0.73422213482E+02  0.71444587536E+03  0.73456036145E+03  0.15392150311E+03 0.  0.
         24    2    5    5    0    0 -0.49170630064E+02  0.59690335795E+02  0.62492399936E+03  0.63494551362E+03  0.81517564000E+02 0.  0.
          5    1    5    5  501    0  0.41210401132E+02  0.13731877686E+02  0.89521875997E+02  0.99614847830E+02  0.47000000000E+01 0. -1.
        -13    1    6    6    0    0  0.19867715030E+02  0.45600416046E-01  0.79585687470E+02  0.82028103904E+02  0.00000000000E+00 0.  1.
         14    1    6    6    0    0 -0.69038345093E+02  0.59644735379E+02  0.54533831189E+03  0.55291740972E+03  0.00000000000E+00 0. -1.
         -5    1    3    3    0  503  0.21561727671E+02 -0.69231294309E+02  0.13826315177E+03  0.15619433200E+03  0.47000000000E+01 0.  1.
         13    1    4    4    0    0 -0.64163380126E+01  0.36724603023E+02  0.24472705196E+03  0.24755039047E+03  0.00000000000E+00 0. -1.
        -14    1    4    4    0    0 -0.71851607270E+01 -0.40915522195E+02  0.38823753763E+03  0.39045370035E+03  0.00000000000E+00 0.  1.
</event>
<event>
12    1  0.8633375E-002  0.1860047E+03  0.7818608E-02  0.1162134E+00
         21   -1    0    0  501  502  0.00000000000E+00  0.00000000000E+00  0.55736720086E+02  0.55736720086E+02  0.00000000000E+00 0.  1.
         21   -1    0    0  502  503 -0.00000000000E+00 -0.00000000000E+00 -0.68314922649E+03  0.68314922649E+03  0.00000000000E+00 0.  1.
         -6    2    1    2    0  503 -0.22482034274E+02 -0.67730017708E+02 -0.42555896634E+03  0.46439990101E+03  0.17168004271E+03 0.  0.
        -24    2    3    3    0    0 -0.36039920166E+02 -0.29424035188E+02 -0.41045361739E+03  0.42079455577E+03  0.80194990146E+02 0.  0.
          6    2    1    2  501    0  0.22482034274E+02  0.67730017708E+02 -0.20185354007E+03  0.27448604557E+03  0.17177002186E+03 0.  0.
         24    2    5    5    0    0  0.11187571344E+02 -0.28088304013E+02 -0.11585760688E+03  0.14515659728E+03  0.82056919793E+02 0.  0.
          5    1    5    5  501    0  0.11294462930E+02  0.95818321721E+02 -0.85995933194E+02  0.12932944829E+03  0.47000000000E+01 0. -1.
        -13    1    6    6    0    0  0.97114513945E+01  0.94783391053E+01  0.79767812629E+01  0.15741036805E+02  0.00000000000E+00 0.  1.
         14    1    6    6    0    0  0.14761199498E+01 -0.37566643119E+02 -0.12383438814E+03  0.12941556047E+03  0.00000000000E+00 0. -1.
         -5    1    3    3    0  503  0.13557885892E+02 -0.38305982520E+02 -0.15105348943E+02  0.43605345238E+02  0.47000000000E+01 0.  1.
         13    1    4    4    0    0 -0.29693095017E+02  0.21401084642E+02 -0.10797683194E+03  0.11401176497E+03  0.00000000000E+00 0. -1.
        -14    1    4    4    0    0 -0.63468251482E+01 -0.50825119830E+02 -0.30247678546E+03  0.30678279081E+03  0.00000000000E+00 0.  1.
</event>
<event>
12    1  0.8633375E-002  0.2125217E+03  0.7818608E-02  0.1140261E+00
         21   -1    0    0  503  502  0.00000000000E+00  0.00000000000E+00  0.31421687039E+03  0.31421687039E+03  0.00000000000E+00 0.  1.
         21   -1    0    0  501  503 -0.00000000000E+00 -0.00000000000E+00 -0.22871241541E+03  0.22871241541E+03  0.00000000000E+00 0.  1.
          6    2    1    2  501    0 -0.48123372309E+02  0.11152532113E+03 -0.12473438581E+03  0.24642264725E+03  0.17438950042E+03 0.  0.
         24    2    3    3    0    0 -0.66224732987E+02  0.12033428198E+03 -0.14692905341E+03  0.21609196444E+03  0.79003390319E+02 0.  0.
         -6    2    1    2    0  502  0.48123372309E+02 -0.11152532113E+03  0.21023884078E+03  0.29650663855E+03  0.17018243245E+03 0.  0.
        -24    2    5    5    0    0  0.64592686545E+01 -0.10457680252E+03  0.71156272624E+02  0.15107545135E+03  0.82356220718E+02 0.  0.
          5    1    3    3  501    0  0.18101360679E+02 -0.88089608490E+01  0.22194667598E+02  0.30330682805E+02  0.47000000000E+01 0. -1.
        -11    1    4    4    0    0 -0.44512027085E+01  0.23159227126E+02 -0.78902024587E+02  0.82351032116E+02  0.00000000000E+00 0.  1.
         12    1    4    4    0    0 -0.61773530279E+02  0.97175054856E+02 -0.68027028819E+02  0.13374093233E+03  0.00000000000E+00 0. -1.
         -5    1    5    5    0  502  0.41664103654E+02 -0.69485186110E+01  0.13908256816E+03  0.14543118720E+03  0.47000000000E+01 0.  1.
         11    1    6    6    0    0  0.97233407352E+01 -0.38460101658E+02 -0.15011680299E+02  0.42415484437E+02  0.00000000000E+00 0. -1.
        -12    1    6    6    0    0 -0.32640720807E+01 -0.66116700864E+02  0.86167952923E+02  0.10865996692E+03  0.00000000000E+00 0.  1.
</event>
<event>
12    1  0.8633375E-002  0.1728453E+03  0.7818608E-02  0.1174915E+00
         21   -1    0    0  503  502  0.00000000000E+00  0.00000000000E+00  0.45249566465E+03  0.45249566465E+03  0.00000000000E+00 0.  1.
         21   -1    0    0  501  503 -0.00000000000E+00 -0.00000000000E+00 -0.68889456202E+02  0.68889456202E+02  0.00000000000E+00 0.  1.
          6    2    1    2  501    0  0.22395108723E+02 -0.42706129273E+01  0.13860805325E+03  0.22155738877E+03  0.17133506664E+03 0.  0.
         24    2    3    3    0    0  0.59937674874E+02 -0.17399352958E+02  0.14884871962E+03  0.18022012548E+03  0.80175369934E+02 0.  0.
         -6    2    1    2    0  502 -0.22395108723E+02  0.42706129273E+01  0.24499815520E+03  0.29982773209E+03  0.17132657076E+03 0.  0.
        -24    2    5    5    0    0 -0.17786734284E+01  0.39762272455E+02  0.24193067728E+03  0.25840075149E+03  0.81586112624E+02 0.  0.
          5    1    3    3  501    0 -0.37542566152E+02  0.13128740031E+02 -0.10240666369E+02  0.41337263283E+02  0.47000000000E+01 0. -1.
        -11    1    4    4    0    0  0.10246612488E+02  0.29408610285E+02  0.30475459835E+02  0.43573077451E+02  0.00000000000E+00 0.  1.
         12    1    4    4    0    0  0.49691062386E+02 -0.46807963243E+02  0.11837325978E+03  0.13664704803E+03  0.00000000000E+00 0. -1.
         -5    1    5    5    0  502 -0.20616435294E+02 -0.35491659527E+02  0.30674779185E+01  0.41426980593E+02  0.47000000000E+01 0.  1.
         11    1    6    6    0    0 -0.13296981694E+02  0.39508495184E+02  0.45793786076E+02  0.61925776192E+02  0.00000000000E+00 0. -1.
        -12    1    6    6    0    0  0.11518308265E+02  0.25377727059E+00  0.19613689121E+03  0.19647497530E+03  0.00000000000E+00 0.  1.
</event>
<event>
12    1  0.8633375E-002  0.1907686E+03  0.7818608E-02  0.1159400E+00
         21   -1    0    0  503  502  0.00000000000E+00  0.00000000000E+00  0.32344299465E+03  0.32344299465E+03  0.00000000000E+00 0. -1.
         21   -1    0    0  501  503 -0.00000000000E+00 -0.00000000000E+00 -0.12249380144E+03  0.12249380144E+03  0.00000000000E+00 0. -1.
          6    2    1    2  501    0 -0.44833127560E+02  0.52649023785E+02  0.23049185145E+02  0.18508993712E+03  0.17013256848E+03 0.  0.
         24    2    3    3    0    0  0.34991568016E+02  0.26574178418E+02 -0.25539846974E+02  0.87956710950E+02  0.71787898889E+02 0.  0.
         -6    2    1    2    0  502  0.44833127560E+02 -0.52649023785E+02  0.17790000807E+03  0.26084685896E+03  0.17779409981E+03 0.  0.
        -24    2    5    5    0    0  0.77106469395E+01 -0.74758667444E+01  0.18335908278E+03  0.20193519474E+03  0.83916190211E+02 0.  0.
          5    1    3    3  501    0 -0.79824695576E+02  0.26074845367E+02  0.48589032119E+02  0.97133226174E+02  0.47000000000E+01 0. -1.
        -11    1    4    4    0    0  0.26066942253E+02  0.11373436667E+02  0.22833374518E+02  0.36471955417E+02  0.00000000000E+00 0.  1.
         12    1    4    4    0    0  0.89246257628E+01  0.15200741751E+02 -0.48373221492E+02  0.51484755533E+02  0.00000000000E+00 0. -1.
         -5    1    5    5    0  502  0.37122480621E+02 -0.45173157041E+02 -0.54590747064E+01  0.58911664220E+02  0.47000000000E+01 0.  1.
         11    1    6    6    0    0 -0.17269712711E+02  0.18109950493E+02  0.15298414538E+03  0.15501729588E+03  0.00000000000E+00 0. -1.
        -12    1    6    6    0    0  0.24980359650E+02 -0.25585817237E+02  0.30374937395E+02  0.46917898863E+02  0.00000000000E+00 0.  1.
</event>
<event>
12    1  0.8633375E-002  0.2640195E+03  0.7818608E-02  0.1104782E+00
         21   -1    0    0  503  502  0.00000000000E+00  0.00000000000E+00  0.25695818480E+03  0.25695818480E+03  0.00000000000E+00 0.  1.
         21   -1    0    0  501  503 -0.00000000000E+00 -0.00000000000E+00 -0.31897588764E+03  0.31897588764E+03  0.00000000000E+00 0.  1.
          6    2    1    2  501    0  0.65213285105E+00 -0.20039789334E+03 -0.14262140174E+03  0.30007857741E+03  0.17189109184E+03 0.  0.
         24    2    3    3    0    0  0.36487272347E+02 -0.20774072553E+03 -0.11861668356E+03  0.25607413557E+03  0.83764641709E+02 0.  0.
         -6    2    1    2    0  502 -0.65213285105E+00  0.20039789334E+03  0.80603698901E+02  0.27585549502E+03  0.17157959355E+03 0.  0.
        -24    2    5    5    0    0  0.29310357977E+01  0.50197552042E+02 -0.16715845124E+02  0.96785214758E+02  0.80991191593E+02 0.  0.
          5    1    3    3  501    0 -0.35835139496E+02  0.73428321886E+01 -0.24004718178E+02  0.44004441845E+02  0.47000000000E+01 0. -1.
        -13    1    4    4    0    0  0.16554999680E+02 -0.59541415099E+02 -0.80996500237E+02  0.10188072034E+03  0.00000000000E+00 0.  1.
         14    1    4    4    0    0  0.19932272668E+02 -0.14819931043E+03 -0.37620183322E+02  0.15419341523E+03  0.00000000000E+00 0. -1.
         -5    1    5    5    0  502 -0.35831686487E+01  0.15020034130E+03  0.97319544025E+02  0.17907028026E+03  0.47000000000E+01 0.  1.
         13    1    6    6    0    0  0.30130029853E+02 -0.41539279746E+01  0.75578080119E+01  0.31339978917E+02  0.00000000000E+00 0. -1.
        -14    1    6    6    0    0 -0.27198994056E+02  0.54351480017E+02 -0.24273653136E+02  0.65445235841E+02  0.00000000000E+00 0.  1.
</event>
<event>
12    1  0.8633375E-002  0.2064086E+03  0.7818608E-02  0.1144942E+00
         21   -1    0    0  503  502  0.00000000000E+00  0.00000000000E+00  0.80680979321E+02  0.80680979321E+02  0.00000000000E+00 0. -1.
         21   -1    0    0  501  503 -0.00000000000E+00 -0.00000000000E+00 -0.88001303520E+03  0.88001303520E+03  0.00000000000E+00 0. -1.
          6    2    1    2  501    0  0.90070783036E+02 -0.63007658093E+02 -0.70471029581E+03  0.73363060585E+03  0.17179800317E+03 0.  0.
         24    2    3    3    0    0 -0.21139810918E+02 -0.20396816366E+02 -0.29570490785E+03  0.30761302709E+03  0.79507610856E+02 0.  0.
         -6    2    1    2    0  502 -0.90070783036E+02  0.63007658093E+02 -0.94621760075E+02  0.22706340867E+03  0.17470490303E+03 0.  0.
        -24    2    5    5    0    0 -0.81629374537E+02  0.61520557773E+02 -0.13411346291E+03  0.18637983167E+03  0.79390723026E+02 0.  0.
          5    1    3    3  501    0  0.11121059395E+03 -0.42610841727E+02 -0.40900538796E+03  0.42601757877E+03  0.47000000000E+01 0. -1.
        -11    1    4    4    0    0 -0.25700935999E+02 -0.34436190069E+02 -0.28756132645E+03  0.29075402967E+03  0.00000000000E+00 0.  1.
         12    1    4    4    0    0  0.45611250814E+01  0.14039373702E+02 -0.81435813959E+01  0.16858997417E+02  0.00000000000E+00 0. -1.
         -5    1    5    5    0  502 -0.84414084991E+01  0.14871003199E+01  0.39491702836E+02  0.40683577002E+02  0.47000000000E+01 0.  1.
         11    1    6    6    0    0 -0.36858633379E+02 -0.10206505291E+02 -0.16803908583E+02  0.41774429362E+02  0.00000000000E+00 0. -1.
        -12    1    6    6    0    0 -0.44770741159E+02  0.71727063064E+02 -0.11730955433E+03  0.14460540231E+03  0.00000000000E+00 0.  1.
</event>
<event>
12    1  0.8633375E-002  0.1879037E+03  0.7818608E-02  0.1161091E+00
         21   -1    0    0  503  502  0.00000000000E+00  0.00000000000E+00  0.88606623044E+02  0.88606623044E+02  0.00000000000E+00 0. -1.
         21   -1    0    0  501  503 -0.00000000000E+00 -0.00000000000E+00 -0.68876713039E+03  0.68876713039E+03  0.00000000000E+00 0. -1.
          6    2    1    2  501    0 -0.59555923892E+02  0.45682290292E+02 -0.55383987450E+03  0.58384498118E+03  0.16882705867E+03 0.  0.
         24    2    3    3    0    0  0.37375284139E+01 -0.11579335223E+02 -0.38859500533E+03  0.39779952531E+03  0.84204121312E+02 0.  0.
         -6    2    1    2    0  502  0.59555923892E+02 -0.45682290292E+02 -0.46320632845E+02  0.19352877226E+03  0.17226144359E+03 0.  0.
        -24    2    5    5    0    0 -0.21774157632E+02 -0.57179523119E+02 -0.55241986516E+00  0.99382142776E+02  0.78312791614E+02 0.  0.
          5    1    3    3  501    0 -0.63293452306E+02  0.57261625514E+02 -0.16524486918E+03  0.18604545587E+03  0.47000000000E+01 0. -1.
        -11    1    4    4    0    0  0.28246250979E+02  0.92737337938E+01 -0.53852095802E+02  0.61513421748E+02  0.00000000000E+00 0.  1.
         12    1    4    4    0    0 -0.24508722565E+02 -0.20853069017E+02 -0.33474290952E+03  0.33628610356E+03  0.00000000000E+00 0. -1.
         -5    1    5    5    0  502  0.81330081524E+02  0.11497232827E+02 -0.45768212980E+02  0.94146629481E+02  0.47000000000E+01 0.  1.
         11    1    6    6    0    0  0.18925876558E+02 -0.42444795840E+01  0.21600172455E+02  0.29030533245E+02  0.00000000000E+00 0. -1.
        -12    1    6    6    0    0 -0.40700034190E+02 -0.52935043535E+02 -0.22152592320E+02  0.70351609531E+02  0.00000000000E+00 0.  1.
</event>
<event>
12    1  0.8633375E-002  0.1793331E+03  0.7818608E-02  0.1168570E+00
         21   -1    0    0  503  502  0.00000000000E+00  0.00000000000E+00  0.19248010255E+03  0.19248010255E+03  0.00000000000E+00 0. -1.
         21   -1    0    0  501  503 -0.00000000000E+00 -0.00000000000E+00 -0.23827174581E+03  0.23827174581E+03  0.00000000000E+00 0. -1.
          6    2    1    2  501    0  0.49509799344E+02  0.31452165863E+01 -0.14101941648E+03  0.22813775294E+03  0.17233469144E+03 0.  0.
         24    2    3    3    0    0  0.64872616395E+02 -0.18758240348E+02 -0.26876305604E+02  0.11080694993E+03  0.83639203798E+02 0.  0.
         -6    2    1    2    0  502 -0.49509799344E+02 -0.31452165863E+01  0.95227773215E+02  0.20261409542E+03  0.17182267095E+03 0.  0.
        -24    2    5    5    0    0 -0.37286171513E+01 -0.47693982007E+02  0.22580097554E+01  0.89716017220E+02  0.75863341820E+02 0.  0.
          5    1    3    3  501    0 -0.15362817051E+02  0.21903456934E+02 -0.11414311088E+03  0.11733080301E+03  0.47000000000E+01 0. -1.
        -11    1    4    4    0    0 -0.58761172436E+00 -0.38867233937E+02 -0.69562249916E+01  0.39489191275E+02  0.00000000000E+00 0.  1.
         12    1    4    4    0    0  0.65460228119E+02  0.20108993589E+02 -0.19920080612E+02  0.71317758659E+02  0.00000000000E+00 0. -1.
         -5    1    5    5    0  502 -0.45781182192E+02  0.44548765421E+02  0.92969763460E+02  0.11289807820E+03  0.47000000000E+01 0.  1.
         13    1    6    6    0    0 -0.24704201697E+02 -0.78187574713E+01 -0.25858436891E+02  0.36607230274E+02  0.00000000000E+00 0. -1.
        -14    1    6    6    0    0  0.20975584546E+02 -0.39875224536E+02  0.28116446646E+02  0.53108786946E+02  0.00000000000E+00 0.  1.
</event>
<event>
12    1  0.8633375E-002  0.2102983E+03  0.7818608E-02  0.1141333E+00
         21   -1    0    0  503  502  0.00000000000E+00  0.00000000000E+00  0.16077564037E+03  0.16077564037E+03  0.00000000000E+00 0.  1.
         21   -1    0    0  501  503 -0.00000000000E+00 -0.00000000000E+00 -0.27812014520E+03  0.27812014520E+03  0.00000000000E+00 0.  1.
          6    2    1    2  501    0 -0.12108978237E+03  0.14617905017E+01 -0.81719811554E+02  0.22561803679E+03  0.17193166869E+03 0.  0.
         24    2    3    3    0    0 -0.15166258740E+03 -0.10854508392E+02 -0.87816013521E+02  0.19177071335E+03  0.77103783934E+02 0.  0.
         -6    2    1    2    0  502  0.12108978237E+03 -0.14617905017E+01 -0.35624693278E+02  0.21327774878E+03  0.17191104423E+03 0.  0.
        -24    2    5    5    0    0  0.99865389528E+02  0.18351992223E+02 -0.85865243547E+02  0.15506036539E+03  0.79755784882E+02 0.  0.
          5    1    3    3  501    0  0.30572805033E+02  0.12316298894E+02  0.60962019672E+01  0.33847323446E+02  0.47000000000E+01 0. -1.
        -11    1    4    4    0    0 -0.68944175826E+02  0.14629412371E+02 -0.77255205650E+02  0.10457382984E+03  0.00000000000E+00 0.  1.
         12    1    4    4    0    0 -0.82718411574E+02 -0.25483920763E+02 -0.10560807871E+02  0.87196883509E+02  0.00000000000E+00 0. -1.
         -5    1    5    5    0  502  0.21224392839E+02 -0.19813782724E+02  0.50240550269E+02  0.58217383388E+02  0.47000000000E+01 0.  1.
         13    1    6    6    0    0  0.37097985195E+02 -0.29310445210E+02 -0.16518556021E+02  0.50082186424E+02  0.00000000000E+00 0. -1.
        -14    1    6    6    0    0  0.62767404333E+02  0.47662437433E+02 -0.69346687526E+02  0.10497817897E+03  0.00000000000E+00 0.  1.
</event>
<event>
12    1  0.8633375E-002  0.2039267E+03  0.7818608E-02  0.1147821E+00
         21   -1    0    0  503  502  0.00000000000E+00  0.00000000000E+00  0.96529936659E+02  0.96529936659E+02  0.00000000000E+00 0.  1.
         21   -1    0    0  501  503 -0.00000000000E+00 -0.00000000000E+00 -0.77041852438E+03  0.77041852438E+03  0.00000000000E+00 0.  1.
          6    2    1    2  501    0  0.90237710430E+02 -0.34707106294E+02 -0.62746991874E+03  0.65780547411E+03  0.17216885674E+03 0.  0.
         24    2    3    3    0    0  0.82140861364E+02  0.36576253910E+02 -0.46626563853E+03  0.48129545636E+03  0.78464814949E+02 0.  0.
         -6    2    1    2    0  502 -0.90237710430E+02  0.34707106294E+02 -0.46418668980E+02  0.20914298693E+03  0.17955129780E+03 0.  0.
        -24    2    5    5    0    0 -0.97382666634E+02 -0.20837105245E+02  0.93131339623E+01  0.12999544310E+03  0.83033198468E+02 0.  0.
          5    1    3    3  501    0  0.80968490659E+01 -0.71283360204E+02 -0.16120428021E+03  0.17651001775E+03  0.47000000000E+01 0. -1.
        -13    1    4    4    0    0  0.92585052932E+02  0.13471815955E+02 -0.38251354642E+03  0.39378940444E+03  0.00000000000E+00 0.  1.
         14    1    4    4    0    0 -0.10444191569E+02  0.23104437955E+02 -0.83752092107E+02  0.87506051922E+02  0.00000000000E+00 0. -1.
         -5    1    5    5    0  502  0.71449562044E+01  0.55544211539E+02 -0.55731802942E+02  0.79147543827E+02  0.47000000000E+01 0.  1.
         13    1    6    6    0    0 -0.51141944909E+02  0.18606892468E+02 -0.25340175681E+02  0.60031987140E+02  0.00000000000E+00 0. -1.
        -14    1    6    6    0    0 -0.46240721725E+02 -0.39443997713E+02  0.34653309643E+02  0.69963455964E+02  0.00000000000E+00 0.  1.
</event>
<event>
12    1  0.8633375E-002  0.2095207E+03  0.7818608E-02  0.1145123E+00
         21   -1    0    0  503  502  0.00000000000E+00  0.00000000000E+00  0.34436869834E+02  0.34436869834E+02  0.00000000000E+00 0. -1.
         21   -1    0    0  501  503 -0.00000000000E+00 -0.00000000000E+00 -0.13031630852E+04  0.13031630852E+04  0.00000000000E+00 0.  1.
          6    2    1    2  501    0 -0.47228918810E+02 -0.73764612242E+02 -0.85921002344E+03  0.88438723890E+03  0.19033427215E+03 0.  0.
         24    2    3    3    0    0 -0.93127208578E+02 -0.94122211203E+02 -0.65282231980E+03  0.67192769204E+03  0.88193959410E+02 0.  0.
         -6    2    1    2    0  502  0.47228918810E+02  0.73764612242E+02 -0.40951619192E+03  0.45321271613E+03  0.17328146417E+03 0.  0.
        -24    2    5    5    0    0  0.24483282934E+02  0.22687631729E+01 -0.33998940067E+03  0.35081601166E+03  0.82912622910E+02 0.  0.
          5    1    3    3  501    0  0.45898289769E+02  0.20357598961E+02 -0.20638770364E+03  0.21245954686E+03  0.47000000000E+01 0. -1.
        -11    1    4    4    0    0 -0.99131774826E+01 -0.88743915436E+01 -0.28467082249E+03  0.28498158377E+03  0.00000000000E+00 0.  1.
         12    1    4    4    0    0 -0.83214031096E+02 -0.85247819659E+02 -0.36815149732E+03  0.38694610827E+03  0.00000000000E+00 0. -1.
         -5    1    5    5    0  502  0.22745635876E+02  0.71495849069E+02 -0.69526791252E+02  0.10239670447E+03  0.47000000000E+01 0.  1.
         13    1    6    6    0    0 -0.70652909720E+01  0.34741506681E+02 -0.89464497487E+02  0.96232982566E+02  0.00000000000E+00 0. -1.
        -14    1    6    6    0    0  0.31548573906E+02 -0.32472743508E+02 -0.25052490318E+03  0.25458302909E+03  0.00000000000E+00 0.  1.
</event>
<event>
12    1  0.8633375E-002  0.1822863E+03  0.7818608E-02  0.1165701E+00
         21   -1    0    0  501  502  0.00000000000E+00  0.00000000000E+00  0.18921060180E+03  0.18921060180E+03  0.00000000000E+00 0. -1.
         21   -1    0    0  502  503 -0.00000000000E+00 -0.00000000000E+00 -0.20642028150E+03  0.20642028150E+03  0.00000000000E+00 0. -1.
         -6    2    1    2    0  503 -0.60615602794E+02  0.61907543033E+01 -0.85477547723E+02  0.20098042227E+03  0.17138886262E+03 0.  0.
        -24    2    3    3    0    0 -0.30774912371E+02  0.38188282600E+02 -0.11445535445E+03  0.14829160083E+03  0.80529066531E+02 0.  0.
          6    2    1    2  501    0  0.60615602794E+02 -0.61907543033E+01  0.68267868029E+02  0.19465046103E+03  0.17180140696E+03 0.  0.
         24    2    5    5    0    0  0.22239547225E+02 -0.66522811547E+02  0.60335466904E+02  0.12255544206E+03  0.80371549038E+02 0.  0.
          5    1    5    5  501    0  0.38376055570E+02  0.60332057244E+02  0.79324011255E+01  0.72095018968E+02  0.47000000000E+01 0. -1.
        -13    1    6    6    0    0 -0.11140622115E+02 -0.97216945527E+01 -0.15956075091E+02  0.21753646554E+02  0.00000000000E+00 0.  1.
         14    1    6    6    0    0  0.33380169339E+02 -0.56801116995E+02  0.76291541995E+02  0.10080179550E+03  0.00000000000E+00 0. -1.
         -5    1    3    3    0  503 -0.29840690424E+02 -0.31997528296E+02  0.28977806724E+02  0.52688821439E+02  0.47000000000E+01 0.  1.
         13    1    4    4    0    0  0.27433817774E+02  0.10520233985E+02 -0.29277221421E+02  0.41478251831E+02  0.00000000000E+00 0. -1.
        -14    1    4    4    0    0 -0.58208730145E+02  0.27668048615E+02 -0.85178133026E+02  0.10681334900E+03  0.00000000000E+00 0.  1.
</event>
<event>
12    1  0.8633375E-002  0.2029222E+03  0.7818608E-02  0.1147510E+00
         21   -1    0    0  501  502  0.00000000000E+00  0.00000000000E+00  0.14092275711E+03  0.14092275711E+03  0.00000000000E+00 0.  1.
         21   -1    0    0  502  503 -0.00000000000E+00 -0.00000000000E+00 -0.30143770725E+03  0.30143770725E+03  0.00000000000E+00 0. -1.
         -6    2    1    2    0  503 -0.10575287852E+03  0.16878713421E+02 -0.38751410655E+02  0.20658920388E+03  0.17236259760E+03 0.  0.
        -24    2    3    3    0    0 -0.68657957040E+02  0.38136729919E+02 -0.74997505166E+02  0.15034148542E+03  0.10396928019E+03 0.  0.
          6    2    1    2  501    0  0.10575287852E+03 -0.16878713421E+02 -0.12176353948E+03  0.23577126048E+03  0.17115246255E+03 0.  0.
         24    2    5    5    0    0  0.71845752509E+02 -0.69902060212E+02 -0.43734532205E+02  0.13541297992E+03  0.79848955217E+02 0.  0.
          5    1    5    5  501    0  0.33907126013E+02  0.53023346791E+02 -0.78029007272E+02  0.10035828055E+03  0.47000000000E+01 0. -1.
        -11    1    6    6    0    0  0.52973069260E+02 -0.81084309627E+02 -0.54329323996E+02  0.11105173020E+03  0.00000000000E+00 0.  1.
         12    1    6    6    0    0  0.18872683249E+02  0.11182249415E+02  0.10594791792E+02  0.24361249724E+02  0.00000000000E+00 0. -1.
         -5    1    3    3    0  503 -0.37094921482E+02 -0.21258016498E+02  0.36246094511E+02  0.56247718465E+02  0.47000000000E+01 0.  1.
         11    1    4    4    0    0 -0.54307981136E+02  0.69848608782E+02 -0.29940710576E+02  0.93405733837E+02  0.00000000000E+00 0. -1.
        -12    1    4    4    0    0 -0.14349975903E+02 -0.31711878863E+02 -0.45056794590E+02  0.56935751582E+02  0.00000000000E+00 0.  1.
</event>
<event>
12    1  0.8633375E-002  0.3009362E+03  0.7818608E-02  0.1084780E+00
         21   -1    0    0  501  502  0.00000000000E+00  0.00000000000E+00  0.88950278908E+03  0.88950278908E+03  0.00000000000E+00 0.  1.
         21   -1    0    0  502  503 -0.00000000000E+00 -0.00000000000E+00 -0.13338561024E+03  0.13338561024E+03  0.00000000000E+00 0. -1.
         -6    2    1    2    0  503 -0.24623676205E+03 -0.14198736268E+02  0.12912914822E+03  0.32741980177E+03  0.17232307614E+03 0.  0.
        -24    2    3    3    0    0 -0.23671000098E+03 -0.59857397341E+02  0.11490224935E+03  0.27843034209E+03  0.68603177115E+02 0.  0.
          6    2    1    2  501    0  0.24623676205E+03  0.14198736268E+02  0.62698803062E+03  0.69546859756E+03  0.17241935085E+03 0.  0.
         24    2    5    5    0    0  0.20373933821E+03 -0.42620963215E+02  0.53105738632E+03  0.57605633772E+03  0.80577243847E+02 0.  0.
          5    1    5    5  501    0  0.42497423840E+02  0.56819699483E+02  0.95930644303E+02  0.11941225983E+03  0.47000000000E+01 0. -1.
        -13    1    6    6    0    0  0.39891040097E+02  0.23743817391E+02  0.11103538083E+03  0.12034915762E+03  0.00000000000E+00 0.  1.
         14    1    6    6    0    0  0.16384829812E+03 -0.66364780606E+02  0.42002200549E+03  0.45570718010E+03  0.00000000000E+00 0. -1.
         -5    1    3    3    0  503 -0.95267610698E+01  0.45658661073E+02  0.14226898864E+02  0.48989459670E+02  0.47000000000E+01 0.  1.
         11    1    4    4    0    0 -0.10933646113E+03 -0.66912767150E+01  0.81189368362E+02  0.13634862835E+03  0.00000000000E+00 0. -1.
        -12    1    4    4    0    0 -0.12737353985E+03 -0.53166120626E+02  0.33712880990E+02  0.14208171375E+03  0.00000000000E+00 0.  1.
</event>
<event>
12    1  0.8633375E-002  0.2670820E+03  0.7818608E-02  0.1102987E+00
         21   -1    0    0  501  502  0.00000000000E+00  0.00000000000E+00  0.69183815022E+03  0.69183815022E+03  0.00000000000E+00 0.  1.
         21   -1    0    0  502  503 -0.00000000000E+00 -0.00000000000E+00 -0.22181868553E+03  0.22181868553E+03  0.00000000000E+00 0.  1.
         -6    2    1    2    0  503  0.16768026822E+03  0.11586879992E+03 -0.99247537700E+02  0.28492606321E+03  0.17259935286E+03 0.  0.
        -24    2    3    3    0    0  0.11608952453E+03  0.35744308954E+02 -0.12460461990E+03  0.18620113978E+03  0.66257979343E+02 0.  0.
          6    2    1    2  501    0 -0.16768026822E+03 -0.11586879992E+03  0.56926700238E+03  0.62873077254E+03  0.17232299090E+03 0.  0.
         24    2    5    5    0    0 -0.35869852113E+02  0.48997171450E+01  0.16455200765E+03  0.18626570333E+03  0.79415965002E+02 0.  0.
          5    1    5    5  501    0 -0.13181041611E+03 -0.12076851707E+03  0.40471499474E+03  0.44246506921E+03  0.47000000000E+01 0. -1.
        -13    1    6    6    0    0 -0.39412042453E+02  0.10084982069E+02  0.17187208052E+03  0.17662114260E+03  0.00000000000E+00 0.  1.
         14    1    6    6    0    0  0.35421903405E+01 -0.51852649244E+01 -0.73200728699E+01  0.96445607243E+01  0.00000000000E+00 0. -1.
         -5    1    3    3    0  503  0.51590743693E+02  0.80124490970E+02  0.25357082203E+02  0.98724923428E+02  0.47000000000E+01 0.  1.
         13    1    4    4    0    0  0.11516121099E+03  0.35387164014E+02 -0.87051507574E+02  0.14863485750E+03  0.00000000000E+00 0. -1.
        -14    1    4    4    0    0  0.92831353643E+00  0.35714494002E+00 -0.37553112329E+02  0.37566282277E+02  0.00000000000E+00 0.  1.
</event>
<event>
12    1  0.8633375E-002  0.2544608E+03  0.7818608E-02  0.1111285E+00
         21   -1    0    0  503  502  0.00000000000E+00  0.00000000000E+00  0.27136786055E+03  0.27136786055E+03  0.00000000000E+00 0. -1.
         21   -1    0    0  501  503 -0.00000000000E+00 -0.00000000000E+00 -0.23557739193E+03  0.23557739193E+03  0.00000000000E+00 0.  1.
          6    2    1    2  501    0  0.14472241979E+03  0.10838714985E+03 -0.25306802540E+01  0.25447334689E+03  0.17904727558E+03 0.  0.
         24    2    3    3    0    0  0.95903349838E+02 -0.10896123864E+02 -0.81225483651E+01  0.12537973756E+03  0.79611084494E+02 0.  0.
         -6    2    1    2    0  502 -0.14472241979E+03 -0.10838714985E+03  0.38321148880E+02  0.25247190559E+03  0.17199185916E+03 0.  0.
        -24    2    5    5    0    0 -0.67042641144E+02 -0.25127454875E+02  0.77963795612E+02  0.13180727010E+03  0.78541061265E+02 0.  0.
          5    1    3    3  501    0  0.48819069951E+02  0.11928327372E+03  0.55918681112E+01  0.12909360933E+03  0.47000000000E+01 0. -1.
        -13    1    4    4    0    0  0.72290567031E+02 -0.39425666197E+02  0.12031765234E+02  0.83217021164E+02  0.00000000000E+00 0.  1.
         14    1    4    4    0    0  0.23612782807E+02  0.28529542333E+02 -0.20154313599E+02  0.42162716400E+02  0.00000000000E+00 0. -1.
         -5    1    5    5    0  502 -0.77679778646E+02 -0.83259694980E+02 -0.39642646733E+02  0.12066463549E+03  0.47000000000E+01 0.  1.
         11    1    6    6    0    0 -0.29090651374E+02 -0.51368456274E+02  0.53061402154E+02  0.79375668160E+02  0.00000000000E+00 0. -1.
        -12    1    6    6    0    0 -0.37951989769E+02  0.26241001399E+02  0.24902393458E+02  0.52431601938E+02  0.00000000000E+00 0.  1.
</event>
<event>
12    1  0.8633375E-002  0.2437666E+03  0.7818608E-02  0.1117446E+00
         21   -1    0    0  503  502  0.00000000000E+00  0.00000000000E+00  0.38442361750E+03  0.38442361750E+03  0.00000000000E+00 0.  1.
         21   -1    0    0  501  503 -0.00000000000E+00 -0.00000000000E+00 -0.16908965344E+03  0.16908965344E+03  0.00000000000E+00 0.  1.
          6    2    1    2  501    0  0.32616673847E+02 -0.16869686892E+03  0.19039272639E+03  0.30930815411E+03  0.17291519001E+03 0.  0.
         24    2    3    3    0    0 -0.41770614853E+02 -0.50094529800E+02  0.71342945020E+02  0.12547419639E+03  0.79998199818E+02 0.  0.
         -6    2    1    2    0  502 -0.32616673847E+02  0.16869686892E+03  0.24941237666E+02  0.24420511684E+03  0.17173116420E+03 0.  0.
        -24    2    5    5    0    0 -0.66192119942E+02  0.12770887714E+03  0.66534103842E+02  0.17668191662E+03  0.78094549397E+02 0.  0.
          5    1    3    3  501    0  0.74387288700E+02 -0.11860233912E+03  0.11904978137E+03  0.18383395772E+03  0.47000000000E+01 0. -1.
        -11    1    4    4    0    0 -0.31118139390E+02 -0.72180078670E+02  0.52046365043E+02  0.94271557058E+02  0.00000000000E+00 0.  1.
         12    1    4    4    0    0 -0.10652475462E+02  0.22085548870E+02  0.19296579977E+02  0.31202639330E+02  0.00000000000E+00 0. -1.
         -5    1    5    5    0  502  0.33575446094E+02  0.40987991783E+02 -0.41592866176E+02  0.67523200217E+02  0.47000000000E+01 0.  1.
         13    1    6    6    0    0 -0.17257107832E+02  0.74391072323E+02  0.70866842992E+02  0.10418228663E+03  0.00000000000E+00 0. -1.
        -14    1    6    6    0    0 -0.48935012110E+02  0.53317804816E+02 -0.43327391502E+01  0.72499629993E+02  0.00000000000E+00 0.  1.
</event>
<event>
12    1  0.8633375E-002  0.1786947E+03  0.7818608E-02  0.1170659E+00
         21   -1    0    0  503  502  0.00000000000E+00  0.00000000000E+00  0.20007912460E+03  0.20007912460E+03  0.00000000000E+00 0.  1.
         21   -1    0    0  501  503 -0.00000000000E+00 -0.00000000000E+00 -0.40316331825E+03  0.40316331825E+03  0.00000000000E+00 0.  1.
          6    2    1    2  501    0  0.20681871915E+02 -0.43763408139E+02 -0.33936924396E+03  0.38354047176E+03  0.17201405179E+03 0.  0.
         24    2    3    3    0    0  0.21944968328E+02 -0.11833447560E+02 -0.34089993890E+03  0.35120549345E+03  0.80690260721E+02 0.  0.
         -6    2    1    2    0  502 -0.20681871915E+02  0.43763408139E+02  0.13628505031E+03  0.21970197109E+03  0.16538550555E+03 0.  0.
        -24    2    5    5    0    0  0.10576805929E+02  0.40237171357E+02  0.15777313307E+03  0.18131750826E+03  0.79074512344E+02 0.  0.
          5    1    3    3  501    0 -0.12630964135E+01 -0.31929960579E+02  0.15306949385E+01  0.32334978307E+02  0.47000000000E+01 0. -1.
        -11    1    4    4    0    0  0.99384449783E+01 -0.26414580464E+02 -0.32580885399E+03  0.32702891629E+03  0.00000000000E+00 0.  1.
         12    1    4    4    0    0  0.12006523350E+02  0.14581132904E+02 -0.15091084904E+02  0.24176577163E+02  0.00000000000E+00 0. -1.
         -5    1    5    5    0  502 -0.31258677844E+02  0.35262367813E+01 -0.21488082755E+02  0.38384462832E+02  0.47000000000E+01 0.  1.
         11    1    6    6    0    0  0.15090444638E+01  0.34925581887E+02  0.14805469358E+02  0.37964133182E+02  0.00000000000E+00 0. -1.
        -12    1    6    6    0    0  0.90677614652E+01  0.53115894697E+01  0.14296766371E+03  0.14335337508E+03  0.00000000000E+00 0.  1.
</event>
<event>
12    1  0.8633375E-002  0.2022553E+03  0.7818608E-02  0.1148464E+00
         21   -1    0    0  501  502  0.00000000000E+00  0.00000000000E+00  0.49759711204E+02  0.49759711204E+02  0.00000000000E+00 0. -1.
         21   -1    0    0  502  503 -0.00000000000E+00 -0.00000000000E+00 -0.81658104553E+03  0.81658104553E+03  0.00000000000E+00 0. -1.
         -6    2    1    2    0  503  0.97288383467E+02 -0.31461605349E+02 -0.34796273733E+03  0.40247393580E+03  0.17450598917E+03 0.  0.
        -24    2    3    3    0    0  0.41404552645E+02  0.17819202840E+01 -0.59403929830E+02  0.10664221010E+03  0.78270185103E+02 0.  0.
          6    2    1    2  501    0 -0.97288383467E+02  0.31461605349E+02 -0.41885859699E+03  0.46386682094E+03  0.17109950649E+03 0.  0.
         24    2    5    5    0    0 -0.81967740271E+02 -0.43982355484E+02 -0.26733973493E+03  0.29384750175E+03  0.78883853701E+02 0.  0.
          5    1    5    5  501    0 -0.15320643196E+02  0.75443960833E+02 -0.15151886206E+03  0.17001931918E+03  0.47000000000E+01 0. -1.
        -11    1    6    6    0    0  0.13406045550E+02 -0.10688078752E+02 -0.71044920405E+02  0.73084456624E+02  0.00000000000E+00 0.  1.
         12    1    6    6    0    0 -0.95373785821E+02 -0.33294276733E+02 -0.19629481453E+03  0.22076304513E+03  0.00000000000E+00 0. -1.
         -5    1    3    3    0  503  0.55883830821E+02 -0.33243525633E+02 -0.28855880750E+03  0.29583172570E+03  0.47000000000E+01 0.  1.
         11    1    4    4    0    0 -0.93829849266E+00 -0.33450981981E+02 -0.23449767835E+02  0.40862454785E+02  0.00000000000E+00 0. -1.
        -12    1    4    4    0    0  0.42342851138E+02  0.35232902265E+02 -0.35954161995E+02  0.65779755315E+02  0.00000000000E+00 0.  1.
</event>
<event>
12    1  0.8633375E-002  0.3137235E+03  0.7818608E-02  0.1078598E+00
         21   -1    0    0  503  502  0.00000000000E+00  0.00000000000E+00  0.10654850211E+04  0.10654850211E+04  0.00000000000E+00 0. -1.
         21   -1    0    0  501  503 -0.00000000000E+00 -0.00000000000E+00 -0.11699047948E+03  0.11699047948E+03  0.00000000000E+00 0. -1.
          6    2    1    2  501    0 -0.23466144449E+03  0.11873729326E+03  0.20259880037E+03  0.37328895588E+03  0.17068635661E+03 0.  0.
         24    2    3    3    0    0 -0.21021511016E+03  0.13357332004E+03  0.12386084093E+03  0.28938730387E+03  0.79820294164E+02 0.  0.
         -6    2    1    2    0  502  0.23466144449E+03 -0.11873729326E+03  0.74589574121E+03  0.80918654466E+03  0.17104931735E+03 0.  0.
        -24    2    5    5    0    0  0.16966416493E+03 -0.11774200193E+03  0.40211894083E+03  0.45928625110E+03  0.81210282564E+02 0.  0.
          5    1    3    3  501    0 -0.24446334326E+02 -0.14836026780E+02  0.78737959443E+02  0.83901652009E+02  0.47000000000E+01 0. -1.
        -13    1    4    4    0    0 -0.40608807809E+02  0.65369286080E+02  0.52440815336E+02  0.93124958778E+02  0.00000000000E+00 0.  1.
         14    1    4    4    0    0 -0.16960630236E+03  0.68204033959E+02  0.71420025591E+02  0.19626234510E+03  0.00000000000E+00 0. -1.
         -5    1    5    5    0  502  0.64997279558E+02 -0.99529132489E+00  0.34377680038E+03  0.34990029356E+03  0.47000000000E+01 0.  1.
         11    1    6    6    0    0  0.15895992510E+03 -0.81392973439E+02  0.36446462919E+03  0.40586640640E+03  0.00000000000E+00 0. -1.
        -12    1    6    6    0    0  0.10704239833E+02 -0.36349028495E+02  0.37654311646E+02  0.53419844707E+02  0.00000000000E+00 0.  1.
</event>
<event>
12    1  0.8633375E-002  0.1745222E+03  0.7818608E-02  0.1173271E+00
         21   -1    0    0  503  502  0.00000000000E+00  0.00000000000E+00  0.79700478128E+02  0.79700478128E+02  0.00000000000E+00 0. -1.
         21   -1    0    0  501  503 -0.00000000000E+00 -0.00000000000E+00 -0.60860824376E+03  0.60860824376E+03  0.00000000000E+00 0. -1.
          6    2    1    2  501    0  0.30370925289E+02  0.42518344943E+01 -0.47450915839E+03  0.50550495251E+03  0.17156877459E+03 0.  0.
         24    2    3    3    0    0  0.21702303801E+02 -0.42108091026E+02 -0.14832718221E+03  0.17589736874E+03  0.81822063208E+02 0.  0.
         -6    2    1    2    0  502 -0.30370925289E+02 -0.42518344943E+01 -0.54398607238E+02  0.18280376938E+03  0.17180668913E+03 0.  0.
        -24    2    5    5    0    0  0.14635912160E+01 -0.65536464574E+02 -0.19476228959E+02  0.10527374403E+03  0.80037912267E+02 0.  0.
          5    1    3    3  501    0  0.86686214885E+01  0.46359925520E+02 -0.32618197618E+03  0.32960758377E+03  0.47000000000E+01 0. -1.
        -11    1    4    4    0    0  0.25935480371E+02  0.71220118919E+01 -0.11034163170E+03  0.11357221439E+03  0.00000000000E+00 0.  1.
         12    1    4    4    0    0 -0.42331765700E+01 -0.49230102918E+02 -0.37985550510E+02  0.62325154349E+02  0.00000000000E+00 0. -1.
         -5    1    5    5    0  502 -0.31834516505E+02  0.61284630080E+02 -0.34922378278E+02  0.77530025343E+02  0.47000000000E+01 0.  1.
         11    1    6    6    0    0 -0.38200437148E+02 -0.20950807408E+02 -0.11559268861E+02  0.45075785362E+02  0.00000000000E+00 0. -1.
        -12    1    6    6    0    0  0.39664028364E+02 -0.44585657165E+02 -0.79169600978E+01  0.60197958671E+02  0.00000000000E+00 0.  1.
</event>
<event>
12    1  0.8633375E-002  0.2213091E+03  0.7818608E-02  0.1132960E+00
         21   -1    0    0  501  502  0.00000000000E+00  0.00000000000E+00  0.21663891798E+03  0.21663891798E+03  0.00000000000E+00 0. -1.
         21   -1    0    0  502  503 -0.00000000000E+00 -0.00000000000E+00 -0.33296876779E+03  0.33296876779E+03  0.00000000000E+00 0. -1.
         -6    2    1    2    0  503  0.13424030560E+03 -0.29250834935E+02 -0.21408350713E+03  0.30791145170E+03  0.17349825092E+03 0.  0.
        -24    2    3    3    0    0  0.11506405392E+03 -0.82176027164E+02 -0.17860464951E+03  0.24120580022E+03  0.79296792439E+02 0.  0.
          6    2    1    2  501    0 -0.13424030560E+03  0.29250834935E+02  0.97753657323E+02  0.24169623407E+03  0.17316241235E+03 0.  0.
         24    2    5    5    0    0 -0.13468047636E+02  0.23282371665E+02  0.38692064399E-01  0.86158890376E+02  0.81852890946E+02 0.  0.
          5    1    5    5  501    0 -0.12077225797E+03  0.59684632708E+01  0.97714965259E+02  0.15553734369E+03  0.47000000000E+01 0. -1.
        -11    1    6    6    0    0 -0.35731204329E+02 -0.47730969094E+01 -0.23744413463E+02  0.43165942450E+02  0.00000000000E+00 0.  1.
         12    1    6    6    0    0  0.22263156693E+02  0.28055468574E+02  0.23783105527E+02  0.42992947926E+02  0.00000000000E+00 0. -1.
         -5    1    3    3    0  503  0.19176251686E+02  0.52925192228E+02 -0.35478857628E+02  0.66705651482E+02  0.47000000000E+01 0.  1.
         11    1    4    4    0    0  0.10891238395E+03 -0.34848912207E+02 -0.12830847005E+03  0.17187035098E+03  0.00000000000E+00 0. -1.
        -12    1    4    4    0    0  0.61516699661E+01 -0.47327114957E+02 -0.50296179458E+02  0.69335449242E+02  0.00000000000E+00 0.  1.
</event>
<event>
12    1  0.8633375E-002  0.1948659E+03  0.7818608E-02  0.1154439E+00
         21   -1    0    0  503  502  0.00000000000E+00  0.00000000000E+00  0.51893417491E+03  0.51893417491E+03  0.00000000000E+00 0. -1.
         21   -1    0    0  501  503 -0.00000000000E+00 -0.00000000000E+00 -0.87426289563E+02  0.87426289563E+02  0.00000000000E+00 0. -1.
          6    2    1    2  501    0 -0.66287845290E+02  0.60378017388E+02  0.91819472809E+02  0.21541476030E+03  0.17301190697E+03 0.  0.
         24    2    3    3    0    0 -0.98694720097E+02  0.72372811523E+02  0.36978661757E+02  0.15042487510E+03  0.79257491773E+02 0.  0.
         -6    2    1    2    0  502  0.66287845290E+02 -0.60378017388E+02  0.33968841254E+03  0.39094570417E+03  0.17149560513E+03 0.  0.
        -24    2    5    5    0    0 -0.13169452676E+02  0.70143475910E+01  0.20706755842E+03  0.22222826582E+03  0.79282992011E+02 0.  0.
          5    1    3    3  501    0  0.32406874807E+02 -0.11994794134E+02  0.54840811051E+02  0.64989885197E+02  0.47000000000E+01 0. -1.
        -13    1    4    4    0    0 -0.54211365025E+02  0.29871371987E+02 -0.21518697568E+02  0.65530338831E+02  0.00000000000E+00 0.  1.
         14    1    4    4    0    0 -0.44483355072E+02  0.42501439536E+02  0.58497359326E+02  0.84894536274E+02  0.00000000000E+00 0. -1.
         -5    1    5    5    0  502  0.79457297966E+02 -0.67392364979E+02  0.13262085412E+03  0.16871743835E+03  0.47000000000E+01 0.  1.
         13    1    6    6    0    0  0.84629875134E+01 -0.30076222498E+02  0.46523273903E+02  0.56041202093E+02  0.00000000000E+00 0. -1.
        -14    1    6    6    0    0 -0.21632440190E+02  0.37090570089E+02  0.16054428451E+03  0.16618706372E+03  0.00000000000E+00 0.  1.
</event>
<event>
12    1  0.8633375E-002  0.2195421E+03  0.7818608E-02  0.1134385E+00
         21   -1    0    0  503  502  0.00000000000E+00  0.00000000000E+00  0.48794528771E+02  0.48794528771E+02  0.00000000000E+00 0.  1.
         21   -1    0    0  501  503 -0.00000000000E+00 -0.00000000000E+00 -0.11029351640E+04  0.11029351640E+04  0.00000000000E+00 0.  1.
          6    2    1    2  501    0 -0.82325249812E+02 -0.10887109113E+03 -0.71714169939E+03  0.74999396530E+03  0.17195455720E+03 0.  0.
         24    2    3    3    0    0 -0.61119421727E+02 -0.13307172546E+02 -0.52208480779E+03  0.53170188885E+03  0.78877674457E+02 0.  0.
         -6    2    1    2    0  502  0.82325249812E+02  0.10887109113E+03 -0.33699893584E+03  0.40173572748E+03  0.17085944730E+03 0.  0.
        -24    2    5    5    0    0  0.46998161579E+01  0.37436337428E+02 -0.24989414873E+03  0.26484903738E+03  0.79210854058E+02 0.  0.
          5    1    3    3  501    0 -0.21205828085E+02 -0.95563918587E+02 -0.19505689160E+03  0.21829207645E+03  0.47000000000E+01 0. -1.
        -13    1    4    4    0    0 -0.58588854712E+02 -0.37723303631E+02 -0.28696886705E+03  0.29530802933E+03  0.00000000000E+00 0.  1.
         14    1    4    4    0    0 -0.25305670148E+01  0.24416131085E+02 -0.23511594074E+03  0.23639385951E+03  0.00000000000E+00 0. -1.
         -5    1    5    5    0  502  0.77625433654E+02  0.71434753705E+02 -0.87104787113E+02  0.13688669009E+03  0.47000000000E+01 0.  1.
         13    1    6    6    0    0 -0.36585994477E+02  0.24400482398E+02 -0.11227435073E+03  0.12057963495E+03  0.00000000000E+00 0. -1.
        -14    1    6    6    0    0  0.41285810635E+02  0.13035855030E+02 -0.13761979800E+03  0.14426940243E+03  0.00000000000E+00 0.  1.
</event>
<event>
12    1  0.8633375E-002  0.1786403E+03  0.7818608E-02  0.1169656E+00
         21   -1    0    0  503  502  0.00000000000E+00  0.00000000000E+00  0.72389913276E+03  0.72389913276E+03  0.00000000000E+00 0. -1.
         21   -1    0    0  501  503 -0.00000000000E+00 -0.00000000000E+00 -0.47317971273E+02  0.47317971273E+02  0.00000000000E+00 0. -1.
          6    2    1    2  501    0  0.27064953657E+02  0.44265124631E+02  0.23141941241E+03  0.29234789568E+03  0.17093985695E+03 0.  0.
         24    2    3    3    0    0  0.49384721678E+02 -0.28327074213E+02  0.14344169087E+03  0.17602950133E+03  0.84673447966E+02 0.  0.
         -6    2    1    2    0  502 -0.27064953657E+02 -0.44265124631E+02  0.44516174908E+03  0.47886920836E+03  0.16868557404E+03 0.  0.
        -24    2    5    5    0    0 -0.34387959773E+02  0.29880678607E+01  0.10701482256E+03  0.13732576378E+03  0.78833576741E+02 0.  0.
          5    1    3    3  501    0 -0.22319768021E+02  0.72592198844E+02  0.87977721536E+02  0.11631839435E+03  0.47000000000E+01 0. -1.
        -13    1    4    4    0    0 -0.18919050706E+02 -0.25401690687E+02  0.62590730727E+02  0.70148242617E+02  0.00000000000E+00 0.  1.
         14    1    4    4    0    0  0.68303772384E+02 -0.29253835261E+01  0.80850960143E+02  0.10588125871E+03  0.00000000000E+00 0. -1.
         -5    1    5    5    0  502  0.73230061162E+01 -0.47253192492E+02  0.33814692652E+03  0.34154344458E+03  0.47000000000E+01 0.  1.
         13    1    6    6    0    0 -0.48476107128E+02 -0.25126964800E+02  0.68945008967E+02  0.87947209073E+02  0.00000000000E+00 0. -1.
        -14    1    6    6    0    0  0.14088147354E+02  0.28115032661E+02  0.38069813595E+02  0.49378554703E+02  0.00000000000E+00 0.  1.
</event>
<event>
12    1  0.8633375E-002  0.1760092E+03  0.7818608E-02  0.1172879E+00
         21   -1    0    0  503  502  0.00000000000E+00  0.00000000000E+00  0.87311845000E+03  0.87311845000E+03  0.00000000000E+00 0. -1.
         21   -1    0    0  501  503 -0.00000000000E+00 -0.00000000000E+00 -0.52384963172E+02  0.52384963172E+02  0.00000000000E+00 0. -1.
          6    2    1    2  501    0 -0.68124842585E+01 -0.74968594989E+01  0.13690837644E+03  0.21939010453E+03  0.17113007211E+03 0.  0.
         24    2    3    3    0    0 -0.17886541883E+02  0.11857693767E+02 -0.88902644743E+01  0.71821248810E+02  0.67961177861E+02 0.  0.
         -6    2    1    2    0  502  0.68124842585E+01  0.74968594989E+01  0.68382511038E+03  0.70611330864E+03  0.17571741578E+03 0.  0.
        -24    2    5    5    0    0 -0.37500440416E+02 -0.51129498336E+02  0.40112383580E+03  0.41397843264E+03  0.80357341999E+02 0.  0.
          5    1    3    3  501    0  0.11074057624E+02 -0.19354553266E+02  0.14579864092E+03  0.14756885572E+03  0.47000000000E+01 0. -1.
        -11    1    4    4    0    0  0.13129529649E+02  0.20286462230E+02  0.17824653940E+02  0.30027377286E+02  0.00000000000E+00 0.  1.
         12    1    4    4    0    0 -0.31016071532E+02 -0.84287684630E+01 -0.26714918414E+02  0.41793871524E+02  0.00000000000E+00 0. -1.
         -5    1    5    5    0  502  0.44312924675E+02  0.58626357834E+02  0.28270127458E+03  0.29213487600E+03  0.47000000000E+01 0.  1.
         11    1    6    6    0    0 -0.41370827590E+02 -0.23867360362E+02  0.36716652580E+03  0.37025998154E+03  0.00000000000E+00 0. -1.
        -12    1    6    6    0    0  0.38703871742E+01 -0.27262137974E+02  0.33957310004E+02  0.43718451099E+02  0.00000000000E+00 0.  1.
</event>
<event>
12    1  0.8633375E-002  0.2810698E+03  0.7818608E-02  0.1095212E+00
         21   -1    0    0  501  502  0.00000000000E+00  0.00000000000E+00  0.19849995492E+03  0.19849995492E+03  0.00000000000E+00 0.  1.
         21   -1    0    0  502  503 -0.00000000000E+00 -0.00000000000E+00 -0.49203415383E+03  0.49203415383E+03  0.00000000000E+00 0. -1.
         -6    2    1    2    0  503  0.15621529788E+03  0.15630020626E+03 -0.29843663288E+03  0.40942153645E+03  0.17241982743E+03 0.  0.
        -24    2    3    3    0    0  0.11064823865E+03  0.12278804982E+03 -0.10872390357E+03  0.21140024673E+03  0.74493215913E+02 0.  0.
          6    2    1    2  501    0 -0.15621529788E+03 -0.15630020626E+03  0.49024339627E+01  0.28111257230E+03  0.17368727840E+03 0.  0.
         24    2    5    5    0    0 -0.15295424628E+03 -0.97490865356E+02  0.52697237214E+02  0.20511516279E+03  0.79973501325E+02 0.  0.
          5    1    5    5  501    0 -0.32610516062E+01 -0.58809340904E+02 -0.47794803251E+02  0.75997409515E+02  0.47000000000E+01 0. -1.
        -11    1    6    6    0    0 -0.46673788597E+02 -0.68165673868E+02  0.46240879538E+02  0.94674286775E+02  0.00000000000E+00 0.  1.
         12    1    6    6    0    0 -0.10628045768E+03 -0.29325191488E+02  0.64563576765E+01  0.11044087601E+03  0.00000000000E+00 0. -1.
         -5    1    3    3    0  503  0.45567059235E+02  0.33512156438E+02 -0.18971272931E+03  0.19802128971E+03  0.47000000000E+01 0.  1.
         13    1    4    4    0    0  0.26504732774E+02  0.84517663899E+02 -0.47286987520E+02  0.10040814488E+03  0.00000000000E+00 0. -1.
        -14    1    4    4    0    0  0.84143505874E+02  0.38270385922E+02 -0.61436916046E+02  0.11099210185E+03  0.00000000000E+00 0.  1.
</event>
<event>
12    1  0.8633375E-002  0.3195915E+03  0.7818608E-02  0.1075917E+00
         21   -1    0    0  501  502  0.00000000000E+00  0.00000000000E+00  0.75352002010E+03  0.75352002010E+03  0.00000000000E+00 0.  1.
         21   -1    0    0  502  503 -0.00000000000E+00 -0.00000000000E+00 -0.20698357221E+03  0.20698357221E+03  0.00000000000E+00 0. -1.
         -6    2    1    2    0  503 -0.26291487270E+03  0.58634637748E+02 -0.96387645329E+01  0.31904462724E+03  0.17068777741E+03 0.  0.
        -24    2    3    3    0    0 -0.21257113135E+03  0.12652975248E+02  0.45508483928E+02  0.23122598120E+03  0.77767915018E+02 0.  0.
          6    2    1    2  501    0  0.26291487270E+03 -0.58634637748E+02  0.55617521243E+03  0.64145896507E+03  0.17197815534E+03 0.  0.
         24    2    5    5    0    0  0.22073302604E+03 -0.10366586015E+03  0.44725415709E+03  0.51618723851E+03  0.83326495313E+02 0.  0.
          5    1    5    5  501    0  0.42181846656E+02  0.45031222400E+02  0.10892105534E+03  0.12527172656E+03  0.47000000000E+01 0. -1.
        -11    1    6    6    0    0  0.19775252073E+03 -0.58697492350E+02  0.37574353917E+03  0.42864281435E+03  0.00000000000E+00 0.  1.
         12    1    6    6    0    0  0.22980505313E+02 -0.44968367799E+02  0.71510617920E+02  0.87544424164E+02  0.00000000000E+00 0. -1.
         -5    1    3    3    0  503 -0.50343741348E+02  0.45981662500E+02 -0.55147248461E+02  0.87818646039E+02  0.47000000000E+01 0.  1.
         13    1    4    4    0    0 -0.16883486068E+03  0.36774876087E+02  0.16780715300E+02  0.17360643449E+03  0.00000000000E+00 0. -1.
        -14    1    4    4    0    0 -0.43736270673E+02 -0.24121900838E+02  0.28727768628E+02  0.57619546707E+02  0.00000000000E+00 0.  1.
</event>
<event>
12    1  0.8633375E-002  0.2679747E+03  0.7818608E-02  0.1102466E+00
         21   -1    0    0  501  502  0.00000000000E+00  0.00000000000E+00  0.15030492832E+03  0.15030492832E+03  0.00000000000E+00 0. -1.
         21   -1    0    0  502  503 -0.00000000000E+00 -0.00000000000E+00 -0.49104073210E+03  0.49104073210E+03  0.00000000000E+00 0.  1.
         -6    2    1    2    0  503 -0.58024371090E+02  0.19675913529E+03 -0.22366229289E+03  0.34904909424E+03  0.17242234186E+03 0.  0.
        -24    2    3    3    0    0  0.27061489195E+02  0.11314679423E+03 -0.78020422510E+02  0.16072949461E+03  0.78817909564E+02 0.  0.
          6    2    1    2  501    0  0.58024371090E+02 -0.19675913529E+03 -0.11707351090E+03  0.29229656618E+03  0.17219201690E+03 0.  0.
         24    2    5    5    0    0  0.95490977610E+02 -0.19516692242E+03 -0.96223056874E+02  0.24913277141E+03  0.74830519856E+02 0.  0.
          5    1    5    5  501    0 -0.37466606520E+02 -0.15922128722E+01 -0.20850454026E+02  0.43163794771E+02  0.47000000000E+01 0. -1.
        -13    1    6    6    0    0  0.19751681237E+02  0.17322283288E+00 -0.36691656166E+01  0.20090338329E+02  0.00000000000E+00 0.  1.
         14    1    6    6    0    0  0.75739296373E+02 -0.19534014525E+03 -0.92553891257E+02  0.22904243308E+03  0.00000000000E+00 0. -1.
         -5    1    3    3    0  503 -0.85085860285E+02  0.83612341067E+02 -0.14564187038E+03  0.18831959963E+03  0.47000000000E+01 0.  1.
         13    1    4    4    0    0 -0.86375974731E+01  0.13076662849E+02  0.13357883461E+02  0.20592237662E+02  0.00000000000E+00 0. -1.
        -14    1    4    4    0    0  0.35699086668E+02  0.10007013138E+03 -0.91378305972E+02  0.14013725695E+03  0.00000000000E+00 0.  1.
</event>
<event>
12    1  0.8633375E-002  0.2050135E+03  0.7818608E-02  0.1145851E+00
         21   -1    0    0  503  502  0.00000000000E+00  0.00000000000E+00  0.57126757843E+03  0.57126757843E+03  0.00000000000E+00 0.  1.
         21   -1    0    0  501  503 -0.00000000000E+00 -0.00000000000E+00 -0.18907478863E+03  0.18907478863E+03  0.00000000000E+00 0. -1.
          6    2    1    2  501    0 -0.63700000526E+02  0.89964598945E+02  0.48860561687E+03  0.52935701181E+03  0.17126610286E+03 0.  0.
         24    2    3    3    0    0 -0.29720353834E+02  0.99421650106E+02  0.47211143131E+03  0.49013711427E+03  0.81100081818E+02 0.  0.
         -6    2    1    2    0  502  0.63700000526E+02 -0.89964598945E+02 -0.10641282707E+03  0.23098535525E+03  0.17285608304E+03 0.  0.
        -24    2    5    5    0    0 -0.18551306093E+02 -0.47747334708E+02 -0.99888857082E+02  0.13818327001E+03  0.80578368137E+02 0.  0.
          5    1    3    3  501    0 -0.33979646692E+02 -0.94570511602E+01  0.16494185561E+02  0.39219897543E+02  0.47000000000E+01 0. -1.
        -11    1    4    4    0    0 -0.44374468817E+02  0.63453801423E+02  0.18706464229E+03  0.20245656026E+03  0.00000000000E+00 0.  1.
         12    1    4    4    0    0  0.14654114983E+02  0.35967848683E+02  0.28504678902E+03  0.28768055401E+03  0.00000000000E+00 0. -1.
         -5    1    5    5    0  502  0.82251306619E+02 -0.42217264237E+02 -0.65239699909E+01  0.92802085239E+02  0.47000000000E+01 0.  1.
         11    1    6    6    0    0  0.68990839313E+01 -0.64479871935E+02 -0.71811700405E+02  0.96758315193E+02  0.00000000000E+00 0. -1.
        -12    1    6    6    0    0 -0.25450390025E+02  0.16732537227E+02 -0.28077156677E+02  0.41424954816E+02  0.00000000000E+00 0.  1.
</event>
<event>
12    1  0.8633375E-002  0.1901596E+03  0.7818608E-02  0.1158473E+00
         21   -1    0    0  501  502  0.00000000000E+00  0.00000000000E+00  0.31501215880E+03  0.31501215880E+03  0.00000000000E+00 0.  1.
         21   -1    0    0  502  503 -0.00000000000E+00 -0.00000000000E+00 -0.12929840340E+03  0.12929840340E+03  0.00000000000E+00 0.  1.
         -6    2    1    2    0  503  0.30505300053E+02 -0.73319039643E+02  0.17536315973E+02  0.19096644354E+03  0.17278427381E+03 0.  0.
        -24    2    3    3    0    0 -0.86394246874E+01 -0.89293488103E+02  0.59296083624E+02  0.13135553286E+03  0.75433969817E+02 0.  0.
          6    2    1    2  501    0 -0.30505300053E+02  0.73319039643E+02  0.16817743943E+03  0.25334411866E+03  0.17202713862E+03 0.  0.
         24    2    5    5    0    0  0.86789984326E+01  0.31098763990E+00  0.14713401344E+03  0.16772577552E+03  0.80050584851E+02 0.  0.
          5    1    5    5  501    0 -0.39184298486E+02  0.73008052003E+02  0.21043425992E+02  0.85618343143E+02  0.47000000000E+01 0. -1.
        -11    1    6    6    0    0  0.22949337678E+02  0.12250725869E+02  0.78053111171E+01  0.27160177941E+02  0.00000000000E+00 0.  1.
         12    1    6    6    0    0 -0.14270339245E+02 -0.11939738229E+02  0.13932870232E+03  0.14056559758E+03  0.00000000000E+00 0. -1.
         -5    1    3    3    0  503  0.39144724741E+02  0.15974448460E+02 -0.41759767651E+02  0.59610910687E+02  0.47000000000E+01 0.  1.
         13    1    4    4    0    0 -0.55437438664E+01 -0.59923749869E+01  0.46270808775E+02  0.46985416873E+02  0.00000000000E+00 0. -1.
        -14    1    4    4    0    0 -0.30956808210E+01 -0.83301113116E+02  0.13025274849E+02  0.84370115983E+02  0.00000000000E+00 0.  1.
</event>
<event>
12    1  0.8633375E-002  0.2168567E+03  0.7818608E-02  0.1136420E+00
         21   -1    0    0  501  502  0.00000000000E+00  0.00000000000E+00  0.70608351679E+02  0.70608351679E+02  0.00000000000E+00 0.  1.
         21   -1    0    0  502  503 -0.00000000000E+00 -0.00000000000E+00 -0.66713945703E+03  0.66713945703E+03  0.00000000000E+00 0.  1.
         -6    2    1    2    0  503  0.91771498822E+02  0.94960479198E+02 -0.32578089195E+03  0.39085807342E+03  0.17087230141E+03 0.  0.
        -24    2    3    3    0    0  0.10454140959E+03  0.10636276713E+03 -0.19431126282E+03  0.25819520681E+03  0.81645290199E+02 0.  0.
          6    2    1    2  501    0 -0.91771498822E+02 -0.94960479198E+02 -0.27075021340E+03  0.34688973529E+03  0.17200962121E+03 0.  0.
         24    2    5    5    0    0 -0.30161608144E+02 -0.87535018206E+02 -0.80605688473E+02  0.14681988134E+03  0.80540042993E+02 0.  0.
          5    1    5    5  501    0 -0.61609890678E+02 -0.74254609923E+01 -0.19014452492E+03  0.20006985395E+03  0.47000000000E+01 0. -1.
        -13    1    6    6    0    0 -0.48443938994E+02 -0.37188507777E+02 -0.16459798117E+02  0.63251286864E+02  0.00000000000E+00 0.  1.
         14    1    6    6    0    0  0.18282330850E+02 -0.50346510429E+02 -0.64145890356E+02  0.83568594479E+02  0.00000000000E+00 0. -1.
         -5    1    3    3    0  503 -0.12769910767E+02 -0.11402287932E+02 -0.13146962914E+03  0.13266286661E+03  0.47000000000E+01 0.  1.
         11    1    4    4    0    0  0.38861000404E+02 -0.63375200157E+01 -0.50548232425E+02  0.64073905091E+02  0.00000000000E+00 0. -1.
        -12    1    4    4    0    0  0.65680409185E+02  0.11270028715E+03 -0.14376303039E+03  0.19412130172E+03  0.00000000000E+00 0.  1.
</event>
<event>
12    1  0.8633375E-002  0.1980779E+03  0.7818608E-02  0.1152065E+00
         21   -1    0    0  503  502  0.00000000000E+00  0.00000000000E+00  0.50923080819E+03  0.50923080819E+03  0.00000000000E+00 0.  1.
         21   -1    0    0  501  503 -0.00000000000E+00 -0.00000000000E+00 -0.76981893519E+02  0.76981893519E+02  0.00000000000E+00 0.  1.
          6    2    1    2  501    0  0.88596193731E+01  0.97400593886E+02  0.18154894913E+03  0.26869102247E+03  0.17224829776E+03 0.  0.
         24    2    3    3    0    0 -0.26037415841E+02  0.10168536619E+03  0.19088788236E+03  0.23201040069E+03  0.79829704208E+02 0.  0.
         -6    2    1    2    0  502 -0.88596193731E+01 -0.97400593886E+02  0.25069996555E+03  0.31752167924E+03  0.16853538358E+03 0.  0.
        -24    2    5    5    0    0 -0.52178549167E+02 -0.11003668828E+03  0.21314314527E+03  0.25862511475E+03  0.81401940038E+02 0.  0.
          5    1    3    3  501    0  0.34897035214E+02 -0.42847723066E+01 -0.93389332325E+01  0.36680621783E+02  0.47000000000E+01 0. -1.
        -13    1    4    4    0    0 -0.12758705639E+02  0.11322202760E+03  0.15927131888E+03  0.19582993929E+03  0.00000000000E+00 0.  1.
         14    1    4    4    0    0 -0.13278710201E+02 -0.11536661405E+02  0.31616563478E+02  0.36180461400E+02  0.00000000000E+00 0. -1.
         -5    1    5    5    0  502  0.43318929794E+02  0.12636094391E+02  0.37556820277E+02  0.58896564495E+02  0.47000000000E+01 0.  1.
         13    1    6    6    0    0 -0.40291826479E+02 -0.59477531108E+01  0.46811252109E+02  0.62049177046E+02  0.00000000000E+00 0. -1.
        -14    1    6    6    0    0 -0.11886722688E+02 -0.10408893517E+03  0.16633189316E+03  0.19657593770E+03  0.00000000000E+00 0.  1.
</event>
<event>
12    1  0.8633375E-002  0.2027419E+03  0.7818608E-02  0.1147490E+00
         21   -1    0    0  501  502  0.00000000000E+00  0.00000000000E+00  0.27351497944E+04  0.27351497944E+04  0.00000000000E+00 0. -1.
         21   -1    0    0  502  503 -0.00000000000E+00 -0.00000000000E+00 -0.18823757673E+02  0.18823757673E+02  0.00000000000E+00 0. -1.
         -6    2    1    2    0  503  0.84261933946E+01  0.10460693812E+03  0.73912384442E+03  0.76642568523E+03  0.17346660007E+03 0.  0.
        -24    2    3    3    0    0  0.58669846637E+01  0.29849584835E+02  0.14546724774E+03  0.16805668853E+03  0.78465987351E+02 0.  0.
          6    2    1    2  501    0 -0.84261933946E+01 -0.10460693812E+03  0.19772021923E+04  0.19875478669E+04  0.17321778640E+03 0.  0.
         24    2    5    5    0    0  0.37840357965E+02 -0.16423690620E+02  0.59489830154E+03  0.60165356520E+03  0.79883621855E+02 0.  0.
          5    1    5    5  501    0 -0.46266551359E+02 -0.88183247499E+02  0.13823038908E+04  0.13858943017E+04  0.47000000000E+01 0. -1.
        -11    1    6    6    0    0  0.29355514931E+02 -0.60999744149E+01  0.58297181851E+03  0.58374232083E+03  0.00000000000E+00 0.  1.
         12    1    6    6    0    0  0.84848430339E+01 -0.10323716205E+02  0.11926483022E+02  0.17911244370E+02  0.00000000000E+00 0. -1.
         -5    1    3    3    0  503  0.25592087309E+01  0.74757353284E+02  0.59365659668E+03  0.59836899670E+03  0.47000000000E+01 0.  1.
         11    1    4    4    0    0  0.36940542580E+02  0.18187093946E+02  0.11799195778E+03  0.12496990107E+03  0.00000000000E+00 0. -1.
        -12    1    4    4    0    0 -0.31073557916E+02  0.11662490889E+02  0.27475289955E+02  0.43086787457E+02  0.00000000000E+00 0.  1.
</event>
<event>
12    1  0.8633375E-002  0.1956929E+03  0.7818608E-02  0.1153842E+00
         21   -1    0    0  501  502  0.00000000000E+00  0.00000000000E+00  0.73005534785E+03  0.73005534785E+03  0.00000000000E+00 0. -1.
         21   -1    0    0  502  503 -0.00000000000E+00 -0.00000000000E+00 -0.24901374338E+03  0.24901374338E+03  0.00000000000E+00 0.  1.
         -6    2    1    2    0  503  0.80489926335E+02 -0.44641663635E+02 -0.19521771184E+03  0.27506455960E+03  0.17052580613E+03 0.  0.
        -24    2    3    3    0    0  0.85183627442E+02  0.17682653320E+02 -0.17515981871E+03  0.20925604654E+03  0.74419112536E+02 0.  0.
          6    2    1    2  501    0 -0.80489926335E+02  0.44641663635E+02  0.67625931631E+03  0.70400453164E+03  0.17269687690E+03 0.  0.
         24    2    5    5    0    0  0.41062322097E+01 -0.95284173843E+01  0.43839940216E+03  0.44575980956E+03  0.80000750782E+02 0.  0.
          5    1    5    5  501    0 -0.84596158545E+02  0.54170081019E+02  0.23785991415E+03  0.25824472208E+03  0.47000000000E+01 0. -1.
        -13    1    6    6    0    0 -0.30811009913E+02  0.77418817283E+01  0.95291616211E+02  0.10044773360E+03  0.00000000000E+00 0.  1.
         14    1    6    6    0    0  0.34917242122E+02 -0.17270299113E+02  0.34310778595E+03  0.34531207597E+03  0.00000000000E+00 0. -1.
         -5    1    3    3    0  503 -0.46937011067E+01 -0.62324316955E+02 -0.20057893136E+02  0.65808513059E+02  0.47000000000E+01 0.  1.
         11    1    4    4    0    0  0.27040599820E+01 -0.18981157156E+02 -0.11503607893E+02  0.22359097967E+02  0.00000000000E+00 0. -1.
        -12    1    4    4    0    0  0.82479567460E+02  0.36663810476E+02 -0.16365621081E+03  0.18689694857E+03  0.00000000000E+00 0.  1.
</event>
<event>
12    1  0.8633375E-002  0.1829981E+03  0.7818608E-02  0.1167995E+00
         21   -1    0    0  501  502  0.00000000000E+00  0.00000000000E+00  0.38139191072E+03  0.38139191072E+03  0.00000000000E+00 0. -1.
         21   -1    0    0  502  503 -0.00000000000E+00 -0.00000000000E+00 -0.43321556134E+03  0.43321556134E+03  0.00000000000E+00 0. -1.
         -6    2    1    2    0  503 -0.17286871651E+02 -0.52357707636E+01 -0.39281339502E+03  0.43334819022E+03  0.18210447946E+03 0.  0.
        -24    2    3    3    0    0  0.33400566621E+02 -0.57186049743E+02 -0.16541896691E+03  0.19460488913E+03  0.78241843809E+02 0.  0.
          6    2    1    2  501    0  0.17286871651E+02  0.52357707636E+01  0.34098974440E+03  0.38125928183E+03  0.16958297370E+03 0.  0.
         24    2    5    5    0    0 -0.30587535108E+02  0.15071897631E+02  0.87975474202E+02  0.12352488533E+03  0.79724236175E+02 0.  0.
          5    1    5    5  501    0  0.47874406759E+02 -0.98361268669E+01  0.25301427020E+03  0.25773439650E+03  0.47000000000E+01 0. -1.
        -11    1    6    6    0    0 -0.31788680702E+02 -0.27219280878E+02  0.58636986783E+02  0.72039611960E+02  0.00000000000E+00 0.  1.
         12    1    6    6    0    0  0.12011455937E+01  0.42291178509E+02  0.29338487418E+02  0.51485273374E+02  0.00000000000E+00 0. -1.
         -5    1    3    3    0  503 -0.50687438272E+02  0.51950278979E+02 -0.22739442811E+03  0.23874330110E+03  0.47000000000E+01 0.  1.
         11    1    4    4    0    0 -0.22263855424E+02 -0.29726573020E+02 -0.86990807901E+02  0.94587256336E+02  0.00000000000E+00 0. -1.
        -12    1    4    4    0    0  0.55664422045E+02 -0.27459476723E+02 -0.78428159009E+02  0.10001763279E+03  0.00000000000E+00 0.  1.
</event>
<event>
12    1  0.8633375E-002  0.1782735E+03  0.7818608E-02  0.1169970E+00
         21   -1    0    0  503  502  0.00000000000E+00  0.00000000000E+00  0.33040252668E+04  0.33040252668E+04  0.00000000000E+00 0. -1.
         21   -1    0    0  501  503 -0.00000000000E+00 -0.00000000000E+00 -0.99997814839E+01  0.99997814839E+01  0.00000000000E+00 0. -1.
          6    2    1    2  501    0  0.20454551259E+02 -0.30453318435E+02  0.12901354386E+04  0.13023942969E+04  0.17445819415E+03 0.  0.
         24    2    3    3    0    0  0.69786789649E+02 -0.84218580574E+01  0.56252529965E+03  0.57276585774E+03  0.81761184819E+02 0.  0.
         -6    2    1    2    0  502 -0.20454551259E+02  0.30453318435E+02  0.20038900467E+04  0.20116307513E+04  0.17244467850E+03 0.  0.
        -24    2    5    5    0    0  0.19397946267E+02 -0.31900581376E+02  0.14627614619E+04  0.14654453747E+04  0.80405996795E+02 0.  0.
          5    1    3    3  501    0 -0.49332238389E+02 -0.22031460377E+02  0.72761013895E+03  0.72962843920E+03  0.47000000000E+01 0. -1.
        -11    1    4    4    0    0  0.73877335169E+02 -0.26220643400E+02  0.52722481948E+03  0.53302100622E+03  0.00000000000E+00 0.  1.
         12    1    4    4    0    0 -0.40905455201E+01  0.17798785343E+02  0.35300480164E+02  0.39744851517E+02  0.00000000000E+00 0. -1.
         -5    1    5    5    0  502 -0.39852497526E+02  0.62353899811E+02  0.54112858479E+03  0.54618537664E+03  0.47000000000E+01 0.  1.
         13    1    6    6    0    0  0.68618189702E+01 -0.11447009161E+02  0.13541639833E+04  0.13542297487E+04  0.00000000000E+00 0. -1.
        -14    1    6    6    0    0  0.12536127297E+02 -0.20453572215E+02  0.10859747861E+03  0.11121562599E+03  0.00000000000E+00 0.  1.
</event>
<event>
12    1  0.8633375E-002  0.1744458E+03  0.7818608E-02  0.1173403E+00
         21   -1    0    0  503  502  0.00000000000E+00  0.00000000000E+00  0.12167432758E+03  0.12167432758E+03  0.00000000000E+00 0. -1.
         21   -1    0    0  501  503 -0.00000000000E+00 -0.00000000000E+00 -0.29758195747E+03  0.29758195747E+03  0.00000000000E+00 0. -1.
          6    2    1    2  501    0  0.25028703869E+02  0.22351287861E+02 -0.17215884582E+03  0.24477021893E+03  0.17072719700E+03 0.  0.
         24    2    3    3    0    0  0.50335756280E+02  0.70990145901E+02 -0.13296759830E+03  0.17721113890E+03  0.78422677686E+02 0.  0.
         -6    2    1    2    0  502 -0.25028703869E+02 -0.22351287861E+02 -0.37487840707E+01  0.17448606612E+03  0.17118796044E+03 0.  0.
        -24    2    5    5    0    0  0.49814050436E+02  0.69556726476E+01  0.19328510427E+01  0.93772332564E+02  0.79118224440E+02 0.  0.
          5    1    3    3  501    0 -0.25307052412E+02 -0.48638858040E+02 -0.39191247520E+02  0.67559080037E+02  0.47000000000E+01 0. -1.
        -11    1    4    4    0    0  0.54421836009E+02  0.49825262613E+02 -0.13669289687E+03  0.15533589760E+03  0.00000000000E+00 0.  1.
         12    1    4    4    0    0 -0.40860797290E+01  0.21164883288E+02  0.37252985707E+01  0.21875241292E+02  0.00000000000E+00 0. -1.
         -5    1    5    5    0  502 -0.74842754305E+02 -0.29306960509E+02 -0.56816351134E+01  0.80713733551E+02  0.47000000000E+01 0.  1.
         13    1    6    6    0    0  0.15065257857E+02 -0.32494404686E+02  0.16183512739E+02  0.39303363912E+02  0.00000000000E+00 0. -1.
        -14    1    6    6    0    0  0.34748792578E+02  0.39450077334E+02 -0.14250661696E+02  0.54468968653E+02  0.00000000000E+00 0.  1.
</event>
<event>
12    1  0.8633375E-002  0.1905234E+03  0.7818608E-02  0.1157992E+00
         21   -1    0    0  503  502  0.00000000000E+00  0.00000000000E+00  0.20046461848E+03  0.20046461848E+03  0.00000000000E+00 0.  1.
         21   -1    0    0  501  503 -0.00000000000E+00 -0.00000000000E+00 -0.25923501777E+03  0.25923501777E+03  0.00000000000E+00 0.  1.
          6    2    1    2  501    0 -0.36124961077E+02 -0.73420203238E+02 -0.15560119673E+03  0.24598165587E+03  0.17204564378E+03 0.  0.
         24    2    3    3    0    0 -0.20552429735E+02 -0.48852686589E+02 -0.18281450471E+03  0.20587279478E+03  0.78444102029E+02 0.  0.
         -6    2    1    2    0  502  0.36124961077E+02  0.73420203238E+02  0.96830797430E+02  0.21371798038E+03  0.17205706248E+03 0.  0.
        -24    2    5    5    0    0  0.54180824418E+01  0.10793208407E+03  0.39317666165E+02  0.13980023838E+03  0.79495518055E+02 0.  0.
          5    1    3    3  501    0 -0.15572531343E+02 -0.24567516649E+02  0.27213307981E+02  0.40108861091E+02  0.47000000000E+01 0. -1.
        -13    1    4    4    0    0 -0.49847205101E+02 -0.20635214306E+02 -0.10103172196E+03  0.11453368399E+03  0.00000000000E+00 0.  1.
         14    1    4    4    0    0  0.29294775366E+02 -0.28217472284E+02 -0.81782782750E+02  0.91339110792E+02  0.00000000000E+00 0. -1.
         -5    1    5    5    0  502  0.30706878636E+02 -0.34511880830E+02  0.57513131265E+02  0.73917741997E+02  0.47000000000E+01 0.  1.
         11    1    6    6    0    0 -0.36511414416E+02  0.60474275885E+02  0.24431087125E+02  0.74746902575E+02  0.00000000000E+00 0. -1.
        -12    1    6    6    0    0  0.41929496858E+02  0.47457808183E+02  0.14886579040E+02  0.65053335809E+02  0.00000000000E+00 0.  1.
</event>
<event>
12    1  0.8633375E-002  0.2707757E+03  0.7818608E-02  0.1101354E+00
         21   -1    0    0  501  502  0.00000000000E+00  0.00000000000E+00  0.30090858325E+03  0.30090858325E+03  0.00000000000E+00 0.  1.
         21   -1    0    0  502  503 -0.00000000000E+00 -0.00000000000E+00 -0.25255225069E+03  0.25255225069E+03  0.00000000000E+00 0. -1.
         -6    2    1    2    0  503 -0.20312828254E+03  0.43893286013E+02 -0.36301227703E+02  0.27319821559E+03  0.17358504010E+03 0.  0.
        -24    2    3    3    0    0 -0.43225179229E+02 -0.17317604912E+02 -0.37625737356E+02  0.10191009592E+03  0.82472152748E+02 0.  0.
          6    2    1    2  501    0  0.20312828254E+03 -0.43893286013E+02  0.84657560265E+02  0.28026261835E+03  0.16790626257E+03 0.  0.
         24    2    5    5    0    0  0.45726202048E+02 -0.11328435919E+02  0.71413457086E+02  0.11891398751E+03  0.82591982416E+02 0.  0.
          5    1    5    5  501    0  0.15740208049E+03 -0.32564850094E+02  0.13244103179E+02  0.16134863084E+03  0.47000000000E+01 0. -1.
        -11    1    6    6    0    0 -0.20477260494E+02  0.34743600874E+01  0.37971490669E+02  0.43280751830E+02  0.00000000000E+00 0.  1.
         12    1    6    6    0    0  0.66203462542E+02 -0.14802796006E+02  0.33441966417E+02  0.75633235683E+02  0.00000000000E+00 0. -1.
         -5    1    3    3    0  503 -0.15990310331E+03  0.61210890925E+02  0.13245096535E+01  0.17128811968E+03  0.47000000000E+01 0.  1.
         11    1    4    4    0    0 -0.62993147695E+02  0.67082117996E+01 -0.28662488717E+02  0.69531827400E+02  0.00000000000E+00 0. -1.
        -12    1    4    4    0    0  0.19767968467E+02 -0.24025816711E+02 -0.89632486390E+01  0.32378268516E+02  0.00000000000E+00 0.  1.
</event>
<event>
12    1  0.8633375E-002  0.2317202E+03  0.7818608E-02  0.1126221E+00
         21   -1    0    0  503  502  0.00000000000E+00  0.00000000000E+00  0.94840818859E+02  0.94840818859E+02  0.00000000000E+00 0.  1.
         21   -1    0    0  501  503 -0.00000000000E+00 -0.00000000000E+00 -0.56890145715E+03  0.56890145715E+03  0.00000000000E+00 0. -1.
          6    2    1    2  501    0  0.13249446786E+03  0.83410969320E+02 -0.18346768833E+03  0.29207234794E+03  0.16472307050E+03 0.  0.
         24    2    3    3    0    0  0.77113972717E+02  0.11012952844E+03 -0.88957362263E+02  0.17922212695E+03  0.78307602858E+02 0.  0.
         -6    2    1    2    0  502 -0.13249446786E+03 -0.83410969320E+02 -0.29059294996E+03  0.37166992806E+03  0.17082768817E+03 0.  0.
        -24    2    5    5    0    0 -0.14691820947E+03 -0.10748079897E+03 -0.22424071874E+03  0.29947498636E+03  0.79147236764E+02 0.  0.
          5    1    3    3  501    0  0.55380495142E+02 -0.26718559123E+02 -0.94510326066E+02  0.11285022099E+03  0.47000000000E+01 0. -1.
        -13    1    4    4    0    0 -0.15948825122E+02  0.14430321417E+02 -0.18002644502E+02  0.28048073161E+02  0.00000000000E+00 0.  1.
         14    1    4    4    0    0  0.93062797840E+02  0.95699207027E+02 -0.70954717760E+02  0.15117405379E+03  0.00000000000E+00 0. -1.
         -5    1    5    5    0  502  0.14423741611E+02  0.24069829652E+02 -0.66352231213E+02  0.72194941709E+02  0.47000000000E+01 0.  1.
         11    1    6    6    0    0 -0.57176937351E+02 -0.69285611231E+01 -0.35858370910E+02  0.67845632788E+02  0.00000000000E+00 0. -1.
        -12    1    6    6    0    0 -0.89741272119E+02 -0.10055223785E+03 -0.18838234784E+03  0.23162935357E+03  0.00000000000E+00 0.  1.
</event>
<event>
12    1  0.8633375E-002  0.2190877E+03  0.7818608E-02  0.1135129E+00
         21   -1    0    0  501  502  0.00000000000E+00  0.00000000000E+00  0.38832855178E+03  0.38832855178E+03  0.00000000000E+00 0. -1.
         21   -1    0    0  502  503 -0.00000000000E+00 -0.00000000000E+00 -0.19436948948E+03  0.19436948948E+03  0.00000000000E+00 0. -1.
         -6    2    1    2    0  503 -0.10579051891E+03 -0.84829873172E+02 -0.81305244162E+02  0.23088863894E+03  0.16825956018E+03 0.  0.
        -24    2    3    3    0    0 -0.32714071677E+01 -0.79696188681E+02 -0.28638124419E+02  0.11542245995E+03  0.78358263737E+02 0.  0.
          6    2    1    2  501    0  0.10579051891E+03  0.84829873172E+02  0.27526430646E+03  0.35180940232E+03  0.17208043432E+03 0.  0.
         24    2    5    5    0    0 -0.75427767925E+01  0.39984240748E+02  0.82671307148E+02  0.12384072016E+03  0.82742648939E+02 0.  0.
          5    1    5    5  501    0  0.11333329570E+03  0.44845632424E+02  0.19259299931E+03  0.22796868216E+03  0.47000000000E+01 0. -1.
        -13    1    6    6    0    0 -0.15478553119E+02  0.59970800050E+02  0.81419870694E+02  0.10229994042E+03  0.00000000000E+00 0.  1.
         14    1    6    6    0    0  0.79357763269E+01 -0.19986559302E+02  0.12514364539E+01  0.21540779740E+02  0.00000000000E+00 0. -1.
         -5    1    3    3    0  503 -0.10251911174E+03 -0.51336844909E+01 -0.52667119743E+02  0.11546617899E+03  0.47000000000E+01 0.  1.
         11    1    4    4    0    0 -0.34441049573E+02 -0.24930822332E+02 -0.30589639493E+02  0.52378028238E+02  0.00000000000E+00 0. -1.
        -12    1    4    4    0    0  0.31169642405E+02 -0.54765366349E+02  0.19515150736E+01  0.63044431714E+02  0.00000000000E+00 0.  1.
</event>
<event>
12    1  0.8633375E-002  0.1916048E+03  0.7818608E-02  0.1157217E+00
         21   -1    0    0  501  502  0.00000000000E+00  0.00000000000E+00  0.13474123144E+03  0.13474123144E+03  0.00000000000E+00 0. -1.
         21   -1    0    0  502  503 -0.00000000000E+00 -0.00000000000E+00 -0.31959627431E+03  0.31959627431E+03  0.00000000000E+00 0. -1.
         -6    2    1    2    0  503 -0.80777321019E+01  0.82639936595E+02 -0.18098285072E+03  0.26356626258E+03  0.17267823731E+03 0.  0.
        -24    2    3    3    0    0 -0.71479931201E+02  0.65680871145E+02 -0.12218725993E+03  0.17532534097E+03  0.79911771953E+02 0.  0.
          6    2    1    2  501    0  0.80777321019E+01 -0.82639936595E+02 -0.38721921496E+01  0.19077124317E+03  0.17170924399E+03 0.  0.
         24    2    5    5    0    0  0.61892312684E+02 -0.58434422854E+02  0.34147058077E+02  0.12041877792E+03  0.78034738141E+02 0.  0.
          5    1    5    5  501    0 -0.53814580582E+02 -0.24205513741E+02 -0.38019250226E+02  0.70352465248E+02  0.47000000000E+01 0. -1.
        -11    1    6    6    0    0  0.69964438602E+02 -0.26540293307E+02  0.26554396039E+01  0.74876305980E+02  0.00000000000E+00 0.  1.
         12    1    6    6    0    0 -0.80721259173E+01 -0.31894129547E+02  0.31491618473E+02  0.45542471940E+02  0.00000000000E+00 0. -1.
         -5    1    3    3    0  503  0.63402199100E+02  0.16959065450E+02 -0.58795590785E+02  0.88240921615E+02  0.47000000000E+01 0.  1.
         11    1    4    4    0    0  0.17701388818E+02  0.10861258234E+02 -0.24798021404E+02  0.32345756477E+02  0.00000000000E+00 0. -1.
        -12    1    4    4    0    0 -0.89181320019E+02  0.54819612911E+02 -0.97389238525E+02  0.14297958449E+03  0.00000000000E+00 0.  1.
</event>
<event>
12    1  0.8633375E-002  0.2114719E+03  0.7818608E-02  0.1140801E+00
         21   -1    0    0  501  502  0.00000000000E+00  0.00000000000E+00  0.14331498397E+04  0.14331498397E+04  0.00000000000E+00 0.  1.
         21   -1    0    0  502  503 -0.00000000000E+00 -0.00000000000E+00 -0.37812913286E+02  0.37812913286E+02  0.00000000000E+00 0. -1.
         -6    2    1    2    0  503 -0.12127572132E+03 -0.24232454293E+02  0.10092177589E+04  0.10307260129E+04  0.16905802671E+03 0.  0.
        -24    2    3    3    0    0 -0.30822091192E+02  0.66353930308E+01  0.23481507218E+03  0.25043357133E+03  0.81146939420E+02 0.  0.
          6    2    1    2  501    0  0.12127572132E+03  0.24232454293E+02  0.38611916750E+03  0.44023674006E+03  0.17153822713E+03 0.  0.
         24    2    5    5    0    0  0.64565008075E+02  0.79418349964E+02  0.20913551334E+03  0.24631177540E+03  0.80348697458E+02 0.  0.
          5    1    5    5  501    0  0.56710713240E+02 -0.55185895671E+02  0.17698365416E+03  0.19392496466E+03  0.47000000000E+01 0. -1.
        -13    1    6    6    0    0  0.91422417713E+00 -0.15269076985E+02  0.34118374906E+02  0.37390426904E+02  0.00000000000E+00 0.  1.
         14    1    6    6    0    0  0.63650783898E+02  0.94687426949E+02  0.17501713843E+03  0.20892134850E+03  0.00000000000E+00 0. -1.
         -5    1    3    3    0  503 -0.90453630124E+02 -0.30867847324E+02  0.77440268670E+03  0.78029244157E+03  0.47000000000E+01 0.  1.
         11    1    4    4    0    0 -0.48736395838E+02 -0.19443438005E+02  0.11319282178E+03  0.12476336987E+03  0.00000000000E+00 0. -1.
        -12    1    4    4    0    0  0.17914304646E+02  0.26078831036E+02  0.12162225041E+03  0.12567020145E+03  0.00000000000E+00 0.  1.
</event>
<event>
12    1  0.8633375E-002  0.2421259E+03  0.7818608E-02  0.1118467E+00
         21   -1    0    0  503  502  0.00000000000E+00  0.00000000000E+00  0.25423346102E+03  0.25423346102E+03  0.00000000000E+00 0. -1.
         21   -1    0    0  501  503 -0.00000000000E+00 -0.00000000000E+00 -0.23360731737E+03  0.23360731737E+03  0.00000000000E+00 0.  1.
          6    2    1    2  501    0  0.55856665593E+02 -0.16127598414E+03 -0.19478141038E+02  0.24290815552E+03  0.17174127020E+03 0.  0.
         24    2    3    3    0    0  0.18189975167E+02 -0.65348617226E+01  0.10095874987E+02  0.80857833224E+02  0.77861947622E+02 0.  0.
         -6    2    1    2    0  502 -0.55856665593E+02  0.16127598414E+03  0.40104284690E+02  0.24493262286E+03  0.17103720630E+03 0.  0.
        -24    2    5    5    0    0 -0.85041007821E+02  0.59709672762E+02 -0.31905501585E+01  0.13063487939E+03  0.79107989930E+02 0.  0.
          5    1    3    3  501    0  0.37666690425E+02 -0.15474112241E+03 -0.29574016025E+02  0.16205032230E+03  0.47000000000E+01 0. -1.
        -13    1    4    4    0    0  0.33390232056E+02 -0.28052938826E+02 -0.13331632052E+02  0.45602712493E+02  0.00000000000E+00 0.  1.
         14    1    4    4    0    0 -0.15200256888E+02  0.21518077104E+02  0.23427507039E+02  0.35255120731E+02  0.00000000000E+00 0. -1.
         -5    1    5    5    0  502  0.29184342228E+02  0.10156631137E+03  0.43294834849E+02  0.11429774347E+03  0.47000000000E+01 0.  1.
         11    1    6    6    0    0 -0.17023181854E+02 -0.19899289030E+01  0.28695159482E+02  0.33423954213E+02  0.00000000000E+00 0. -1.
        -12    1    6    6    0    0 -0.68017825967E+02  0.61699601665E+02 -0.31885709641E+02  0.97210925179E+02  0.00000000000E+00 0.  1.
</event>
<event>
12    1  0.8633375E-002  0.2047005E+03  0.7818608E-02  0.1145899E+00
         21   -1    0    0  501  502  0.00000000000E+00  0.00000000000E+00  0.19094371645E+03  0.19094371645E+03  0.00000000000E+00 0. -1.
         21   -1    0    0  502  503 -0.00000000000E+00 -0.00000000000E+00 -0.22280139304E+03  0.22280139304E+03  0.00000000000E+00 0. -1.
         -6    2    1    2    0  503 -0.45666187857E+02  0.10029753385E+03  0.10718973075E+02  0.20498094565E+03  0.17250303094E+03 0.  0.
        -24    2    3    3    0    0 -0.68113270403E+02  0.32925587887E+02  0.50003731396E+02  0.12368990768E+03  0.84114851037E+02 0.  0.
          6    2    1    2  501    0  0.45666187857E+02 -0.10029753385E+03 -0.42576649664E+02  0.20876416384E+03  0.17211829943E+03 0.  0.
         24    2    5    5    0    0  0.50674859261E+02 -0.13160073780E+03 -0.60198750862E+02  0.17219087007E+03  0.78352476520E+02 0.  0.
          5    1    5    5  501    0 -0.50086714037E+01  0.31303203956E+02  0.17622101198E+02  0.36573293778E+02  0.47000000000E+01 0. -1.
        -11    1    6    6    0    0 -0.45519269264E+00  0.31322624673E+01  0.11005060957E+02  0.11451184883E+02  0.00000000000E+00 0.  1.
         12    1    6    6    0    0  0.51130051953E+02 -0.13473300027E+03 -0.71203811819E+02  0.16073968518E+03  0.00000000000E+00 0. -1.
         -5    1    3    3    0  503  0.22447082546E+02  0.67371945962E+02 -0.39284758321E+02  0.81291037968E+02  0.47000000000E+01 0.  1.
         13    1    4    4    0    0 -0.71816795508E+02  0.34547666437E+02  0.64566121196E+01  0.79955495205E+02  0.00000000000E+00 0. -1.
        -14    1    4    4    0    0  0.37035251057E+01 -0.16220785502E+01  0.43547119277E+02  0.43734412473E+02  0.00000000000E+00 0.  1.
</event>
<event>
12    1  0.8633375E-002  0.2307945E+03  0.7818608E-02  0.1126829E+00
         21   -1    0    0  501  502  0.00000000000E+00  0.00000000000E+00  0.24598481044E+03  0.24598481044E+03  0.00000000000E+00 0. -1.
         21   -1    0    0  502  503 -0.00000000000E+00 -0.00000000000E+00 -0.61716910292E+03  0.61716910292E+03  0.00000000000E+00 0.  1.
         -6    2    1    2    0  503  0.12769307463E+03 -0.67550336669E+02 -0.53560183817E+03  0.58321130539E+03  0.17999313428E+03 0.  0.
        -24    2    3    3    0    0  0.13404022492E+03 -0.63070674895E+02 -0.54481610902E+03  0.57027505887E+03  0.80276760000E+02 0.  0.
          6    2    1    2  501    0 -0.12769307463E+03  0.67550336669E+02  0.16441754569E+03  0.27994260797E+03  0.17454559616E+03 0.  0.
         24    2    5    5    0    0 -0.10192270260E+03 -0.90148073995E+01  0.14722452199E+03  0.19721399488E+03  0.82151055030E+02 0.  0.
          5    1    5    5  501    0 -0.25770372028E+02  0.76565144069E+02  0.17193023694E+02  0.82728613094E+02  0.47000000000E+01 0. -1.
        -13    1    6    6    0    0 -0.60583050092E+02  0.83577563964E+01  0.23332428889E+02  0.65456552676E+02  0.00000000000E+00 0.  1.
         14    1    6    6    0    0 -0.41339652508E+02 -0.17372563796E+02  0.12389209310E+03  0.13175744220E+03  0.00000000000E+00 0. -1.
         -5    1    3    3    0  503 -0.63471502936E+01 -0.44796617743E+01  0.92142708525E+01  0.12936246511E+02  0.47000000000E+01 0.  1.
         11    1    4    4    0    0 -0.29338409373E+00  0.37724698387E+01  0.12380542594E+01  0.39812537296E+01  0.00000000000E+00 0. -1.
        -12    1    4    4    0    0  0.13433360902E+03 -0.66843144734E+02 -0.54605416328E+03  0.56629380514E+03  0.00000000000E+00 0.  1.
</event>
<event>
12    1  0.8633375E-002  0.2556110E+03  0.7818608E-02  0.1110114E+00
         21   -1    0    0  503  502  0.00000000000E+00  0.00000000000E+00  0.34356996345E+03  0.34356996345E+03  0.00000000000E+00 0.  1.
         21   -1    0    0  501  503 -0.00000000000E+00 -0.00000000000E+00 -0.20403659431E+03  0.20403659431E+03  0.00000000000E+00 0. -1.
          6    2    1    2  501    0  0.13374081493E+03  0.12934250367E+03 -0.50368132700E+01  0.25566065683E+03  0.17527382328E+03 0.  0.
         24    2    3    3    0    0  0.10964054173E+03  0.16304690159E+03 -0.25547441953E+02  0.20918931624E+03  0.67098120164E+02 0.  0.
         -6    2    1    2    0  502 -0.13374081493E+03 -0.12934250367E+03  0.14457018241E+03  0.29194590094E+03  0.17238266328E+03 0.  0.
        -24    2    5    5    0    0 -0.11225299028E+03 -0.21230663075E+02  0.53050564727E+02  0.14860076811E+03  0.78843839223E+02 0.  0.
          5    1    3    3  501    0  0.24100273200E+02 -0.33704397917E+02  0.20510628683E+02  0.46471340591E+02  0.47000000000E+01 0. -1.
        -13    1    4    4    0    0  0.92780538514E+02  0.96327934446E+02  0.51369823047E+01  0.13384202579E+03  0.00000000000E+00 0.  1.
         14    1    4    4    0    0  0.16860003213E+02  0.66718967144E+02 -0.30684424258E+02  0.75347290443E+02  0.00000000000E+00 0. -1.
         -5    1    5    5    0  502 -0.21487824651E+02 -0.10811184060E+03  0.91519617685E+02  0.14334513283E+03  0.47000000000E+01 0.  1.
         11    1    6    6    0    0 -0.90987064401E+02 -0.45761944944E+02  0.23108318280E+02  0.10443560632E+03  0.00000000000E+00 0. -1.
        -12    1    6    6    0    0 -0.21265925875E+02  0.24531281869E+02  0.29942246447E+02  0.44165161788E+02  0.00000000000E+00 0.  1.
</event>
<event>
12    1  0.8633375E-002  0.3197996E+03  0.7818608E-02  0.1075940E+00
         21   -1    0    0  503  502  0.00000000000E+00  0.00000000000E+00  0.18293224838E+03  0.18293224838E+03  0.00000000000E+00 0. -1.
         21   -1    0    0  501  503 -0.00000000000E+00 -0.00000000000E+00 -0.81581905005E+03  0.81581905005E+03  0.00000000000E+00 0. -1.
          6    2    1    2  501    0 -0.19556263500E+03 -0.18763375144E+03 -0.59879943288E+03  0.67884647073E+03  0.16976631325E+03 0.  0.
         24    2    3    3    0    0 -0.17891530907E+03 -0.21111098666E+03 -0.51198526675E+03  0.58726534016E+03  0.78569268059E+02 0.  0.
         -6    2    1    2    0  502  0.19556263500E+03  0.18763375144E+03 -0.34087368793E+02  0.31990482770E+03  0.16651120440E+03 0.  0.
        -24    2    5    5    0    0  0.21225260872E+03  0.16710340961E+03 -0.54327520234E+02  0.28626253455E+03  0.77588915575E+02 0.  0.
          5    1    3    3  501    0 -0.16647325924E+02  0.23477235218E+02 -0.86814166134E+02  0.91581130564E+02  0.47000000000E+01 0. -1.
        -13    1    4    4    0    0 -0.13591677868E+03 -0.16786759457E+03 -0.45561599718E+03  0.50422101991E+03  0.00000000000E+00 0.  1.
         14    1    4    4    0    0 -0.42998530392E+02 -0.43243392081E+02 -0.56369269572E+02  0.83044320255E+02  0.00000000000E+00 0. -1.
         -5    1    5    5    0  502 -0.16689973721E+02  0.20530341826E+02  0.20240151441E+02  0.33642293154E+02  0.47000000000E+01 0.  1.
         11    1    6    6    0    0  0.11300158291E+03  0.41913485043E+02 -0.12859437779E+02  0.12120834587E+03  0.00000000000E+00 0. -1.
        -12    1    6    6    0    0  0.99251025805E+02  0.12518992457E+03 -0.41468082455E+02  0.16505418868E+03  0.00000000000E+00 0.  1.
</event>
<event>
12    1  0.8633375E-002  0.1811377E+03  0.7818608E-02  0.1167518E+00
         21   -1    0    0  503  502  0.00000000000E+00  0.00000000000E+00  0.57870775903E+03  0.57870775903E+03  0.00000000000E+00 0. -1.
         21   -1    0    0  501  503 -0.00000000000E+00 -0.00000000000E+00 -0.86125471574E+02  0.86125471574E+02  0.00000000000E+00 0. -1.
          6    2    1    2  501    0  0.24195807988E+02  0.36793057609E+02  0.50053478734E+02  0.18792606073E+03  0.17570340735E+03 0.  0.
         24    2    3    3    0    0  0.13783589613E+02  0.92192690060E+02  0.48861219240E+02  0.13134828196E+03  0.78584177703E+02 0.  0.
         -6    2    1    2    0  502 -0.24195807988E+02 -0.36793057609E+02  0.44252880872E+03  0.47690716988E+03  0.17224847146E+03 0.  0.
        -24    2    5    5    0    0  0.89555378002E+01  0.22854076176E+02  0.35931268557E+03  0.36918620883E+03  0.81180911093E+02 0.  0.
          5    1    3    3  501    0  0.10412218375E+02 -0.55399632451E+02  0.11922594942E+01  0.56577778765E+02  0.47000000000E+01 0. -1.
        -11    1    4    4    0    0  0.11559314728E+02  0.29154709770E+02  0.59614541978E+02  0.67361030827E+02  0.00000000000E+00 0.  1.
         12    1    4    4    0    0  0.22242748843E+01  0.63037980290E+02 -0.10753322738E+02  0.63987251134E+02  0.00000000000E+00 0. -1.
         -5    1    5    5    0  502 -0.33151345788E+02 -0.59647133784E+02  0.83216123153E+02  0.10772096105E+03  0.47000000000E+01 0.  1.
         11    1    6    6    0    0 -0.25608923026E+02 -0.80235324742E+01  0.23477271982E+03  0.23630155307E+03  0.00000000000E+00 0. -1.
        -12    1    6    6    0    0  0.34564460826E+02  0.30877608650E+02  0.12453996576E+03  0.13288465577E+03  0.00000000000E+00 0.  1.
</event>
<event>
12    1  0.8633375E-002  0.1768335E+03  0.7818608E-02  0.1172085E+00
         21   -1    0    0  501  502  0.00000000000E+00  0.00000000000E+00  0.58322997932E+03  0.58322997932E+03  0.00000000000E+00 0.  1.
         21   -1    0    0  502  503 -0.00000000000E+00 -0.00000000000E+00 -0.55454458118E+02  0.55454458118E+02  0.00000000000E+00 0.  1.
         -6    2    1    2    0  503  0.27565106259E+01 -0.33292193326E+02  0.18316274883E+03  0.25134989119E+03  0.16885557958E+03 0.  0.
        -24    2    3    3    0    0 -0.31035220010E+02  0.21503102999E+02  0.45740585273E+02  0.99523191975E+02  0.79919311059E+02 0.  0.
          6    2    1    2  501    0 -0.27565106259E+01  0.33292193326E+02  0.34461277237E+03  0.38733454624E+03  0.17364941504E+03 0.  0.
         24    2    5    5    0    0 -0.61266782211E+01  0.47052779679E+02  0.35623089433E+03  0.36841940616E+03  0.81122798908E+02 0.  0.
          5    1    5    5  501    0  0.33701675952E+01 -0.13760586353E+02 -0.11618121958E+02  0.18915140079E+02  0.47000000000E+01 0. -1.
        -11    1    6    6    0    0 -0.26854895163E+02  0.50575420047E+02  0.14129592012E+03  0.15245850435E+03  0.00000000000E+00 0.  1.
         12    1    6    6    0    0  0.20728216942E+02 -0.35226403680E+01  0.21493497421E+03  0.21596090181E+03  0.00000000000E+00 0. -1.
         -5    1    3    3    0  503  0.33791730636E+02 -0.54795296325E+02  0.13742216356E+03  0.15182669922E+03  0.47000000000E+01 0.  1.
         11    1    4    4    0    0 -0.45301726410E+02 -0.97435451156E+01  0.55735013113E+01  0.46671693820E+02  0.00000000000E+00 0. -1.
        -12    1    4    4    0    0  0.14266506400E+02  0.31246648115E+02  0.40167083961E+02  0.52851498155E+02  0.00000000000E+00 0.  1.
</event>
<event>
12    1  0.8633375E-002  0.1921607E+03  0.7818608E-02  0.1157660E+00
         21   -1    0    0  503  502  0.00000000000E+00  0.00000000000E+00  0.52202917559E+03  0.52202917559E+03  0.00000000000E+00 0. -1.
         21   -1    0    0  501  503 -0.00000000000E+00 -0.00000000000E+00 -0.10536060866E+03  0.10536060866E+03  0.00000000000E+00 0. -1.
          6    2    1    2  501    0  0.56014072588E+02 -0.45453624196E+02  0.21991996452E+02  0.18841902094E+03  0.17266867482E+03 0.  0.
         24    2    3    3    0    0 -0.39967001302E+01  0.16956448993E+02 -0.29475277634E+02  0.87586087934E+02  0.80616598996E+02 0.  0.
         -6    2    1    2    0  502 -0.56014072588E+02  0.45453624196E+02  0.39467657048E+03  0.43897076330E+03  0.17810706743E+03 0.  0.
        -24    2    5    5    0    0  0.13432241719E+02 -0.30813011545E+02  0.16122141970E+03  0.18370073427E+03  0.81386404281E+02 0.  0.
          5    1    3    3  501    0  0.60010772718E+02 -0.62410073189E+02  0.51467274086E+02  0.10083293301E+03  0.47000000000E+01 0. -1.
        -13    1    4    4    0    0  0.51559537355E+01  0.22490806233E+00  0.27253254052E+02  0.27737597210E+02  0.00000000000E+00 0.  1.
         14    1    4    4    0    0 -0.91526538657E+01  0.16731540930E+02 -0.56728531686E+02  0.59848490724E+02  0.00000000000E+00 0. -1.
         -5    1    5    5    0  502 -0.69446314307E+02  0.76266635740E+02  0.23345515078E+03  0.25527002904E+03  0.47000000000E+01 0.  1.
         13    1    6    6    0    0 -0.30624043076E+02  0.18101197159E+01  0.38018360143E+02  0.48851860309E+02  0.00000000000E+00 0. -1.
        -14    1    6    6    0    0  0.44056284795E+02 -0.32623131261E+02  0.12320305956E+03  0.13484887396E+03  0.00000000000E+00 0.  1.
</event>
<event>
12    1  0.8633375E-002  0.1747649E+03  0.7818608E-02  0.1173306E+00
         21   -1    0    0  501  502  0.00000000000E+00  0.00000000000E+00  0.13402186587E+03  0.13402186587E+03  0.00000000000E+00 0. -1.
         21   -1    0    0  502  503 -0.00000000000E+00 -0.00000000000E+00 -0.22686348907E+03  0.22686348907E+03  0.00000000000E+00 0. -1.
         -6    2    1    2    0  503  0.13269597113E+01  0.29708267171E+02 -0.36135608848E+02  0.17715089369E+03  0.17085758675E+03 0.  0.
        -24    2    3    3    0    0  0.22973931969E+02  0.50241764366E+02 -0.79377753631E+02  0.12440443409E+03  0.78253428125E+02 0.  0.
          6    2    1    2  501    0 -0.13269597113E+01 -0.29708267171E+02 -0.56706014354E+02  0.18373446124E+03  0.17221625424E+03 0.  0.
         24    2    5    5    0    0  0.35779724842E+02  0.32030013008E+02 -0.27554834159E+01  0.93616366130E+02  0.80313889680E+02 0.  0.
          5    1    5    5  501    0 -0.37106684553E+02 -0.61738280179E+02 -0.53950530939E+02  0.90118095111E+02  0.47000000000E+01 0. -1.
        -11    1    6    6    0    0 -0.11979307060E+02 -0.91783303040E+01  0.21300994064E+02  0.26105131544E+02  0.00000000000E+00 0.  1.
         12    1    6    6    0    0  0.47759031901E+02  0.41208343312E+02 -0.24056477480E+02  0.67511234586E+02  0.00000000000E+00 0. -1.
         -5    1    3    3    0  503 -0.21646972258E+02 -0.20533497195E+02  0.43242144783E+02  0.52746459601E+02  0.47000000000E+01 0.  1.
         11    1    4    4    0    0  0.51092646819E+02  0.30051590716E+02 -0.37798440721E+02  0.70301342693E+02  0.00000000000E+00 0. -1.
        -12    1    4    4    0    0 -0.28118714850E+02  0.20190173649E+02 -0.41579312910E+02  0.54103091398E+02  0.00000000000E+00 0.  1.
</event>
<event>
12    1  0.8633375E-002  0.1744836E+03  0.7818608E-02  0.1174712E+00
         21   -1    0    0  501  502  0.00000000000E+00  0.00000000000E+00  0.31859953085E+03  0.31859953085E+03  0.00000000000E+00 0. -1.
         21   -1    0    0  502  503 -0.00000000000E+00 -0.00000000000E+00 -0.10482443247E+03  0.10482443247E+03  0.00000000000E+00 0. -1.
         -6    2    1    2    0  503 -0.66454804405E+01 -0.22258005702E+02  0.32629654373E+02  0.17191212450E+03  0.16718104850E+03 0.  0.
        -24    2    3    3    0    0 -0.17895679640E+02 -0.75564990792E+02  0.38179490088E+02  0.11694766036E+03  0.78668663502E+02 0.  0.
          6    2    1    2  501    0  0.66454804405E+01  0.22258005702E+02  0.18114544401E+03  0.25151183882E+03  0.17293048301E+03 0.  0.
         24    2    5    5    0    0 -0.39637726454E+02  0.59645960206E+02  0.14984083260E+03  0.18411700907E+03  0.79485898029E+02 0.  0.
          5    1    5    5  501    0  0.46283206894E+02 -0.37387954504E+02  0.31304611406E+02  0.67394829755E+02  0.47000000000E+01 0. -1.
        -13    1    6    6    0    0  0.79868149289E+01  0.50599378640E+02  0.43330949654E+02  0.67094392683E+02  0.00000000000E+00 0.  1.
         14    1    6    6    0    0 -0.47624541382E+02  0.90465815658E+01  0.10650988295E+03  0.11702261638E+03  0.00000000000E+00 0. -1.
         -5    1    3    3    0  503  0.11250199199E+02  0.53306985089E+02 -0.55498357143E+01  0.54964464136E+02  0.47000000000E+01 0.  1.
         13    1    4    4    0    0 -0.43113629974E+02 -0.71962130730E+02  0.21844954222E+02  0.86686419777E+02  0.00000000000E+00 0. -1.
        -14    1    4    4    0    0  0.25217950334E+02 -0.36028600616E+01  0.16334535866E+02  0.30261240583E+02  0.00000000000E+00 0.  1.
</event>
<event>
12    1  0.8633375E-002  0.1780128E+03  0.7818608E-02  0.1169800E+00
         21   -1    0    0  503  502  0.00000000000E+00  0.00000000000E+00  0.80043510167E+03  0.80043510167E+03  0.00000000000E+00 0. -1.
         21   -1    0    0  501  503 -0.00000000000E+00 -0.00000000000E+00 -0.48093312500E+02  0.48093312500E+02  0.00000000000E+00 0. -1.
          6    2    1    2  501    0  0.39293202716E+02  0.17800585157E+02  0.19698573318E+03  0.26533984530E+03  0.17245590108E+03 0.  0.
         24    2    3    3    0    0 -0.22264844622E+02  0.19862846592E+02  0.18367944235E+03  0.20215129025E+03  0.78973100650E+02 0.  0.
         -6    2    1    2    0  502 -0.39293202716E+02 -0.17800585157E+02  0.55535605600E+03  0.58318856887E+03  0.17270709690E+03 0.  0.
        -24    2    5    5    0    0  0.36385039261E+02  0.22407529698E+02  0.24603101496E+03  0.26217772821E+03  0.79874478896E+02 0.  0.
          5    1    3    3  501    0  0.61558047339E+02 -0.20622614346E+01  0.13306290831E+02  0.63188555056E+02  0.47000000000E+01 0. -1.
        -13    1    4    4    0    0  0.11253890485E+02  0.39561406129E+02  0.61925001023E+02  0.74340168534E+02  0.00000000000E+00 0.  1.
         14    1    4    4    0    0 -0.33518735107E+02 -0.19698559537E+02  0.12175444133E+03  0.12781112171E+03  0.00000000000E+00 0. -1.
         -5    1    5    5    0  502 -0.75678241978E+02 -0.40208114855E+02  0.30932504104E+03  0.32101084066E+03  0.47000000000E+01 0.  1.
         13    1    6    6    0    0  0.36862923046E+02  0.33930311940E+02  0.24557753918E+03  0.25063612850E+03  0.00000000000E+00 0. -1.
        -14    1    6    6    0    0 -0.47788378472E+00 -0.11522782242E+02  0.45347578245E+00  0.11541599706E+02  0.00000000000E+00 0.  1.
</event>
<event>
12    1  0.8633375E-002  0.1912146E+03  0.7818608E-02  0.1157397E+00
         21   -1    0    0  503  502  0.00000000000E+00  0.00000000000E+00  0.56964417059E+02  0.56964417059E+02  0.00000000000E+00 0.  1.
         21   -1    0    0  501  503 -0.00000000000E+00 -0.00000000000E+00 -0.11898370160E+04  0.11898370160E+04  0.00000000000E+00 0.  1.
          6    2    1    2  501    0 -0.84817909372E+02 -0.89599622397E+01 -0.98955887286E+03  0.10078415199E+04  0.17100703968E+03 0.  0.
         24    2    3    3    0    0  0.32143848212E+01 -0.17409909563E+02 -0.24708578063E+03  0.26010529022E+03  0.79309153246E+02 0.  0.
         -6    2    1    2    0  502  0.84817909372E+02  0.89599622397E+01 -0.14331372609E+03  0.23895991321E+03  0.17113929228E+03 0.  0.
        -24    2    5    5    0    0  0.66042706161E+02  0.67931816044E+02 -0.60727213253E+02  0.13565062079E+03  0.75742496818E+02 0.  0.
          5    1    3    3  501    0 -0.88032294193E+02  0.84499473235E+01 -0.74247309223E+03  0.74773622964E+03  0.47000000000E+01 0. -1.
        -11    1    4    4    0    0 -0.31175161267E+02  0.10989643229E+02 -0.14469094818E+03  0.14841877720E+03  0.00000000000E+00 0.  1.
         12    1    4    4    0    0  0.34389546088E+02 -0.28399552792E+02 -0.10239483245E+03  0.11168651302E+03  0.00000000000E+00 0. -1.
         -5    1    5    5    0  502  0.18775203211E+02 -0.58971853805E+02 -0.82586512832E+02  0.10330929241E+03  0.47000000000E+01 0.  1.
         11    1    6    6    0    0  0.32112768493E+02 -0.12018527358E+02 -0.20342720178E+02  0.39868548561E+02  0.00000000000E+00 0. -1.
        -12    1    6    6    0    0  0.33929937668E+02  0.79950343403E+02 -0.40384493076E+02  0.95782072233E+02  0.00000000000E+00 0.  1.
</event>
<event>
12    1  0.8633375E-002  0.1852331E+03  0.7818608E-02  0.1164035E+00
         21   -1    0    0  501  502  0.00000000000E+00  0.00000000000E+00  0.24523427752E+03  0.24523427752E+03  0.00000000000E+00 0. -1.
         21   -1    0    0  502  503 -0.00000000000E+00 -0.00000000000E+00 -0.27020875003E+03  0.27020875003E+03  0.00000000000E+00 0. -1.
         -6    2    1    2    0  503  0.52408840437E+02  0.31742790934E+00 -0.19395454150E+03  0.26471297297E+03  0.17235952708E+03 0.  0.
        -24    2    3    3    0    0  0.59292118312E+02  0.56558842011E+02 -0.11192020058E+03  0.16490215560E+03  0.89174725791E+02 0.  0.
          6    2    1    2  501    0 -0.52408840437E+02 -0.31742790934E+00  0.16898006899E+03  0.25073005457E+03  0.17766403472E+03 0.  0.
         24    2    5    5    0    0 -0.18822269876E+02 -0.49652900362E+02  0.31073977671E+02  0.10038968546E+03  0.79327224204E+02 0.  0.
          5    1    5    5  501    0 -0.33586570561E+02  0.49335472452E+02  0.13790609132E+03  0.15034036912E+03  0.47000000000E+01 0. -1.
        -13    1    6    6    0    0 -0.25949486493E+02  0.15144616543E+02  0.66244401441E+01  0.30767165399E+02  0.00000000000E+00 0.  1.
         14    1    6    6    0    0  0.71272166175E+01 -0.64797516904E+02  0.24449537527E+02  0.69622520056E+02  0.00000000000E+00 0. -1.
         -5    1    3    3    0  503 -0.68832778752E+01 -0.56241414102E+02 -0.82034340921E+02  0.99810817373E+02  0.47000000000E+01 0.  1.
         11    1    4    4    0    0 -0.18031429705E+02 -0.42252751122E+01 -0.36604298448E+02  0.41022677532E+02  0.00000000000E+00 0. -1.
        -12    1    4    4    0    0  0.77323548017E+02  0.60784117123E+02 -0.75315902130E+02  0.12387947807E+03  0.00000000000E+00 0.  1.
</event>
<event>
12    1  0.8633375E-002  0.2105758E+03  0.7818608E-02  0.1141166E+00
         21   -1    0    0  501  502  0.00000000000E+00  0.00000000000E+00  0.10610728484E+04  0.10610728484E+04  0.00000000000E+00 0. -1.
         21   -1    0    0  502  503 -0.00000000000E+00 -0.00000000000E+00 -0.47691010876E+02  0.47691010876E+02  0.00000000000E+00 0. -1.
         -6    2    1    2    0  503 -0.58802022032E+02 -0.10600237224E+03  0.70290216291E+03  0.73376673335E+03  0.17218591008E+03 0.  0.
        -24    2    3    3    0    0 -0.34069214550E+02 -0.13192840290E+03  0.42234074341E+03  0.45088748182E+03  0.79762164281E+02 0.  0.
          6    2    1    2  501    0  0.58802022032E+02  0.10600237224E+03  0.31047967465E+03  0.37499712596E+03  0.17184596415E+03 0.  0.
         24    2    5    5    0    0  0.72003911131E+02  0.39981950455E+02  0.27412078387E+03  0.29833523904E+03  0.84134363492E+02 0.  0.
          5    1    5    5  501    0 -0.13201889099E+02  0.66020421786E+02  0.36358890779E+02  0.76661886928E+02  0.47000000000E+01 0. -1.
        -11    1    6    6    0    0  0.98993320215E+01  0.53250812925E+02  0.12119685260E+03  0.13274909766E+03  0.00000000000E+00 0.  1.
         12    1    6    6    0    0  0.62104579109E+02 -0.13268862470E+02  0.15292393128E+03  0.16558614137E+03  0.00000000000E+00 0. -1.
         -5    1    3    3    0  503 -0.24732807482E+02  0.25926030655E+02  0.28056141951E+03  0.28287925153E+03  0.47000000000E+01 0.  1.
         11    1    4    4    0    0 -0.42915711770E+02 -0.10108910412E+03  0.39064406034E+03  0.40578756409E+03  0.00000000000E+00 0. -1.
        -12    1    4    4    0    0  0.88464972198E+01 -0.30839298778E+02  0.31696683064E+02  0.45099917732E+02  0.00000000000E+00 0.  1.
</event>
<event>
12    1  0.8633375E-002  0.2962458E+03  0.7818608E-02  0.1087325E+00
         21   -1    0    0  501  502  0.00000000000E+00  0.00000000000E+00  0.18700594589E+04  0.18700594589E+04  0.00000000000E+00 0.  1.
         21   -1    0    0  502  503 -0.00000000000E+00 -0.00000000000E+00 -0.48132045909E+02  0.48132045909E+02  0.00000000000E+00 0. -1.
         -6    2    1    2    0  503  0.67685043619E+02  0.22944374231E+03  0.10746581975E+04  0.11143427144E+04  0.17217359723E+03 0.  0.
        -24    2    3    3    0    0  0.57748825668E+02  0.44267505940E+02  0.29942892258E+03  0.31722823975E+03  0.75375974085E+02 0.  0.
          6    2    1    2  501    0 -0.67685043619E+02 -0.22944374231E+03  0.74726921554E+03  0.80384879049E+03  0.17474524736E+03 0.  0.
         24    2    5    5    0    0 -0.12573895909E+02 -0.18768681728E+03  0.66768120961E+03  0.69831576212E+03  0.80388193924E+02 0.  0.
          5    1    5    5  501    0 -0.55111147710E+02 -0.41756925034E+02  0.79588005931E+02  0.10553302838E+03  0.47000000000E+01 0. -1.
        -13    1    6    6    0    0 -0.25462097152E+02 -0.47363197738E+02  0.29546884434E+03  0.30032220842E+03  0.00000000000E+00 0.  1.
         14    1    6    6    0    0  0.12888201243E+02 -0.14032361954E+03  0.37221236526E+03  0.39799355370E+03  0.00000000000E+00 0. -1.
         -5    1    3    3    0  503  0.99362179508E+01  0.18517623637E+03  0.77522927492E+03  0.79711447461E+03  0.47000000000E+01 0.  1.
         11    1    4    4    0    0  0.33933441124E+02 -0.31776154850E+00  0.22318814308E+03  0.22575324275E+03  0.00000000000E+00 0. -1.
        -12    1    4    4    0    0  0.23815384544E+02  0.44585267489E+02  0.76240779496E+02  0.91474997001E+02  0.00000000000E+00 0.  1.
</event>
<event>
12    1  0.8633375E-002  0.2181209E+03  0.7818608E-02  0.1135762E+00
         21   -1    0    0  501  502  0.00000000000E+00  0.00000000000E+00  0.17735137596E+03  0.17735137596E+03  0.00000000000E+00 0.  1.
         21   -1    0    0  502  503 -0.00000000000E+00 -0.00000000000E+00 -0.41444343224E+03  0.41444343224E+03  0.00000000000E+00 0.  1.
         -6    2    1    2    0  503 -0.76840874477E+02  0.10684869594E+03 -0.29652776877E+03  0.36811062948E+03  0.17394123740E+03 0.  0.
        -24    2    3    3    0    0  0.10447960304E+02  0.24800135991E+00 -0.11615043293E+03  0.14108393051E+03  0.79401076803E+02 0.  0.
          6    2    1    2  501    0  0.76840874477E+02 -0.10684869594E+03  0.59435712485E+02  0.22368417872E+03  0.17082401493E+03 0.  0.
         24    2    5    5    0    0  0.83001315564E+02 -0.13912346556E+03  0.66010462030E+02  0.18984737745E+03  0.73756956104E+02 0.  0.
          5    1    5    5  501    0 -0.61604410866E+01  0.32274769621E+02 -0.65747495452E+01  0.33836801268E+02  0.47000000000E+01 0. -1.
        -11    1    6    6    0    0  0.50163605240E+02 -0.12042136579E+03  0.75713225529E+02  0.15083164506E+03  0.00000000000E+00 0.  1.
         12    1    6    6    0    0  0.32837710323E+02 -0.18702099763E+02 -0.97027634987E+01  0.39015732395E+02  0.00000000000E+00 0. -1.
         -5    1    3    3    0  503 -0.87288834781E+02  0.10660069458E+03 -0.18037733584E+03  0.22702669897E+03  0.47000000000E+01 0.  1.
         11    1    4    4    0    0 -0.20717762374E+02 -0.28818262289E+02 -0.37520983684E+02  0.51648253947E+02  0.00000000000E+00 0. -1.
        -12    1    4    4    0    0  0.31165722677E+02  0.29066263649E+02 -0.78629449248E+02  0.89435676559E+02  0.00000000000E+00 0.  1.
</event>
<event>
12    1  0.8633375E-002  0.1888245E+03  0.7818608E-02  0.1159557E+00
         21   -1    0    0  503  502  0.00000000000E+00  0.00000000000E+00  0.23362962876E+04  0.23362962876E+04  0.00000000000E+00 0.  1.
         21   -1    0    0  501  503 -0.00000000000E+00 -0.00000000000E+00 -0.18763501876E+02  0.18763501876E+02  0.00000000000E+00 0. -1.
          6    2    1    2  501    0  0.75388628500E+02  0.25920169714E+02  0.64888652471E+03  0.67576379401E+03  0.17101953935E+03 0.  0.
         24    2    3    3    0    0  0.78455108357E+01 -0.17589806450E+02  0.45513534214E+03  0.46596197915E+03  0.97986902293E+02 0.  0.
         -6    2    1    2    0  502 -0.75388628500E+02 -0.25920169714E+02  0.16686462610E+04  0.16792959955E+04  0.17117066188E+03 0.  0.
        -24    2    5    5    0    0 -0.96499538897E+01  0.80013990260E+00  0.35483956836E+03  0.36356590766E+03  0.78583001391E+02 0.  0.
          5    1    3    3  501    0  0.67543117664E+02  0.43509976165E+02  0.19375118257E+03  0.20980181486E+03  0.47000000000E+01 0. -1.
        -11    1    4    4    0    0 -0.11512414029E+01  0.39716901236E+02  0.23374697934E+03  0.23709999568E+03  0.00000000000E+00 0.  1.
         12    1    4    4    0    0  0.89967522386E+01 -0.57306707687E+02  0.22138836280E+03  0.22886198348E+03  0.00000000000E+00 0. -1.
         -5    1    5    5    0  502 -0.65738674610E+02 -0.26720309617E+02  0.13138066927E+04  0.13157300878E+04  0.47000000000E+01 0.  1.
         13    1    6    6    0    0  0.19863993520E+02  0.31064599976E+02  0.16019206273E+03  0.16438091304E+03  0.00000000000E+00 0. -1.
        -14    1    6    6    0    0 -0.29513947410E+02 -0.30264460073E+02  0.19464750563E+03  0.19918499463E+03  0.00000000000E+00 0.  1.
</event>
<event>
12    1  0.8633375E-002  0.1906010E+03  0.7818608E-02  0.1159641E+00
         21   -1    0    0  503  502  0.00000000000E+00  0.00000000000E+00  0.94044244092E+02  0.94044244092E+02  0.00000000000E+00 0.  1.
         21   -1    0    0  501  503 -0.00000000000E+00 -0.00000000000E+00 -0.39820963910E+03  0.39820963910E+03  0.00000000000E+00 0.  1.
          6    2    1    2  501    0  0.84184372663E+02  0.72029561284E+01 -0.21327265579E+03  0.28108991927E+03  0.16244206916E+03 0.  0.
         24    2    3    3    0    0  0.31868484683E+02  0.60274493025E+02 -0.14814961876E+03  0.18201096028E+03  0.80815006632E+02 0.  0.
         -6    2    1    2    0  502 -0.84184372663E+02 -0.72029561284E+01 -0.90892739222E+02  0.21116396392E+03  0.17085033930E+03 0.  0.
        -24    2    5    5    0    0 -0.61591477952E+02  0.28808522334E+02 -0.12008027035E+03  0.15938300752E+03  0.79751054198E+02 0.  0.
          5    1    3    3  501    0  0.52315887980E+02 -0.53071536897E+02 -0.65123037030E+02  0.99078958996E+02  0.47000000000E+01 0. -1.
        -11    1    4    4    0    0  0.52690926771E+02  0.18801251002E+02 -0.10328376702E+03  0.11746215277E+03  0.00000000000E+00 0.  1.
         12    1    4    4    0    0 -0.20822442088E+02  0.41473242023E+02 -0.44865851738E+02  0.64548807507E+02  0.00000000000E+00 0. -1.
         -5    1    5    5    0  502 -0.22592894711E+02 -0.36011478463E+02  0.29187531123E+02  0.51780956398E+02  0.47000000000E+01 0.  1.
         13    1    6    6    0    0  0.41026240923E+01  0.38204096489E+02 -0.42666392625E+02  0.57417815811E+02  0.00000000000E+00 0. -1.
        -14    1    6    6    0    0 -0.65694102044E+02 -0.93955741546E+01 -0.77413877721E+02  0.10196519171E+03  0.00000000000E+00 0.  1.
</event>
<event>
12    1  0.8633375E-002  0.1991357E+03  0.7818608E-02  0.1150491E+00
         21   -1    0    0  503  502  0.00000000000E+00  0.00000000000E+00  0.13759674046E+04  0.13759674046E+04  0.00000000000E+00 0. -1.
         21   -1    0    0  501  503 -0.00000000000E+00 -0.00000000000E+00 -0.52130570628E+02  0.52130570628E+02  0.00000000000E+00 0. -1.
          6    2    1    2  501    0 -0.79890705915E+02 -0.60527113931E+02  0.18437717076E+03  0.27138526981E+03  0.17207256364E+03 0.  0.
         24    2    3    3    0    0  0.17923095552E+02 -0.47668001192E+01  0.10816313606E+03  0.13534328570E+03  0.79212254386E+02 0.  0.
         -6    2    1    2    0  502  0.79890705915E+02  0.60527113931E+02  0.11394596632E+04  0.11567127054E+04  0.17195901369E+03 0.  0.
        -24    2    5    5    0    0 -0.18725070626E+02  0.30057263575E+02  0.70604864591E+03  0.71115610623E+03  0.77357932218E+02 0.  0.
          5    1    3    3  501    0 -0.97813801467E+02 -0.55760313812E+02  0.76214034709E+02  0.13604198411E+03  0.47000000000E+01 0. -1.
        -13    1    4    4    0    0  0.40430923894E+02 -0.98115408590E+01  0.10385462401E+03  0.11187809825E+03  0.00000000000E+00 0.  1.
         14    1    4    4    0    0 -0.22507828343E+02  0.50447407398E+01  0.43085120489E+01  0.23465187447E+02  0.00000000000E+00 0. -1.
         -5    1    5    5    0  502  0.98615776541E+02  0.30469850356E+02  0.43341101729E+03  0.44555659918E+03  0.47000000000E+01 0.  1.
         11    1    6    6    0    0  0.65575926031E+01  0.51329599531E+02  0.45900453791E+03  0.46191221637E+03  0.00000000000E+00 0. -1.
        -12    1    6    6    0    0 -0.25282663229E+02 -0.21272335956E+02  0.24704410800E+03  0.24924388986E+03  0.00000000000E+00 0.  1.
</event>
<event>
12    1  0.8633375E-002  0.1866003E+03  0.7818608E-02  0.1161650E+00
         21   -1    0    0  501  502  0.00000000000E+00  0.00000000000E+00  0.23057815017E+04  0.23057815017E+04  0.00000000000E+00 0.  1.
         21   -1    0    0  502  503 -0.00000000000E+00 -0.00000000000E+00 -0.27227362914E+02  0.27227362914E+02  0.00000000000E+00 0.  1.
         -6    2    1    2    0  503  0.45346372153E+02 -0.57350081364E+02  0.35919790157E+03  0.40460329112E+03  0.17127569995E+03 0.  0.
        -24    2    3    3    0    0  0.37843215846E+02  0.31023873117E+02  0.21902832643E+03  0.23866398601E+03  0.81194216240E+02 0.  0.
          6    2    1    2  501    0 -0.45346372153E+02  0.57350081364E+02  0.19193562372E+04  0.19284055735E+04  0.17168099850E+03 0.  0.
         24    2    5    5    0    0 -0.71458232320E+02  0.26507456646E+02  0.72474949737E+03  0.73310625967E+03  0.79837521296E+02 0.  0.
          5    1    5    5  501    0  0.26111860167E+02  0.30842624718E+02  0.11946067399E+04  0.11952993139E+04  0.47000000000E+01 0. -1.
        -13    1    6    6    0    0 -0.37816298486E+02  0.26348292844E+02  0.14003875978E+03  0.14742848845E+03  0.00000000000E+00 0.  1.
         14    1    6    6    0    0 -0.33641933834E+02  0.15916380243E+00  0.58471073759E+03  0.58567777122E+03  0.00000000000E+00 0. -1.
         -5    1    3    3    0  503  0.75031563076E+01 -0.88373954481E+02  0.14016957514E+03  0.16593930511E+03  0.47000000000E+01 0.  1.
         11    1    4    4    0    0 -0.23306618206E+02  0.23403427282E+02  0.70171052514E+02  0.77555757179E+02  0.00000000000E+00 0. -1.
        -12    1    4    4    0    0  0.61149834052E+02  0.76204458347E+01  0.14885727391E+03  0.16110822883E+03  0.00000000000E+00 0.  1.
</event>
<event>
12    1  0.8633375E-002  0.2645588E+03  0.7818608E-02  0.1104504E+00
         21   -1    0    0  501  502  0.00000000000E+00  0.00000000000E+00  0.31265551011E+03  0.31265551011E+03  0.00000000000E+00 0.  1.
         21   -1    0    0  502  503 -0.00000000000E+00 -0.00000000000E+00 -0.54400207199E+03  0.54400207199E+03  0.00000000000E+00 0. -1.
         -6    2    1    2    0  503 -0.35995565422E+01 -0.19979656519E+03 -0.44450661040E+03  0.51727891286E+03  0.17337739972E+03 0.  0.
        -24    2    3    3    0    0 -0.46980048767E+02 -0.80160694075E+02 -0.12283279081E+03  0.17131541049E+03  0.75021420386E+02 0.  0.
          6    2    1    2  501    0  0.35995565422E+01  0.19979656519E+03  0.21316004852E+03  0.33937866925E+03  0.17265297734E+03 0.  0.
         24    2    5    5    0    0  0.24458228007E+01  0.17672470375E+02  0.91035901966E+02  0.12004578483E+03  0.76191579262E+02 0.  0.
          5    1    5    5  501    0  0.11537337415E+01  0.18212409482E+03  0.12212414655E+03  0.21933288441E+03  0.47000000000E+01 0. -1.
        -13    1    6    6    0    0  0.11264402561E+02  0.38377720840E+02  0.88846836949E+02  0.97434576295E+02  0.00000000000E+00 0.  1.
         14    1    6    6    0    0 -0.88185797608E+01 -0.20705250465E+02  0.21890650174E+01  0.22611208536E+02  0.00000000000E+00 0. -1.
         -5    1    3    3    0  503  0.43380492225E+02 -0.11963587112E+03 -0.32167381959E+03  0.34596350237E+03  0.47000000000E+01 0.  1.
         11    1    4    4    0    0 -0.27669247982E+02 -0.65297491330E+02 -0.12806656742E+03  0.14639124069E+03  0.00000000000E+00 0. -1.
        -12    1    4    4    0    0 -0.19310800784E+02 -0.14863202745E+02  0.52337766144E+01  0.24924169804E+02  0.00000000000E+00 0.  1.
</event>
<event>
12    1  0.8633375E-002  0.1758570E+03  0.7818608E-02  0.1172978E+00
         21   -1    0    0  501  502  0.00000000000E+00  0.00000000000E+00  0.87341157521E+02  0.87341157521E+02  0.00000000000E+00 0.  1.
         21   -1    0    0  502  503 -0.00000000000E+00 -0.00000000000E+00 -0.41706859648E+03  0.41706859648E+03  0.00000000000E+00 0. -1.
         -6    2    1    2    0  503 -0.32952734935E+02  0.17504750415E+02 -0.26773157154E+03  0.31794484409E+03  0.16738109349E+03 0.  0.
        -24    2    3    3    0    0 -0.27245557788E+02 -0.50522591949E+02 -0.12371668833E+03  0.15849997034E+03  0.80756231397E+02 0.  0.
          6    2    1    2  501    0  0.32952734935E+02 -0.17504750415E+02 -0.61995867422E+02  0.18646490991E+03  0.17185277427E+03 0.  0.
         24    2    5    5    0    0 -0.15923413300E+02 -0.34716956578E+02 -0.97128839244E+02  0.12368311624E+03  0.66367760737E+02 0.  0.
          5    1    5    5  501    0  0.48876148235E+02  0.17212206164E+02  0.35132971823E+02  0.62781793670E+02  0.47000000000E+01 0. -1.
        -13    1    6    6    0    0 -0.27649918075E+01  0.67727292526E+01  0.74296892279E+01  0.10426664052E+02  0.00000000000E+00 0.  1.
         14    1    6    6    0    0 -0.13158421493E+02 -0.41489685831E+02 -0.10455852847E+03  0.11325645219E+03  0.00000000000E+00 0. -1.
         -5    1    3    3    0  503 -0.57071771465E+01  0.68027342363E+02 -0.14401488321E+03  0.15944487375E+03  0.47000000000E+01 0.  1.
         13    1    4    4    0    0 -0.54183298623E+02 -0.23254337049E+02 -0.89155389888E+02  0.10688909012E+03  0.00000000000E+00 0. -1.
        -14    1    4    4    0    0  0.26937740834E+02 -0.27268254900E+02 -0.34561298439E+02  0.51610880213E+02  0.00000000000E+00 0.  1.
</event>
<event>
12    1  0.8633375E-002  0.1885229E+03  0.7818608E-02  0.1160205E+00
         21   -1    0    0  501  502  0.00000000000E+00  0.00000000000E+00  0.77889144767E+02  0.77889144767E+02  0.00000000000E+00 0. -1.
         21   -1    0    0  502  503 -0.00000000000E+00 -0.00000000000E+00 -0.12729241300E+04  0.12729241300E+04  0.00000000000E+00 0.  1.
         -6    2    1    2    0  503 -0.52751172802E+01  0.76528992854E+02 -0.11389004024E+04  0.11541104716E+04  0.17027137330E+03 0.  0.
        -24    2    3    3    0    0 -0.20766001080E+02 -0.22636429970E+02 -0.52925566668E+03  0.53624111462E+03  0.80618468914E+02 0.  0.
          6    2    1    2  501    0  0.52751172802E+01 -0.76528992854E+02 -0.56134582827E+02  0.19670280311E+03  0.17221030095E+03 0.  0.
         24    2    5    5    0    0  0.70465220100E+02 -0.51434794860E+02 -0.36554711947E+02  0.12400528168E+03  0.80188387898E+02 0.  0.
          5    1    5    5  501    0 -0.65190102820E+02 -0.25094197994E+02 -0.19579870881E+02  0.72697521432E+02  0.47000000000E+01 0. -1.
        -11    1    6    6    0    0  0.21130239257E+02  0.95359168429E+01 -0.39186772692E+02  0.45530471940E+02  0.00000000000E+00 0.  1.
         12    1    6    6    0    0  0.49334980843E+02 -0.60970711703E+02  0.26320607454E+01  0.78474809743E+02  0.00000000000E+00 0. -1.
         -5    1    3    3    0  503  0.15490883799E+02  0.99165422824E+02 -0.60964473570E+03  0.61786935701E+03  0.47000000000E+01 0.  1.
         13    1    4    4    0    0 -0.29871611884E+02 -0.13065816168E+01 -0.66593670211E+02  0.72998200417E+02  0.00000000000E+00 0. -1.
        -14    1    4    4    0    0  0.91056108044E+01 -0.21329848353E+02 -0.46266199647E+03  0.46324291420E+03  0.00000000000E+00 0.  1.
</event>
<event>
12    1  0.8633375E-002  0.1746888E+03  0.7818608E-02  0.1173193E+00
         21   -1    0    0  501  502  0.00000000000E+00  0.00000000000E+00  0.56382908999E+03  0.56382908999E+03  0.00000000000E+00 0.  1.
         21   -1    0    0  502  503 -0.00000000000E+00 -0.00000000000E+00 -0.17840887435E+03  0.17840887435E+03  0.00000000000E+00 0.  1.
         -6    2    1    2    0  503 -0.13936731544E+02  0.30806587039E+02 -0.11736878674E+03  0.20996644642E+03  0.17078406902E+03 0.  0.
        -24    2    3    3    0    0 -0.47421484112E+02  0.16464026513E+01 -0.13162811246E+03  0.16309467050E+03  0.83799783765E+02 0.  0.
          6    2    1    2  501    0  0.13936731544E+02 -0.30806587039E+02  0.50278900238E+03  0.53227151791E+03  0.17138526650E+03 0.  0.
         24    2    5    5    0    0  0.10439462283E+02 -0.10262048860E+02  0.50421520618E+03  0.51086046940E+03  0.80815549444E+02 0.  0.
          5    1    5    5  501    0  0.34972692616E+01 -0.20544538178E+02 -0.14262037966E+01  0.21411048515E+02  0.47000000000E+01 0. -1.
        -11    1    6    6    0    0 -0.26483444977E+02 -0.29715230835E+02  0.27684503912E+03  0.27969187240E+03  0.00000000000E+00 0.  1.
         12    1    6    6    0    0  0.36922907260E+02  0.19453181975E+02  0.22737016706E+03  0.23116859699E+03  0.00000000000E+00 0. -1.
         -5    1    3    3    0  503  0.33484752568E+02  0.29160184387E+02  0.14259325721E+02  0.46871775922E+02  0.47000000000E+01 0.  1.
         13    1    4    4    0    0 -0.22051801251E+02  0.39324282131E+02 -0.37740784375E+02  0.58796665796E+02  0.00000000000E+00 0. -1.
        -14    1    4    4    0    0 -0.25369682861E+02 -0.37677879479E+02 -0.93887328086E+02  0.10429800471E+03  0.00000000000E+00 0.  1.
</event>
<event>
12    1  0.8633375E-002  0.1811094E+03  0.7818608E-02  0.1167009E+00
         21   -1    0    0  501  502  0.00000000000E+00  0.00000000000E+00  0.11588688459E+03  0.11588688459E+03  0.00000000000E+00 0. -1.
         21   -1    0    0  502  503 -0.00000000000E+00 -0.00000000000E+00 -0.29932485075E+03  0.29932485075E+03  0.00000000000E+00 0. -1.
         -6    2    1    2    0  503 -0.37683132299E+02  0.40191959405E+02 -0.40437375440E+02  0.18445259054E+03  0.17132473483E+03 0.  0.
        -24    2    3    3    0    0  0.38648784068E+02  0.14778293191E+02  0.19070156188E+02  0.84274488109E+02  0.70897052333E+02 0.  0.
          6    2    1    2  501    0  0.37683132299E+02 -0.40191959405E+02 -0.14300059072E+03  0.23075914480E+03  0.17252594559E+03 0.  0.
         24    2    5    5    0    0  0.33927206957E+02  0.41371907030E+02 -0.55782328422E+02  0.11119373775E+03  0.79935530825E+02 0.  0.
          5    1    5    5  501    0  0.37559253421E+01 -0.81563866435E+02 -0.87218262303E+02  0.11956540705E+03  0.47000000000E+01 0. -1.
        -11    1    6    6    0    0  0.90767701358E+01  0.15172929853E+02  0.20334307463E+02  0.26946050108E+02  0.00000000000E+00 0.  1.
         12    1    6    6    0    0  0.24850436822E+02  0.26198977178E+02 -0.76116635884E+02  0.84247687646E+02  0.00000000000E+00 0. -1.
         -5    1    3    3    0  503 -0.76331916368E+02  0.25413666214E+02 -0.59507531628E+02  0.10017810243E+03  0.47000000000E+01 0.  1.
         13    1    4    4    0    0  0.27016195374E+02 -0.27024030332E+02  0.13504472899E+02  0.40528308824E+02  0.00000000000E+00 0. -1.
        -14    1    4    4    0    0  0.11632588694E+02  0.41802323522E+02  0.55656832887E+01  0.43746179285E+02  0.00000000000E+00 0.  1.
</event>
<event>
12    1  0.8633375E-002  0.1898012E+03  0.7818608E-02  0.1160788E+00
         21   -1    0    0  501  502  0.00000000000E+00  0.00000000000E+00  0.11643384348E+03  0.11643384348E+03  0.00000000000E+00 0.  1.
         21   -1    0    0  502  503 -0.00000000000E+00 -0.00000000000E+00 -0.56987650252E+03  0.56987650252E+03  0.00000000000E+00 0.  1.
         -6    2    1    2    0  503  0.43495503909E+02 -0.27634673145E+02 -0.46229993620E+03  0.49630254482E+03  0.17303020247E+03 0.  0.
        -24    2    3    3    0    0 -0.60911196907E+01 -0.52501239263E+02 -0.40657127100E+03  0.41753101776E+03  0.78983989050E+02 0.  0.
          6    2    1    2  501    0 -0.43495503909E+02  0.27634673145E+02  0.88572771585E+01  0.19000780119E+03  0.18267177980E+03 0.  0.
         24    2    5    5    0    0 -0.23491028576E+02 -0.32323481537E+02 -0.50961398101E+02  0.10285550199E+03  0.79909663437E+02 0.  0.
          5    1    5    5  501    0 -0.20004475333E+02  0.59958154682E+02  0.59818675259E+02  0.87152299201E+02  0.47000000000E+01 0. -1.
        -13    1    6    6    0    0  0.47271962934E+01 -0.40745682658E+02  0.32651931970E+01  0.41148736635E+02  0.00000000000E+00 0.  1.
         14    1    6    6    0    0 -0.28218224869E+02  0.84222011216E+01 -0.54226591298E+02  0.61706765352E+02  0.00000000000E+00 0. -1.
         -5    1    3    3    0  503  0.49586623599E+02  0.24866566117E+02 -0.55728665195E+02  0.78771527057E+02  0.47000000000E+01 0.  1.
         13    1    4    4    0    0 -0.27718637697E+02 -0.48716929692E+02 -0.15183581442E+03  0.16185109408E+03  0.00000000000E+00 0. -1.
        -14    1    4    4    0    0  0.21627518006E+02 -0.37843095703E+01 -0.25473545658E+03  0.25567992368E+03  0.00000000000E+00 0.  1.
</event>
<event>
12    1  0.8633375E-002  0.1751979E+03  0.7818608E-02  0.1172917E+00
         21   -1    0    0  503  502  0.00000000000E+00  0.00000000000E+00  0.13073121042E+04  0.13073121042E+04  0.00000000000E+00 0.  1.
         21   -1    0    0  501  503 -0.00000000000E+00 -0.00000000000E+00 -0.24099641928E+02  0.24099641928E+02  0.00000000000E+00 0.  1.
          6    2    1    2  501    0 -0.39380131002E+02  0.16039812637E+02  0.51576835370E+03  0.54422385610E+03  0.16838806536E+03 0.  0.
         24    2    3    3    0    0 -0.21235929663E+02  0.23648763271E+02  0.10870649414E+03  0.13665968240E+03  0.76475736098E+02 0.  0.
         -6    2    1    2    0  502  0.39380131002E+02 -0.16039812637E+02  0.76744410856E+03  0.78718789002E+03  0.16995953674E+03 0.  0.
        -24    2    5    5    0    0 -0.10151871191E+02  0.33415261211E+02  0.58927178087E+03  0.59570240252E+03  0.80003002859E+02 0.  0.
          5    1    3    3  501    0 -0.18144201339E+02 -0.76089506335E+01  0.40706185956E+03  0.40756417370E+03  0.47000000000E+01 0. -1.
        -11    1    4    4    0    0 -0.37140352165E+02  0.23263536305E+02  0.23008227181E+02  0.49497236270E+02  0.00000000000E+00 0.  1.
         12    1    4    4    0    0  0.15904422503E+02  0.38522696568E+00  0.85698266962E+02  0.87162446129E+02  0.00000000000E+00 0. -1.
         -5    1    5    5    0  502  0.49532002193E+02 -0.49455073848E+02  0.17817232768E+03  0.19148548750E+03  0.47000000000E+01 0.  1.
         13    1    6    6    0    0 -0.13657198117E+02  0.79408979619E+01  0.18399002328E+02  0.24250777462E+02  0.00000000000E+00 0. -1.
        -14    1    6    6    0    0  0.35053269257E+01  0.25474363249E+02  0.57087277854E+03  0.57145162506E+03  0.00000000000E+00 0.  1.
</event>
<event>
12    1  0.8633375E-002  0.1900674E+03  0.7818608E-02  0.1158537E+00
         21   -1    0    0  501  502  0.00000000000E+00  0.00000000000E+00  0.21028243361E+03  0.21028243361E+03  0.00000000000E+00 0. -1.
         21   -1    0    0  502  503 -0.00000000000E+00 -0.00000000000E+00 -0.17944664639E+03  0.17944664639E+03  0.00000000000E+00 0.  1.
         -6    2    1    2    0  503  0.72103203114E+02 -0.32803456339E+02 -0.26205108019E+02  0.19186536727E+03  0.17277347257E+03 0.  0.
        -24    2    3    3    0    0  0.99917022076E+02 -0.53020061252E+02  0.12394942490E+02  0.13995801193E+03  0.81486638830E+02 0.  0.
          6    2    1    2  501    0 -0.72103203114E+02  0.32803456339E+02  0.57040895236E+02  0.19786371272E+03  0.17210882149E+03 0.  0.
         24    2    5    5    0    0 -0.33656697136E+02  0.85234256254E+02  0.18300925833E+02  0.12203497258E+03  0.78485405943E+02 0.  0.
          5    1    5    5  501    0 -0.38446505978E+02 -0.52430799915E+02  0.38739969403E+02  0.75828740139E+02  0.47000000000E+01 0. -1.
        -13    1    6    6    0    0 -0.22753207562E+02  0.33097662170E+02 -0.30000134483E+02  0.50131544605E+02  0.00000000000E+00 0.  1.
         14    1    6    6    0    0 -0.10903489574E+02  0.52136594084E+02  0.48301060316E+02  0.71903427980E+02  0.00000000000E+00 0. -1.
         -5    1    3    3    0  503 -0.27813818962E+02  0.20216604913E+02 -0.38600050509E+02  0.51907355343E+02  0.47000000000E+01 0.  1.
         13    1    4    4    0    0  0.71190084842E+02  0.20902762383E+01  0.26914013429E+02  0.76136466647E+02  0.00000000000E+00 0. -1.
        -14    1    4    4    0    0  0.28726937234E+02 -0.55110337490E+02 -0.14519070939E+02  0.63821545281E+02  0.00000000000E+00 0.  1.
</event>
<event>
12    1  0.8633375E-002  0.2201037E+03  0.7818608E-02  0.1134056E+00
         21   -1    0    0  503  502  0.00000000000E+00  0.00000000000E+00  0.41975770088E+03  0.41975770088E+03  0.00000000000E+00 0.  1.
         21   -1    0    0  501  503 -0.00000000000E+00 -0.00000000000E+00 -0.11712949105E+03  0.11712949105E+03  0.00000000000E+00 0.  1.
          6    2    1    2  501    0 -0.40850312153E+02  0.13068952144E+03  0.19033339705E+03  0.29098532761E+03  0.17232863904E+03 0.  0.
         24    2    3    3    0    0 -0.36272245787E+02  0.52067399938E+02  0.28094326881E+02  0.11058022078E+03  0.86092996659E+02 0.  0.
         -6    2    1    2    0  502  0.40850312153E+02 -0.13068952144E+03  0.11229481277E+03  0.24590186433E+03  0.17061390004E+03 0.  0.
        -24    2    5    5    0    0 -0.19865421841E+02 -0.13460530631E+03  0.82068781241E+02  0.17780313667E+03  0.79783752009E+02 0.  0.
          5    1    3    3  501    0 -0.45780663659E+01  0.78622121503E+02  0.16223907017E+03  0.18040510683E+03  0.47000000000E+01 0. -1.
        -11    1    4    4    0    0  0.27780356738E+02  0.78186824186E+01  0.10930038868E+02  0.30860099885E+02  0.00000000000E+00 0.  1.
         12    1    4    4    0    0 -0.64052602524E+02  0.44248717519E+02  0.17164288013E+02  0.79720120893E+02  0.00000000000E+00 0. -1.
         -5    1    5    5    0  502  0.60715733993E+02  0.39157848710E+01  0.30226031533E+02  0.68098727652E+02  0.47000000000E+01 0.  1.
         13    1    6    6    0    0 -0.79965736203E+01  0.20192671687E+00 -0.10970547258E+02  0.13577145179E+02  0.00000000000E+00 0. -1.
        -14    1    6    6    0    0 -0.11868848220E+02 -0.13480723303E+03  0.93039328500E+02  0.16422599149E+03  0.00000000000E+00 0.  1.
</event>
<event>
12    1  0.8633375E-002  0.2048014E+03  0.7818608E-02  0.1145807E+00
         21   -1    0    0  503  502  0.00000000000E+00  0.00000000000E+00  0.23824193160E+03  0.23824193160E+03  0.00000000000E+00 0.  1.
         21   -1    0    0  501  503 -0.00000000000E+00 -0.00000000000E+00 -0.17923302637E+03  0.17923302637E+03  0.00000000000E+00 0. -1.
          6    2    1    2  501    0 -0.51744614559E+02 -0.94216493111E+02  0.69802865194E+00  0.20480255965E+03  0.17432540976E+03 0.  0.
         24    2    3    3    0    0 -0.53057033875E+02 -0.78777619647E+02  0.63941453799E+02  0.13951931462E+03  0.79725575797E+02 0.  0.
         -6    2    1    2    0  502  0.51744614559E+02  0.94216493111E+02  0.58310876573E+02  0.21267239832E+03  0.17399752288E+03 0.  0.
        -24    2    5    5    0    0  0.78036489296E+02  0.64314338101E+01  0.23928718434E+02  0.11468412294E+03  0.80304467403E+02 0.  0.
          5    1    3    3  501    0  0.13124193158E+01 -0.15438873464E+02 -0.63243425147E+02  0.65283245038E+02  0.47000000000E+01 0. -1.
        -13    1    4    4    0    0 -0.21686764293E+02 -0.59436371791E+02 -0.27431306759E+01  0.63328688626E+02  0.00000000000E+00 0.  1.
         14    1    4    4    0    0 -0.31370269581E+02 -0.19341247857E+02  0.66684584475E+02  0.76190625991E+02  0.00000000000E+00 0. -1.
         -5    1    5    5    0  502 -0.26291874737E+02  0.87785059301E+02  0.34382158138E+02  0.97988275380E+02  0.47000000000E+01 0.  1.
         13    1    6    6    0    0  0.49741088744E+02  0.98032153499E+01  0.53439053593E+02  0.73661464753E+02  0.00000000000E+00 0. -1.
        -14    1    6    6    0    0  0.28295400552E+02 -0.33717815398E+01 -0.29510335159E+02  0.41022658182E+02  0.00000000000E+00 0.  1.
</event>
<event>
12    1  0.8633375E-002  0.2139844E+03  0.7818608E-02  0.1138674E+00
         21   -1    0    0  503  502  0.00000000000E+00  0.00000000000E+00  0.74021780089E+03  0.74021780089E+03  0.00000000000E+00 0.  1.
         21   -1    0    0  501  503 -0.00000000000E+00 -0.00000000000E+00 -0.92183666504E+02  0.92183666504E+02  0.00000000000E+00 0. -1.
          6    2    1    2  501    0 -0.12730542150E+03  0.76071093675E+01  0.84580842389E+02  0.23009398643E+03  0.17182777783E+03 0.  0.
         24    2    3    3    0    0 -0.59606516051E+02  0.47963681501E+02  0.99964087904E+02  0.14965438824E+03  0.80933093046E+02 0.  0.
         -6    2    1    2    0  502  0.12730542150E+03 -0.76071093675E+01  0.56345329199E+03  0.60230748097E+03  0.17038236678E+03 0.  0.
        -24    2    5    5    0    0  0.84200354015E+02 -0.38800754826E+02  0.19762652658E+03  0.23260164837E+03  0.80324869287E+02 0.  0.
          5    1    3    3  501    0 -0.67698905453E+02 -0.40356572133E+02 -0.15383245515E+02  0.80439598186E+02  0.47000000000E+01 0. -1.
        -11    1    4    4    0    0 -0.12575608435E+02  0.60944256643E+01  0.83375014390E+02  0.84538044549E+02  0.00000000000E+00 0.  1.
         12    1    4    4    0    0 -0.47030907616E+02  0.41869255836E+02  0.16589073514E+02  0.65116343690E+02  0.00000000000E+00 0. -1.
         -5    1    5    5    0  502  0.43105067490E+02  0.31193645458E+02  0.36582676541E+03  0.36970583259E+03  0.47000000000E+01 0.  1.
         13    1    6    6    0    0  0.57281207564E+02 -0.52749471683E+02  0.18312520934E+03  0.19899368281E+03  0.00000000000E+00 0. -1.
        -14    1    6    6    0    0  0.26919146451E+02  0.13948716857E+02  0.14501317245E+02  0.33607965565E+02  0.00000000000E+00 0.  1.
</event>
<event>
12    1  0.8633375E-002  0.1814939E+03  0.7818608E-02  0.1166583E+00
         21   -1    0    0  503  502  0.00000000000E+00  0.00000000000E+00  0.58041569309E+02  0.58041569309E+02  0.00000000000E+00 0.  1.
         21   -1    0    0  501  503 -0.00000000000E+00 -0.00000000000E+00 -0.81445305554E+03  0.81445305554E+03  0.00000000000E+00 0.  1.
          6    2    1    2  501    0 -0.35346309253E+02 -0.45499536628E+02 -0.62044567067E+03  0.64644635022E+03  0.17210602562E+03 0.  0.
         24    2    3    3    0    0 -0.80976471222E+02 -0.66524419654E+02 -0.43512982040E+03  0.45438330915E+03  0.78380761195E+02 0.  0.
         -6    2    1    2    0  502  0.35346309253E+02  0.45499536628E+02 -0.13596581556E+03  0.22604827462E+03  0.17114774333E+03 0.  0.
        -24    2    5    5    0    0  0.62654743519E+01 -0.33032314192E+02 -0.30978353300E+02  0.91670434993E+02  0.79457034483E+02 0.  0.
          5    1    3    3  501    0  0.45630161969E+02  0.21024883025E+02 -0.18531585027E+03  0.19206304108E+03  0.47000000000E+01 0. -1.
        -13    1    4    4    0    0 -0.85898952274E+02 -0.26712681338E+02 -0.27679255215E+03  0.29104349206E+03  0.00000000000E+00 0.  1.
         14    1    4    4    0    0  0.49224810521E+01 -0.39811738316E+02 -0.15833726825E+03  0.16333981709E+03  0.00000000000E+00 0. -1.
         -5    1    5    5    0  502  0.29080834901E+02  0.78531850821E+02 -0.10498746226E+03  0.13437783963E+03  0.47000000000E+01 0.  1.
         11    1    6    6    0    0  0.31643199116E+02 -0.36825269375E+02  0.35145470393E+01  0.48680022142E+02  0.00000000000E+00 0. -1.
        -12    1    6    6    0    0 -0.25377724765E+02  0.37929551828E+01 -0.34492900339E+02  0.42990412851E+02  0.00000000000E+00 0.  1.
</event>
<event>
12    1  0.8633375E-002  0.1928799E+03  0.7818608E-02  0.1157516E+00
         21   -1    0    0  501  502  0.00000000000E+00  0.00000000000E+00  0.16569351699E+04  0.16569351699E+04  0.00000000000E+00 0.  1.
         21   -1    0    0  502  503 -0.00000000000E+00 -0.00000000000E+00 -0.45330214511E+02  0.45330214511E+02  0.00000000000E+00 0.  1.
         -6    2    1    2    0  503 -0.55185785794E+02 -0.39849576073E+02  0.18298887238E+03  0.26068757829E+03  0.17274150166E+03 0.  0.
        -24    2    3    3    0    0 -0.13305167798E+02 -0.68145964158E+02  0.18098497856E+03  0.20988622661E+03  0.80472142601E+02 0.  0.
          6    2    1    2  501    0  0.55185785794E+02  0.39849576073E+02  0.14286160830E+04  0.14415778061E+04  0.18046938462E+03 0.  0.
         24    2    5    5    0    0  0.75677637489E+02 -0.82637259433E+01  0.51425804499E+03  0.52571345070E+03  0.78217014997E+02 0.  0.
          5    1    5    5  501    0 -0.20491851695E+02  0.48113302016E+02  0.91435803804E+03  0.91586435543E+03  0.47000000000E+01 0. -1.
        -13    1    6    6    0    0 -0.14453698577E+02  0.11205748811E+01  0.13515997014E+03  0.13593521478E+03  0.00000000000E+00 0.  1.
         14    1    6    6    0    0  0.90131336065E+02 -0.93843008244E+01  0.37909807485E+03  0.38977823592E+03  0.00000000000E+00 0. -1.
         -5    1    3    3    0  503 -0.41880617996E+02  0.28296388085E+02  0.20038938153E+01  0.50801351682E+02  0.47000000000E+01 0.  1.
         11    1    4    4    0    0  0.24794253787E+02 -0.57408906411E+02  0.13768039374E+03  0.15121649506E+03  0.00000000000E+00 0. -1.
        -12    1    4    4    0    0 -0.38099421585E+02 -0.10737057747E+02  0.43304584817E+02  0.58669731552E+02  0.00000000000E+00 0.  1.
</event>
<event>
12    1  0.8633375E-002  0.2007988E+03  0.7818608E-02  0.1149391E+00
         21   -1    0    0  501  502  0.00000000000E+00  0.00000000000E+00  0.21711647418E+03  0.21711647418E+03  0.00000000000E+00 0. -1.
         21   -1    0    0  502  503 -0.00000000000E+00 -0.00000000000E+00 -0.39944077866E+03  0.39944077866E+03  0.00000000000E+00 0. -1.
         -6    2    1    2    0  503 -0.98314321170E+02 -0.17953472138E+02 -0.31725076145E+03  0.37463723820E+03  0.17238614125E+03 0.  0.
        -24    2    3    3    0    0  0.91124065615E+01 -0.28516825669E+02 -0.18673389022E+03  0.20520043598E+03  0.79633082775E+02 0.  0.
          6    2    1    2  501    0  0.98314321170E+02  0.17953472138E+02  0.13492645697E+03  0.24192001465E+03  0.17416116613E+03 0.  0.
         24    2    5    5    0    0  0.96361571679E+02  0.51150391311E+02  0.43131002814E+02  0.14417368951E+03  0.83808438213E+02 0.  0.
          5    1    5    5  501    0  0.19527494910E+01 -0.33196919174E+02  0.91795454160E+02  0.97746325136E+02  0.47000000000E+01 0. -1.
        -11    1    6    6    0    0  0.28433052907E+02  0.57295815041E+01 -0.24604596363E+02  0.38034888773E+02  0.00000000000E+00 0.  1.
         12    1    6    6    0    0  0.67928518772E+02  0.45420809807E+02  0.67735599177E+02  0.10613880074E+03  0.00000000000E+00 0. -1.
         -5    1    3    3    0  503 -0.10742672773E+03  0.10563353532E+02 -0.13051687123E+03  0.16943680222E+03  0.47000000000E+01 0.  1.
         11    1    4    4    0    0  0.12521237427E+02  0.23686780674E+02 -0.31312419979E+02  0.41210588571E+02  0.00000000000E+00 0. -1.
        -12    1    4    4    0    0 -0.34088308659E+01 -0.52203606343E+02 -0.15542147024E+03  0.16398984741E+03  0.00000000000E+00 0.  1.
</event>
<event>
12    1  0.8633375E-002  0.1721776E+03  0.7818608E-02  0.1176256E+00
         21   -1    0    0  503  502  0.00000000000E+00  0.00000000000E+00  0.54593048731E+03  0.54593048731E+03  0.00000000000E+00 0. -1.
         21   -1    0    0  501  503 -0.00000000000E+00 -0.00000000000E+00 -0.34088323680E+03  0.34088323680E+03  0.00000000000E+00 0. -1.
          6    2    1    2  501    0  0.10462187896E+02  0.10316525471E+02 -0.30472220543E+03  0.34875236675E+03  0.16898728579E+03 0.  0.
         24    2    3    3    0    0 -0.41639354320E+02  0.21875383025E+02 -0.10190146579E+03  0.13897505550E+03  0.81962119968E+02 0.  0.
         -6    2    1    2    0  502 -0.10462187896E+02 -0.10316525471E+02  0.50976945594E+03  0.53806135736E+03  0.17154952056E+03 0.  0.
        -24    2    5    5    0    0 -0.56193444041E+02 -0.23146372372E+02  0.45095771968E+03  0.46231927472E+03  0.81748328041E+02 0.  0.
          5    1    3    3  501    0  0.52101542216E+02 -0.11558857554E+02 -0.20282073964E+03  0.20977731125E+03  0.47000000000E+01 0. -1.
        -11    1    4    4    0    0 -0.62883096861E+01 -0.26425573645E+02 -0.92967815902E+01  0.28710345332E+02  0.00000000000E+00 0.  1.
         12    1    4    4    0    0 -0.35351044634E+02  0.48300956670E+02 -0.92604684202E+02  0.11026471017E+03  0.00000000000E+00 0. -1.
         -5    1    5    5    0  502  0.45731256145E+02  0.12829846901E+02  0.58811736260E+02  0.75742082635E+02  0.47000000000E+01 0.  1.
         11    1    6    6    0    0 -0.40870111444E+02 -0.31081249148E+02  0.43732240907E+03  0.44032635571E+03  0.00000000000E+00 0. -1.
        -12    1    6    6    0    0 -0.15323332597E+02  0.79348767761E+01  0.13635310603E+02  0.21992919010E+02  0.00000000000E+00 0.  1.
</event>
<event>
12    1  0.8633375E-002  0.1996211E+03  0.7818608E-02  0.1150698E+00
         21   -1    0    0  501  502  0.00000000000E+00  0.00000000000E+00  0.38218741233E+02  0.38218741233E+02  0.00000000000E+00 0. -1.
         21   -1    0    0  502  503 -0.00000000000E+00 -0.00000000000E+00 -0.10270629667E+04  0.10270629667E+04  0.00000000000E+00 0. -1.
         -6    2    1    2    0  503  0.96658329029E+02  0.46215905496E+01 -0.48987715359E+03  0.52786498929E+03  0.17116550364E+03 0.  0.
        -24    2    3    3    0    0  0.31078709515E+02 -0.42225387784E+02 -0.13025538674E+03  0.15929310883E+03  0.75226053906E+02 0.  0.
          6    2    1    2  501    0 -0.96658329029E+02 -0.46215905496E+01 -0.49896707184E+03  0.53741671861E+03  0.17459782069E+03 0.  0.
         24    2    5    5    0    0 -0.10941849655E+03 -0.36450580692E+02 -0.47568431833E+03  0.49570241531E+03  0.78385340603E+02 0.  0.
          5    1    5    5  501    0  0.12760167519E+02  0.31828990143E+02 -0.23282753513E+02  0.41714303300E+02  0.47000000000E+01 0. -1.
        -13    1    6    6    0    0 -0.81303363207E+02 -0.10268970687E+02 -0.18304548891E+03  0.20055258572E+03  0.00000000000E+00 0.  1.
         14    1    6    6    0    0 -0.28115133341E+02 -0.26181610006E+02 -0.29263882942E+03  0.29514982959E+03  0.00000000000E+00 0. -1.
         -5    1    3    3    0  503  0.65579619513E+02  0.46846978333E+02 -0.35962176685E+03  0.36857188046E+03  0.47000000000E+01 0.  1.
         11    1    4    4    0    0 -0.24869735980E+02 -0.81398878982E+01 -0.35996242548E+02  0.44502708010E+02  0.00000000000E+00 0. -1.
        -12    1    4    4    0    0  0.55948445495E+02 -0.34085499885E+02 -0.94259144196E+02  0.11479040082E+03  0.00000000000E+00 0.  1.
</event>
<event>
12    1  0.8633375E-002  0.1754921E+03  0.7818608E-02  0.1173054E+00
         21   -1    0    0  503  502  0.00000000000E+00  0.00000000000E+00  0.47405266527E+03  0.47405266527E+03  0.00000000000E+00 0. -1.
         21   -1    0    0  501  503 -0.00000000000E+00 -0.00000000000E+00 -0.81650144781E+02  0.81650144781E+02  0.00000000000E+00 0. -1.
          6    2    1    2  501    0  0.98319857383E+01  0.24308410912E+02  0.67628441773E+02  0.18807201477E+03  0.17352207301E+03 0.  0.
         24    2    3    3    0    0 -0.33135688897E+02 -0.73019661085E+00 -0.18037669219E+02  0.88905863782E+02  0.80500857375E+02 0.  0.
         -6    2    1    2    0  502 -0.98319857383E+01 -0.24308410912E+02  0.32477407872E+03  0.36763079528E+03  0.17025461123E+03 0.  0.
        -24    2    5    5    0    0  0.13484602162E+02  0.40760321399E+02  0.11181383958E+03  0.14368491643E+03  0.79371167273E+02 0.  0.
          5    1    3    3  501    0  0.42967674635E+02  0.25038607522E+02  0.85666110992E+02  0.99166150993E+02  0.47000000000E+01 0. -1.
        -13    1    4    4    0    0 -0.41041362214E+02  0.31988098653E+02 -0.32364585501E+01  0.52135463283E+02  0.00000000000E+00 0.  1.
         14    1    4    4    0    0  0.79056733166E+01 -0.32718295264E+02 -0.14801210668E+02  0.36770400498E+02  0.00000000000E+00 0. -1.
         -5    1    5    5    0  502 -0.23316587901E+02 -0.65068732310E+02  0.21296023914E+03  0.22394587885E+03  0.47000000000E+01 0.  1.
         13    1    6    6    0    0  0.40637585249E+02  0.71433559575E+01  0.80034900477E+02  0.90044578757E+02  0.00000000000E+00 0. -1.
        -14    1    6    6    0    0 -0.27152983086E+02  0.33616965441E+02  0.31778939098E+02  0.53640337678E+02  0.00000000000E+00 0.  1.
</event>
<event>
12    1  0.8633375E-002  0.1718183E+03  0.7818608E-02  0.1176067E+00
         21   -1    0    0  501  502  0.00000000000E+00  0.00000000000E+00  0.23036659007E+04  0.23036659007E+04  0.00000000000E+00 0. -1.
         21   -1    0    0  502  503 -0.00000000000E+00 -0.00000000000E+00 -0.12804000385E+03  0.12804000385E+03  0.00000000000E+00 0. -1.
         -6    2    1    2    0  503 -0.11774058657E+02 -0.10479227533E+02 -0.65865395840E+02  0.18363901295E+03  0.17069444643E+03 0.  0.
        -24    2    3    3    0    0 -0.72343545778E+02 -0.11702533210E+02 -0.25348797707E+02  0.11060584261E+03  0.78870482273E+02 0.  0.
          6    2    1    2  501    0  0.11774058657E+02  0.10479227533E+02  0.22414912927E+04  0.22480668916E+04  0.17109380820E+03 0.  0.
         24    2    5    5    0    0 -0.56439342274E+02 -0.14670618207E+01  0.10653329541E+04  0.10698621941E+04  0.80518690522E+02 0.  0.
          5    1    5    5  501    0  0.68213400932E+02  0.11946289353E+02  0.11761583386E+04  0.11782046975E+04  0.47000000000E+01 0. -1.
        -11    1    6    6    0    0  0.13742418348E+02 -0.21247559241E+02  0.25198836973E+03  0.25325570342E+03  0.00000000000E+00 0.  1.
         12    1    6    6    0    0 -0.70181760623E+02  0.19780497420E+02  0.81334458441E+03  0.81660649066E+03  0.00000000000E+00 0. -1.
         -5    1    3    3    0  503  0.60569487121E+02  0.12233056771E+01 -0.40516598133E+02  0.73033170349E+02  0.47000000000E+01 0.  1.
         13    1    4    4    0    0  0.72862347430E+00  0.18929663804E+02 -0.25006876449E+02  0.31372072511E+02  0.00000000000E+00 0. -1.
        -14    1    4    4    0    0 -0.73072169253E+02 -0.30632197014E+02 -0.34192125745E+00  0.79233770094E+02  0.00000000000E+00 0.  1.
</event>
<event>
12    1  0.8633375E-002  0.2119970E+03  0.7818608E-02  0.1141018E+00
         21   -1    0    0  503  502  0.00000000000E+00  0.00000000000E+00  0.75778423759E+03  0.75778423759E+03  0.00000000000E+00 0.  1.
         21   -1    0    0  501  503 -0.00000000000E+00 -0.00000000000E+00 -0.81426311611E+02  0.81426311611E+02  0.00000000000E+00 0.  1.
          6    2    1    2  501    0 -0.10406519276E+03 -0.50925358614E+02  0.10953991252E+03  0.23404495451E+03  0.17133327698E+03 0.  0.
         24    2    3    3    0    0 -0.51129067499E+02 -0.67783916078E+02  0.13015489074E+03  0.17460160631E+03  0.79602666551E+02 0.  0.
         -6    2    1    2    0  502  0.10406519276E+03  0.50925358614E+02  0.56681801347E+03  0.60516559470E+03  0.17753810892E+03 0.  0.
        -24    2    5    5    0    0  0.12767443162E+03 -0.36695772862E+01  0.36919562768E+03  0.39873231116E+03  0.79798610152E+02 0.  0.
          5    1    3    3  501    0 -0.52936125266E+02  0.16858557464E+02 -0.20614978219E+02  0.59443348197E+02  0.47000000000E+01 0. -1.
        -11    1    4    4    0    0  0.12201244157E+02 -0.15137838940E+02 -0.12930980042E+01  0.19485805839E+02  0.00000000000E+00 0.  1.
         12    1    4    4    0    0 -0.63330311655E+02 -0.52646077138E+02  0.13144798874E+03  0.15511580047E+03  0.00000000000E+00 0. -1.
         -5    1    5    5    0  502 -0.23609238857E+02  0.54594935901E+02  0.19762238579E+03  0.20643328353E+03  0.47000000000E+01 0.  1.
         13    1    6    6    0    0  0.16410631736E+02 -0.24089971595E+02  0.14166073802E+03  0.14462849049E+03  0.00000000000E+00 0. -1.
        -14    1    6    6    0    0  0.11126379989E+03  0.20420394309E+02  0.22753488966E+03  0.25410382067E+03  0.00000000000E+00 0.  1.
</event>
<event>
12    1  0.8633375E-002  0.2027309E+03  0.7818608E-02  0.1147590E+00
         21   -1    0    0  501  502  0.00000000000E+00  0.00000000000E+00  0.37287070730E+03  0.37287070730E+03  0.00000000000E+00 0.  1.
         21   -1    0    0  502  503 -0.00000000000E+00 -0.00000000000E+00 -0.12821861181E+03  0.12821861181E+03  0.00000000000E+00 0. -1.
         -6    2    1    2    0  503  0.28525235785E+02 -0.10275545373E+03  0.27721929439E+02  0.20461749006E+03  0.17241647113E+03 0.  0.
        -24    2    3    3    0    0  0.54834745253E+02 -0.38687081451E+02 -0.30988593106E+02  0.11370015358E+03  0.86393821901E+02 0.  0.
          6    2    1    2  501    0 -0.28525235785E+02  0.10275545373E+03  0.21693016606E+03  0.29647182905E+03  0.17165219523E+03 0.  0.
         24    2    5    5    0    0 -0.16179525547E+02  0.11678704858E+03  0.23216163970E+03  0.27190783091E+03  0.78318898112E+02 0.  0.
          5    1    5    5  501    0 -0.12345710238E+02 -0.14031594847E+02 -0.15231473640E+02  0.24563998138E+02  0.47000000000E+01 0. -1.
        -13    1    6    6    0    0  0.25548282197E+02  0.84833147541E+02  0.13579543723E+03  0.16214122985E+03  0.00000000000E+00 0.  1.
         14    1    6    6    0    0 -0.41727807744E+02  0.31953901040E+02  0.96366202468E+02  0.10976660106E+03  0.00000000000E+00 0. -1.
         -5    1    3    3    0  503 -0.26309509467E+02 -0.64068372282E+02  0.58710522545E+02  0.90917336481E+02  0.47000000000E+01 0.  1.
         13    1    4    4    0    0  0.41284618030E+02 -0.65899502818E+02 -0.29798998043E+02  0.83277514624E+02  0.00000000000E+00 0. -1.
        -14    1    4    4    0    0  0.13550127223E+02  0.27212421368E+02 -0.11895950638E+01  0.30422638953E+02  0.00000000000E+00 0.  1.
</event>
<event>
12    1  0.8633375E-002  0.4706913E+03  0.7818608E-02  0.1021864E+00
         21   -1    0    0  503  502  0.00000000000E+00  0.00000000000E+00  0.42984834499E+03  0.42984834499E+03  0.00000000000E+00 0. -1.
         21   -1    0    0  501  503 -0.00000000000E+00 -0.00000000000E+00 -0.79758200396E+03  0.79758200396E+03  0.00000000000E+00 0.  1.
          6    2    1    2  501    0  0.30365719999E+02  0.43512644079E+03 -0.55053540891E+03  0.72432005903E+03  0.17689888358E+03 0.  0.
         24    2    3    3    0    0  0.38942529637E+01  0.89555722560E+02 -0.18092076371E+03  0.21760817263E+03  0.81151718434E+02 0.  0.
         -6    2    1    2    0  502 -0.30365719999E+02 -0.43512644079E+03  0.18280174995E+03  0.50311028992E+03  0.17159949771E+03 0.  0.
        -24    2    5    5    0    0 -0.70768033785E+02 -0.30110681132E+03  0.16057071272E+03  0.36130085067E+03  0.95299131618E+02 0.  0.
          5    1    3    3  501    0  0.26471467036E+02  0.34557071823E+03 -0.36961464520E+03  0.50671188640E+03  0.47000000000E+01 0. -1.
        -11    1    4    4    0    0  0.20565692456E+02  0.97319879753E+02 -0.13154565975E+03  0.16491927511E+03  0.00000000000E+00 0.  1.
         12    1    4    4    0    0 -0.16671439492E+02 -0.77641571935E+01 -0.49375103955E+02  0.52688897523E+02  0.00000000000E+00 0. -1.
         -5    1    5    5    0  502  0.40402313785E+02 -0.13401962948E+03  0.22231037226E+02  0.14180943925E+03  0.47000000000E+01 0.  1.
         13    1    6    6    0    0 -0.50664715494E+02 -0.10510800830E+03  0.10402646696E+03  0.15632054450E+03  0.00000000000E+00 0. -1.
        -14    1    6    6    0    0 -0.20103318291E+02 -0.19599880301E+03  0.56544245758E+02  0.20498030617E+03  0.00000000000E+00 0.  1.
</event>
<event>
12    1  0.8633375E-002  0.2028688E+03  0.7818608E-02  0.1149140E+00
         21   -1    0    0  501  502  0.00000000000E+00  0.00000000000E+00  0.87896586482E+03  0.87896586482E+03  0.00000000000E+00 0.  1.
         21   -1    0    0  502  503 -0.00000000000E+00 -0.00000000000E+00 -0.55212770324E+02  0.55212770324E+02  0.00000000000E+00 0.  1.
         -6    2    1    2    0  503 -0.89737039268E+02  0.13309468685E+02  0.21704070858E+03  0.29708990051E+03  0.18145484735E+03 0.  0.
        -24    2    3    3    0    0 -0.66094758527E+01  0.44585316950E+02  0.42961310300E+02  0.10160563671E+03  0.80290071434E+02 0.  0.
          6    2    1    2  501    0  0.89737039268E+02 -0.13309468685E+02  0.60671238592E+03  0.63708873464E+03  0.17190770317E+03 0.  0.
         24    2    5    5    0    0  0.10253361109E+03 -0.17285253920E+02  0.27155750070E+03  0.30163315456E+03  0.80169584877E+02 0.  0.
          5    1    5    5  501    0 -0.12796571827E+02  0.39757852350E+01  0.33515488522E+03  0.33545558008E+03  0.47000000000E+01 0. -1.
        -11    1    6    6    0    0  0.30087988855E+02  0.28136232262E+02  0.12879313601E+03  0.13522058469E+03  0.00000000000E+00 0.  1.
         12    1    6    6    0    0  0.72445622240E+02 -0.45421486182E+02  0.14276436468E+03  0.16641256988E+03  0.00000000000E+00 0. -1.
         -5    1    3    3    0  503 -0.83127563415E+02 -0.31275848265E+02  0.17407939829E+03  0.19548426379E+03  0.47000000000E+01 0.  1.
         13    1    4    4    0    0 -0.14885407160E+02  0.57827256693E+02  0.55543820962E+02  0.81551719847E+02  0.00000000000E+00 0. -1.
        -14    1    4    4    0    0  0.82759313068E+01 -0.13241939743E+02 -0.12582510663E+02  0.20053916867E+02  0.00000000000E+00 0.  1.
</event>
<event>
12    1  0.8633375E-002  0.2413092E+03  0.7818608E-02  0.1119023E+00
         21   -1    0    0  503  502  0.00000000000E+00  0.00000000000E+00  0.19802677924E+03  0.19802677924E+03  0.00000000000E+00 0.  1.
         21   -1    0    0  501  503 -0.00000000000E+00 -0.00000000000E+00 -0.43308941941E+03  0.43308941941E+03  0.00000000000E+00 0.  1.
          6    2    1    2  501    0  0.96703377268E+02  0.13871425663E+03 -0.29689368588E+03  0.38259113376E+03  0.17215378809E+03 0.  0.
         24    2    3    3    0    0  0.28589522467E+02  0.81352523102E+02 -0.26145344710E+03  0.28663298552E+03  0.79780759451E+02 0.  0.
         -6    2    1    2    0  502 -0.96703377268E+02 -0.13871425663E+03  0.61831045699E+02  0.24852506488E+03  0.17131386837E+03 0.  0.
        -24    2    5    5    0    0 -0.90387593359E+02 -0.15613330681E+03  0.16061525441E+02  0.19892414332E+03  0.82251538999E+02 0.  0.
          5    1    3    3  501    0  0.68113854801E+02  0.57361733530E+02 -0.35440238773E+02  0.95958148241E+02  0.47000000000E+01 0. -1.
        -11    1    4    4    0    0  0.17309714436E+02 -0.84749509163E+01 -0.16111602776E+02  0.25120405071E+02  0.00000000000E+00 0.  1.
         12    1    4    4    0    0  0.11279808031E+02  0.89827474018E+02 -0.24534184433E+03  0.26151258045E+03  0.00000000000E+00 0. -1.
         -5    1    5    5    0  502 -0.63157839091E+01  0.17419050175E+02  0.45769520258E+02  0.49600921564E+02  0.47000000000E+01 0.  1.
         11    1    6    6    0    0 -0.11382341624E+02 -0.10165821838E+03  0.70332141896E+01  0.10253495583E+03  0.00000000000E+00 0. -1.
        -12    1    6    6    0    0 -0.79005251735E+02 -0.54475088428E+02  0.90283112517E+01  0.96389187490E+02  0.00000000000E+00 0.  1.
</event>
<event>
12    1  0.8633375E-002  0.2283502E+03  0.7818608E-02  0.1128250E+00
         21   -1    0    0  501  502  0.00000000000E+00  0.00000000000E+00  0.25792530767E+03  0.25792530767E+03  0.00000000000E+00 0. -1.
         21   -1    0    0  502  503 -0.00000000000E+00 -0.00000000000E+00 -0.12787861817E+04  0.12787861817E+04  0.00000000000E+00 0. -1.
         -6    2    1    2    0  503 -0.80278137214E+02  0.12744278469E+03 -0.12157184421E+04  0.12365227435E+04  0.16831791942E+03 0.  0.
        -24    2    3    3    0    0 -0.63925463842E+02  0.57864291265E+02 -0.40212909584E+03  0.41978637780E+03  0.84131160310E+02 0.  0.
          6    2    1    2  501    0  0.80278137214E+02 -0.12744278469E+03  0.19485756811E+03  0.30018874585E+03  0.17163207334E+03 0.  0.
         24    2    5    5    0    0  0.10171423997E+03 -0.63658653842E+02  0.76614776594E+02  0.16405877268E+03  0.81530645021E+02 0.  0.
          5    1    5    5  501    0 -0.21436102758E+02 -0.63784130853E+02  0.11824279152E+03  0.13612997317E+03  0.47000000000E+01 0. -1.
        -13    1    6    6    0    0  0.13740391294E+02 -0.50068197129E+02  0.99944643715E+01  0.52872601929E+02  0.00000000000E+00 0.  1.
         14    1    6    6    0    0  0.87973848678E+02 -0.13590456712E+02  0.66620312223E+02  0.11118617075E+03  0.00000000000E+00 0. -1.
         -5    1    3    3    0  503 -0.16352673372E+02  0.69578493429E+02 -0.81358934629E+03  0.81673636571E+03  0.47000000000E+01 0.  1.
         11    1    4    4    0    0  0.66956130251E+01  0.14714620698E+02 -0.20960986379E+03  0.21023236263E+03  0.00000000000E+00 0. -1.
        -12    1    4    4    0    0 -0.70621076867E+02  0.43149670567E+02 -0.19251923205E+03  0.20955401518E+03  0.00000000000E+00 0.  1.
</event>
<event>
12    1  0.8633375E-002  0.3540342E+03  0.7818608E-02  0.1061001E+00
         21   -1    0    0  503  502  0.00000000000E+00  0.00000000000E+00  0.98814374864E+03  0.98814374864E+03  0.00000000000E+00 0. -1.
         21   -1    0    0  501  503 -0.00000000000E+00 -0.00000000000E+00 -0.23308661902E+03  0.23308661902E+03  0.00000000000E+00 0.  1.
          6    2    1    2  501    0  0.30728304448E+03 -0.33023275151E+02 -0.35005557314E+02  0.35547102857E+03  0.17210710904E+03 0.  0.
         24    2    3    3    0    0  0.24247843510E+03  0.37224657237E+02 -0.31726309001E+02  0.25972525649E+03  0.79178176153E+02 0.  0.
         -6    2    1    2    0  502 -0.30728304448E+03  0.33023275151E+02  0.79006268693E+03  0.86575933909E+03  0.17270430745E+03 0.  0.
        -24    2    5    5    0    0 -0.22409450581E+03  0.10411650316E+02  0.71054280850E+03  0.74838336365E+03  0.69855753400E+02 0.  0.
          5    1    3    3  501    0  0.64804609378E+02 -0.70247932388E+02 -0.32792483127E+01  0.95745772078E+02  0.47000000000E+01 0. -1.
        -11    1    4    4    0    0  0.20623382316E+03  0.31381682684E+02 -0.55653286302E+02  0.21590388626E+03  0.00000000000E+00 0.  1.
         12    1    4    4    0    0  0.36244611940E+02  0.58429745530E+01  0.23926977300E+02  0.43821370233E+02  0.00000000000E+00 0. -1.
         -5    1    5    5    0  502 -0.83188538674E+02  0.22611624835E+02  0.79519878432E+02  0.11737597544E+03  0.47000000000E+01 0.  1.
         11    1    6    6    0    0 -0.18073886102E+03  0.33861317009E+02  0.51948444649E+03  0.55106915612E+03  0.00000000000E+00 0. -1.
        -12    1    6    6    0    0 -0.43355644786E+02 -0.23449666694E+02  0.19105836201E+03  0.19731420754E+03  0.00000000000E+00 0.  1.
</event>
<event>
12    1  0.8633375E-002  0.2110719E+03  0.7818608E-02  0.1140862E+00
         21   -1    0    0  501  502  0.00000000000E+00  0.00000000000E+00  0.14034995581E+04  0.14034995581E+04  0.00000000000E+00 0. -1.
         21   -1    0    0  502  503 -0.00000000000E+00 -0.00000000000E+00 -0.15985337748E+03  0.15985337748E+03  0.00000000000E+00 0. -1.
         -6    2    1    2    0  503  0.34024934803E+02 -0.11558527858E+03 -0.78036352785E+02  0.22503557800E+03  0.17330229715E+03 0.  0.
        -24    2    3    3    0    0  0.67141514655E+02 -0.42529762525E+02 -0.90521973686E+02  0.14372262075E+03  0.78391327991E+02 0.  0.
          6    2    1    2  501    0 -0.34024934803E+02  0.11558527858E+03  0.13216825334E+04  0.13383173576E+04  0.17242673134E+03 0.  0.
         24    2    5    5    0    0 -0.55170232438E+02  0.81621306221E+02  0.51162605294E+03  0.52725985865E+03  0.80845212091E+02 0.  0.
          5    1    5    5  501    0  0.21145297635E+02  0.33963972361E+02  0.81005648050E+03  0.81105749896E+03  0.47000000000E+01 0. -1.
        -11    1    6    6    0    0  0.13704164255E+02  0.33893066430E+02  0.85746171072E+02  0.93214537083E+02  0.00000000000E+00 0.  1.
         12    1    6    6    0    0 -0.68874396692E+02  0.47728239792E+02  0.42587988187E+03  0.43404532157E+03  0.00000000000E+00 0. -1.
         -5    1    3    3    0  503 -0.33116579852E+02 -0.73055516058E+02  0.12485620901E+02  0.81312957251E+02  0.47000000000E+01 0.  1.
         11    1    4    4    0    0  0.27107092595E+02 -0.39673668989E+02 -0.38444290576E+01  0.48203465796E+02  0.00000000000E+00 0. -1.
        -12    1    4    4    0    0  0.40034422060E+02 -0.28560935359E+01 -0.86677544629E+02  0.95519154952E+02  0.00000000000E+00 0.  1.
</event>
<event>
12    1  0.8633375E-002  0.2016877E+03  0.7818608E-02  0.1148747E+00
         21   -1    0    0  503  502  0.00000000000E+00  0.00000000000E+00  0.65094682001E+03  0.65094682001E+03  0.00000000000E+00 0.  1.
         21   -1    0    0  501  503 -0.00000000000E+00 -0.00000000000E+00 -0.53546074829E+03  0.53546074829E+03  0.00000000000E+00 0.  1.
          6    2    1    2  501    0 -0.97007396269E+02  0.29781655037E+02 -0.50010600217E+03  0.53924386483E+03  0.17430017336E+03 0.  0.
         24    2    3    3    0    0  0.11556326596E+02  0.35042327315E+02 -0.28375306390E+03  0.29707772249E+03  0.79861495966E+02 0.  0.
         -6    2    1    2    0  502  0.97007396269E+02 -0.29781655037E+02  0.61559207389E+03  0.64716370348E+03  0.17195893626E+03 0.  0.
        -24    2    5    5    0    0  0.49967231645E+02 -0.27880653992E+02  0.15697152510E+03  0.18610916369E+03  0.81990889803E+02 0.  0.
          5    1    3    3  501    0 -0.10856372287E+03 -0.52606722781E+01 -0.21635293827E+03  0.24216614233E+03  0.47000000000E+01 0. -1.
        -13    1    4    4    0    0  0.17471017586E+02  0.17278084652E+02 -0.27553845152E+03  0.27663189789E+03  0.00000000000E+00 0.  1.
         14    1    4    4    0    0 -0.59146909894E+01  0.17764242663E+02 -0.82146123807E+01  0.20445824597E+02  0.00000000000E+00 0. -1.
         -5    1    5    5    0  502  0.47040164624E+02 -0.19010010452E+01  0.45862054879E+03  0.46105453980E+03  0.47000000000E+01 0.  1.
         13    1    6    6    0    0  0.67630263317E+02 -0.39865332606E+02  0.12722254243E+03  0.14949472420E+03  0.00000000000E+00 0. -1.
        -14    1    6    6    0    0 -0.17663031672E+02  0.11984678614E+02  0.29748982670E+02  0.36614439490E+02  0.00000000000E+00 0.  1.
</event>
<event>
12    1  0.8633375E-002  0.1985295E+03  0.7818608E-02  0.1151129E+00
         21   -1    0    0  501  502  0.00000000000E+00  0.00000000000E+00  0.44435753199E+02  0.44435753199E+02  0.00000000000E+00 0. -1.
         21   -1    0    0  502  503 -0.00000000000E+00 -0.00000000000E+00 -0.12078176642E+04  0.12078176642E+04  0.00000000000E+00 0.  1.
         -6    2    1    2    0  503 -0.68393160678E+02 -0.69932817335E+02 -0.90661072972E+03  0.92809319338E+03  0.17275918784E+03 0.  0.
        -24    2    3    3    0    0 -0.15547645792E+02 -0.10203243777E+03 -0.72514120940E+03  0.73632168642E+03  0.75415546644E+02 0.  0.
          6    2    1    2  501    0  0.68393160678E+02  0.69932817335E+02 -0.25677118131E+03  0.32416022406E+03  0.17198891807E+03 0.  0.
         24    2    5    5    0    0 -0.30443272176E+01  0.79078794302E+02 -0.20930299738E+03  0.23777572280E+03  0.80416577912E+02 0.  0.
          5    1    5    5  501    0  0.71437487896E+02 -0.91459769668E+01 -0.47468183932E+02  0.86384501256E+02  0.47000000000E+01 0. -1.
        -13    1    6    6    0    0  0.18752980691E+02  0.33907329270E+01 -0.10689938610E+03  0.10858475999E+03  0.00000000000E+00 0.  1.
         14    1    6    6    0    0 -0.21797307908E+02  0.75688061375E+02 -0.10240361128E+03  0.12919096281E+03  0.00000000000E+00 0. -1.
         -5    1    3    3    0  503 -0.52845514886E+02  0.32099620433E+02 -0.18146952033E+03  0.19177150696E+03  0.47000000000E+01 0.  1.
         11    1    4    4    0    0 -0.38720871005E+01 -0.10234968626E+03 -0.47542997506E+03  0.48633744717E+03  0.00000000000E+00 0. -1.
        -12    1    4    4    0    0 -0.11675558692E+02  0.31724848663E+00 -0.24971123434E+03  0.24998423925E+03  0.00000000000E+00 0.  1.
</event>
<event>
12    1  0.8633375E-002  0.1740578E+03  0.7818608E-02  0.1173823E+00
         21   -1    0    0  503  502  0.00000000000E+00  0.00000000000E+00  0.15882754302E+03  0.15882754302E+03  0.00000000000E+00 0.  1.
         21   -1    0    0  501  503 -0.00000000000E+00 -0.00000000000E+00 -0.19130584586E+03  0.19130584586E+03  0.00000000000E+00 0.  1.
          6    2    1    2  501    0  0.22683633973E+02 -0.43557794906E+01 -0.29959191549E+02  0.17661733246E+03  0.17251843061E+03 0.  0.
         24    2    3    3    0    0  0.10876359315E+02  0.60263947465E+02  0.12354451743E+02  0.98337991279E+02  0.75945305944E+02 0.  0.
         -6    2    1    2    0  502 -0.22683633973E+02  0.43557794906E+01 -0.25191112871E+01  0.17351605642E+03  0.17195335370E+03 0.  0.
        -24    2    5    5    0    0  0.38484887906E+02  0.46311757500E+02  0.87703160277E+01  0.98340040774E+02  0.77252700253E+02 0.  0.
          5    1    3    3  501    0  0.11807274658E+02 -0.64619726956E+02 -0.42313643292E+02  0.78279341179E+02  0.47000000000E+01 0. -1.
        -13    1    4    4    0    0  0.38543312771E+02  0.35640011477E+02  0.26357988037E+02  0.58741304980E+02  0.00000000000E+00 0.  1.
         14    1    4    4    0    0 -0.27666953457E+02  0.24623935988E+02 -0.14003536293E+02  0.39596686299E+02  0.00000000000E+00 0. -1.
         -5    1    5    5    0  502 -0.61168521879E+02 -0.41955978010E+02 -0.11289427315E+02  0.75176015648E+02  0.47000000000E+01 0.  1.
         13    1    6    6    0    0  0.24626917716E+02 -0.52608342066E+01  0.31477149231E+02  0.40310946112E+02  0.00000000000E+00 0. -1.
        -14    1    6    6    0    0  0.13857970191E+02  0.51572591707E+02 -0.22706833204E+02  0.58029094662E+02  0.00000000000E+00 0.  1.
</event>
<event>
12    1  0.8633375E-002  0.2144646E+03  0.7818608E-02  0.1140002E+00
         21   -1    0    0  501  502  0.00000000000E+00  0.00000000000E+00  0.29224442484E+03  0.29224442484E+03  0.00000000000E+00 0. -1.
         21   -1    0    0  502  503 -0.00000000000E+00 -0.00000000000E+00 -0.28788939261E+03  0.28788939261E+03  0.00000000000E+00 0. -1.
         -6    2    1    2    0  503 -0.19786841470E+02 -0.10937069764E+03 -0.19828260946E+03  0.29208054842E+03  0.18341642498E+03 0.  0.
        -24    2    3    3    0    0 -0.66978495795E+02 -0.77862562559E+02 -0.19653350078E+03  0.23511596121E+03  0.78137063825E+02 0.  0.
          6    2    1    2  501    0  0.19786841470E+02  0.10937069764E+03  0.20263764169E+03  0.28805326903E+03  0.17192790166E+03 0.  0.
         24    2    5    5    0    0  0.64964578263E+02  0.89348059131E+02  0.19453125566E+03  0.23775677363E+03  0.80513364601E+02 0.  0.
          5    1    5    5  501    0 -0.45177736793E+02  0.20022638505E+02  0.81063860297E+01  0.50296495394E+02  0.47000000000E+01 0. -1.
        -13    1    6    6    0    0  0.75820818651E+02  0.59470669655E+02  0.17680640716E+03  0.20136052916E+03  0.00000000000E+00 0.  1.
         14    1    6    6    0    0 -0.10856240389E+02  0.29877389476E+02  0.17724848498E+02  0.36396244470E+02  0.00000000000E+00 0. -1.
         -5    1    3    3    0  503  0.47191654325E+02 -0.31508135076E+02 -0.17491086865E+01  0.56964587202E+02  0.47000000000E+01 0.  1.
         11    1    4    4    0    0  0.95364104784E+01 -0.29695617278E+02 -0.90742778215E+02  0.95953241782E+02  0.00000000000E+00 0. -1.
        -12    1    4    4    0    0 -0.76514906273E+02 -0.48166945281E+02 -0.10579072256E+03  0.13916271943E+03  0.00000000000E+00 0.  1.
</event>
<event>
12    1  0.8633375E-002  0.1838007E+03  0.7818608E-02  0.1164190E+00
         21   -1    0    0  503  502  0.00000000000E+00  0.00000000000E+00  0.88022909923E+02  0.88022909923E+02  0.00000000000E+00 0.  1.
         21   -1    0    0  501  503 -0.00000000000E+00 -0.00000000000E+00 -0.45131641174E+03  0.45131641174E+03  0.00000000000E+00 0.  1.
          6    2    1    2  501    0 -0.59088251022E+02  0.32095517289E+02 -0.28603055746E+03  0.33995960395E+03  0.17098979174E+03 0.  0.
         24    2    3    3    0    0 -0.14596799166E+02 -0.44737652077E+02 -0.11556175821E+03  0.14769799384E+03  0.79029446197E+02 0.  0.
         -6    2    1    2    0  502  0.59088251022E+02 -0.32095517289E+02 -0.77262944358E+02  0.19937971771E+03  0.17105895365E+03 0.  0.
        -24    2    5    5    0    0 -0.27546047655E+02 -0.32557430421E+02 -0.64872539025E+02  0.11173653649E+03  0.80360663571E+02 0.  0.
          5    1    3    3  501    0 -0.44491451856E+02  0.76833169366E+02 -0.17046879926E+03  0.19226161011E+03  0.47000000000E+01 0. -1.
        -13    1    4    4    0    0  0.42113718638E+01 -0.35963213930E+02 -0.12095168752E+03  0.12625529344E+03  0.00000000000E+00 0.  1.
         14    1    4    4    0    0 -0.18808171030E+02 -0.87744381472E+01  0.53899293140E+01  0.21442700397E+02  0.00000000000E+00 0. -1.
         -5    1    5    5    0  502  0.86634298677E+02  0.46191313196E+00 -0.12390405333E+02  0.87643181225E+02  0.47000000000E+01 0.  1.
         13    1    6    6    0    0 -0.13144593288E+02  0.25992766467E+02 -0.31170637375E+02  0.42661608920E+02  0.00000000000E+00 0. -1.
        -14    1    6    6    0    0 -0.14401454366E+02 -0.58550196888E+02 -0.33701901650E+02  0.69074927566E+02  0.00000000000E+00 0.  1.
</event>
<event>
12    1  0.8633375E-002  0.2684010E+03  0.7818608E-02  0.1102218E+00
         21   -1    0    0  503  502  0.00000000000E+00  0.00000000000E+00  0.45982571241E+03  0.45982571241E+03  0.00000000000E+00 0. -1.
         21   -1    0    0  501  503 -0.00000000000E+00 -0.00000000000E+00 -0.51955126191E+03  0.51955126191E+03  0.00000000000E+00 0.  1.
          6    2    1    2  501    0 -0.13219412661E+03  0.15775349538E+03 -0.43916258766E+03  0.51468714456E+03  0.17227195349E+03 0.  0.
         24    2    3    3    0    0 -0.15581167591E+03  0.12580717840E+03 -0.29831890798E+03  0.36827202270E+03  0.80779869776E+02 0.  0.
         -6    2    1    2    0  502  0.13219412661E+03 -0.15775349538E+03  0.37943703815E+03  0.46468982976E+03  0.17205440869E+03 0.  0.
        -24    2    5    5    0    0  0.12503979854E+03 -0.92296310027E+02  0.16455129082E+03  0.23989258349E+03  0.79484364760E+02 0.  0.
          5    1    3    3  501    0  0.23617549293E+02  0.31946316980E+02 -0.14084367968E+03  0.14641512186E+03  0.47000000000E+01 0. -1.
        -13    1    4    4    0    0 -0.25960587619E+01  0.35243757735E+02 -0.73301840576E+02  0.81375806062E+02  0.00000000000E+00 0.  1.
         14    1    4    4    0    0 -0.15321561714E+03  0.90563420662E+02 -0.22501706740E+03  0.28689621664E+03  0.00000000000E+00 0. -1.
         -5    1    5    5    0  502  0.71543280717E+01 -0.65457185350E+02  0.21488574733E+03  0.22479724627E+03  0.47000000000E+01 0.  1.
         13    1    6    6    0    0  0.10812483801E+03 -0.10389541675E+03  0.12451362455E+03  0.19490736495E+03  0.00000000000E+00 0. -1.
        -14    1    6    6    0    0  0.16914960534E+02  0.11599106722E+02  0.40037666271E+02  0.44985218539E+02  0.00000000000E+00 0.  1.
</event>
<event>
12    1  0.8633375E-002  0.1732360E+03  0.7818608E-02  0.1174726E+00
         21   -1    0    0  501  502  0.00000000000E+00  0.00000000000E+00  0.22266708530E+03  0.22266708530E+03  0.00000000000E+00 0. -1.
         21   -1    0    0  502  503 -0.00000000000E+00 -0.00000000000E+00 -0.25928953459E+03  0.25928953459E+03  0.00000000000E+00 0. -1.
         -6    2    1    2    0  503 -0.17653798863E+01 -0.84446236683E+01 -0.18570941634E+03  0.25340109977E+03  0.17219088771E+03 0.  0.
        -24    2    3    3    0    0  0.70141271688E+01  0.40751673378E+02 -0.18012951849E+03  0.20289782614E+03  0.83731640129E+02 0.  0.
          6    2    1    2  501    0  0.17653798863E+01  0.84446236683E+01  0.14908696705E+03  0.22855552013E+03  0.17302102126E+03 0.  0.
         24    2    5    5    0    0 -0.90742803517E+01  0.71640726480E+02  0.79831159321E+02  0.13405841673E+03  0.79899366982E+02 0.  0.
          5    1    5    5  501    0  0.10839660238E+02 -0.63196102812E+02  0.69255807732E+02  0.94497103391E+02  0.47000000000E+01 0. -1.
        -13    1    6    6    0    0  0.10267074939E+02  0.11384390654E+02 -0.14079575030E+02  0.20814697005E+02  0.00000000000E+00 0.  1.
         14    1    6    6    0    0 -0.19341355291E+02  0.60256335826E+02  0.93910734351E+02  0.11324371973E+03  0.00000000000E+00 0. -1.
         -5    1    3    3    0  503 -0.87795070551E+01 -0.49196297047E+02 -0.55798978530E+01  0.50503273629E+02  0.47000000000E+01 0.  1.
         13    1    4    4    0    0 -0.27188156577E+02  0.33737417485E+02 -0.15202019906E+03  0.15807450813E+03  0.00000000000E+00 0. -1.
        -14    1    4    4    0    0  0.34202283745E+02  0.70142558929E+01 -0.28109319425E+02  0.44823318013E+02  0.00000000000E+00 0.  1.
</event>
<event>
12    1  0.8633375E-002  0.1897752E+03  0.7818608E-02  0.1159078E+00
         21   -1    0    0  503  502  0.00000000000E+00  0.00000000000E+00  0.13791967284E+02  0.13791967284E+02  0.00000000000E+00 0.  1.
         21   -1    0    0  501  503 -0.00000000000E+00 -0.00000000000E+00 -0.31587443770E+04  0.31587443770E+04  0.00000000000E+00 0.  1.
          6    2    1    2  501    0  0.42750640380E+02  0.64070921031E+02 -0.22540139563E+04  0.22619888475E+04  0.17344143300E+03 0.  0.
         24    2    3    3    0    0 -0.15429587573E+02  0.10097149631E+02 -0.17328168995E+04  0.17347634982E+04  0.80062243135E+02 0.  0.
         -6    2    1    2    0  502 -0.42750640380E+02 -0.64070921031E+02 -0.89093845338E+03  0.91054749678E+03  0.17144304014E+03 0.  0.
        -24    2    5    5    0    0 -0.92708809744E+02 -0.23219770046E+02 -0.57945821539E+03  0.59241754868E+03  0.77798762680E+02 0.  0.
          5    1    3    3  501    0  0.58180227953E+02  0.53973771401E+02 -0.52119705679E+03  0.52722534929E+03  0.47000000000E+01 0. -1.
        -13    1    4    4    0    0  0.16565185113E+02  0.24773133490E+02 -0.29202499781E+03  0.29354167140E+03  0.00000000000E+00 0.  1.
         14    1    4    4    0    0 -0.31994772686E+02 -0.14675983860E+02 -0.14407919017E+04  0.14412218268E+04  0.00000000000E+00 0. -1.
         -5    1    5    5    0  502  0.49958169364E+02 -0.40851150985E+02 -0.31148023799E+03  0.31812994810E+03  0.47000000000E+01 0.  1.
         11    1    6    6    0    0 -0.48273154174E+02  0.24483429497E+02 -0.19077451560E+03  0.19830444155E+03  0.00000000000E+00 0. -1.
        -12    1    6    6    0    0 -0.44435655570E+02 -0.47703199544E+02 -0.38868369979E+03  0.39411310713E+03  0.00000000000E+00 0.  1.
</event>
<event>
12    1  0.8633375E-002  0.1889777E+03  0.7818608E-02  0.1159684E+00
         21   -1    0    0  503  502  0.00000000000E+00  0.00000000000E+00  0.10640467421E+03  0.10640467421E+03  0.00000000000E+00 0.  1.
         21   -1    0    0  501  503 -0.00000000000E+00 -0.00000000000E+00 -0.48471352905E+03  0.48471352905E+03  0.00000000000E+00 0.  1.
          6    2    1    2  501    0  0.12127360954E+02  0.76010292209E+02 -0.23524411924E+02  0.18914237334E+03  0.17116308606E+03 0.  0.
         24    2    3    3    0    0  0.28267700862E+02  0.10035707811E+03 -0.57376287671E+02  0.14418332478E+03  0.81401392612E+02 0.  0.
         -6    2    1    2    0  502 -0.12127360954E+02 -0.76010292209E+02 -0.35478444291E+03  0.40197582991E+03  0.17259180020E+03 0.  0.
        -24    2    5    5    0    0  0.28718609298E+02 -0.25947561288E+00 -0.26227920312E+03  0.27554051487E+03  0.79418946719E+02 0.  0.
          5    1    3    3  501    0 -0.16140339909E+02 -0.24346785898E+02  0.33851875747E+02  0.44959048561E+02  0.47000000000E+01 0. -1.
        -13    1    4    4    0    0  0.56349188106E+02  0.69748728647E+02 -0.47566945672E+02  0.10150236681E+03  0.00000000000E+00 0.  1.
         14    1    4    4    0    0 -0.28081487243E+02  0.30608349460E+02 -0.98093419992E+01  0.42680957966E+02  0.00000000000E+00 0. -1.
         -5    1    5    5    0  502 -0.40845970252E+02 -0.75750816596E+02 -0.92505239792E+02  0.12643531504E+03  0.47000000000E+01 0.  1.
         11    1    6    6    0    0  0.32752635982E+02 -0.20506750069E+02 -0.54900122190E+02  0.67136319371E+02  0.00000000000E+00 0. -1.
        -12    1    6    6    0    0 -0.40340266843E+01  0.20247274457E+02 -0.20737908093E+03  0.20840419550E+03  0.00000000000E+00 0.  1.
</event>
<event>
12    1  0.8633375E-002  0.2360928E+03  0.7818608E-02  0.1123179E+00
         21   -1    0    0  501  502  0.00000000000E+00  0.00000000000E+00  0.38337642968E+03  0.38337642968E+03  0.00000000000E+00 0.  1.
         21   -1    0    0  502  503 -0.00000000000E+00 -0.00000000000E+00 -0.16835771464E+03  0.16835771464E+03  0.00000000000E+00 0.  1.
         -6    2    1    2    0  503 -0.14387055064E+03  0.74213682482E+02  0.66848150727E+00  0.23609378440E+03  0.17185290849E+03 0.  0.
        -24    2    3    3    0    0 -0.13930694253E+03  0.91417862032E+02  0.43501835340E+02  0.18947193852E+03  0.79016176008E+02 0.  0.
          6    2    1    2  501    0  0.14387055064E+03 -0.74213682482E+02  0.21435023353E+03  0.31564035993E+03  0.16576009227E+03 0.  0.
         24    2    5    5    0    0  0.15304809356E+03 -0.73401346972E+02  0.23009101592E+03  0.29680556730E+03  0.79625325680E+02 0.  0.
          5    1    5    5  501    0 -0.91775429249E+01 -0.81233550981E+00 -0.15740782390E+02  0.18834792629E+02  0.47000000000E+01 0. -1.
        -13    1    6    6    0    0  0.10855594799E+03 -0.22422112557E+02  0.96125851541E+02  0.14672192852E+03  0.00000000000E+00 0.  1.
         14    1    6    6    0    0  0.44492145572E+02 -0.50979234415E+02  0.13396516438E+03  0.15008363877E+03  0.00000000000E+00 0. -1.
         -5    1    3    3    0  503 -0.45636081024E+01 -0.17204179550E+02 -0.42833353832E+02  0.46621845882E+02  0.47000000000E+01 0.  1.
         13    1    4    4    0    0  0.13608598917E+01  0.31428273391E+02  0.86524689571E+01  0.32625964001E+02  0.00000000000E+00 0. -1.
        -14    1    4    4    0    0 -0.14066780243E+03  0.59989588641E+02  0.34849366383E+02  0.15684597452E+03  0.00000000000E+00 0.  1.
</event>
<event>
12    1  0.8633375E-002  0.2288719E+03  0.7818608E-02  0.1127510E+00
         21   -1    0    0  503  502  0.00000000000E+00  0.00000000000E+00  0.65253507313E+02  0.65253507313E+02  0.00000000000E+00 0. -1.
         21   -1    0    0  501  503 -0.00000000000E+00 -0.00000000000E+00 -0.80488337664E+03  0.80488337664E+03  0.00000000000E+00 0. -1.
          6    2    1    2  501    0  0.11351442468E+03  0.10019630117E+03 -0.39923581372E+03  0.46018644963E+03  0.17163190288E+03 0.  0.
         24    2    3    3    0    0  0.46488714101E+01  0.84963389818E+02 -0.24908789749E+03  0.27404070827E+03  0.76243947299E+02 0.  0.
         -6    2    1    2    0  502 -0.11351442468E+03 -0.10019630117E+03 -0.34039405560E+03  0.40995043432E+03  0.17107431757E+03 0.  0.
        -24    2    5    5    0    0  0.93343787012E+01 -0.50210188275E+02 -0.14205896513E+03  0.17130982988E+03  0.80982186983E+02 0.  0.
          5    1    3    3  501    0  0.10886555327E+03  0.15232911353E+02 -0.15014791624E+03  0.18614574136E+03  0.47000000000E+01 0. -1.
        -11    1    4    4    0    0  0.29694284191E+02  0.59406634800E+02 -0.21342870003E+03  0.22352339647E+03  0.00000000000E+00 0.  1.
         12    1    4    4    0    0 -0.25045412781E+02  0.25556755019E+02 -0.35659197455E+02  0.50517311801E+02  0.00000000000E+00 0. -1.
         -5    1    5    5    0  502 -0.12284880338E+03 -0.49986112897E+02 -0.19833509048E+03  0.23864060444E+03  0.47000000000E+01 0.  1.
         11    1    6    6    0    0 -0.20966346859E+02 -0.51422290098E+02 -0.12436524260E+03  0.13620041551E+03  0.00000000000E+00 0. -1.
        -12    1    6    6    0    0  0.30300725561E+02  0.12121018227E+01 -0.17693722530E+02  0.35109414368E+02  0.00000000000E+00 0.  1.
</event>
<event>
12    1  0.8633375E-002  0.2500191E+03  0.7818608E-02  0.1113537E+00
         21   -1    0    0  501  502  0.00000000000E+00  0.00000000000E+00  0.19379205537E+03  0.19379205537E+03  0.00000000000E+00 0. -1.
         21   -1    0    0  502  503 -0.00000000000E+00 -0.00000000000E+00 -0.41619637346E+03  0.41619637346E+03  0.00000000000E+00 0. -1.
         -6    2    1    2    0  503 -0.13193618346E+03  0.12312191204E+03 -0.25712849185E+03  0.35756950497E+03  0.17080611180E+03 0.  0.
        -24    2    3    3    0    0 -0.73230471330E+02  0.44320126877E+02 -0.48975255792E+02  0.12733931219E+03  0.80558979461E+02 0.  0.
          6    2    1    2  501    0  0.13193618346E+03 -0.12312191204E+03  0.34724173759E+02  0.25241892387E+03  0.17304156481E+03 0.  0.
         24    2    5    5    0    0  0.82047303308E+02 -0.82033883778E+02 -0.46642505190E+02  0.14840088277E+03  0.79912331024E+02 0.  0.
          5    1    5    5  501    0  0.49888880153E+02 -0.41088028267E+02  0.81366678949E+02  0.10401804109E+03  0.47000000000E+01 0. -1.
        -13    1    6    6    0    0 -0.15934409833E+02 -0.15255378553E+02 -0.41746391856E+01  0.22451271765E+02  0.00000000000E+00 0.  1.
         14    1    6    6    0    0  0.97981713142E+02 -0.66778505225E+02 -0.42467866004E+02  0.12594961101E+03  0.00000000000E+00 0. -1.
         -5    1    3    3    0  503 -0.58705712132E+02  0.78801785168E+02 -0.20815323606E+03  0.23023019278E+03  0.47000000000E+01 0.  1.
         13    1    4    4    0    0 -0.22103124993E+02  0.44198229098E+02 -0.57161034474E+02  0.75560673978E+02  0.00000000000E+00 0. -1.
        -14    1    4    4    0    0 -0.51127346337E+02  0.12189777872E+00  0.81857786821E+01  0.51778638213E+02  0.00000000000E+00 0.  1.
</event>
<event>
12    1  0.8633375E-002  0.1755213E+03  0.7818608E-02  0.1172636E+00
         21   -1    0    0  501  502  0.00000000000E+00  0.00000000000E+00  0.12658043153E+03  0.12658043153E+03  0.00000000000E+00 0. -1.
         21   -1    0    0  502  503 -0.00000000000E+00 -0.00000000000E+00 -0.63235676078E+03  0.63235676078E+03  0.00000000000E+00 0. -1.
         -6    2    1    2    0  503 -0.32400328783E+02  0.92405087257E+01 -0.55092958924E+03  0.57770100943E+03  0.17052822550E+03 0.  0.
        -24    2    3    3    0    0  0.93952885545E+01  0.23192164321E+02 -0.13998022103E+03  0.16436942879E+03  0.82442094276E+02 0.  0.
          6    2    1    2  501    0  0.32400328783E+02 -0.92405087257E+01  0.45153259988E+02  0.18123618288E+03  0.17225727500E+03 0.  0.
         24    2    5    5    0    0  0.31534612702E+01  0.33598316351E+02  0.79505425626E+02  0.11884463316E+03  0.81634202062E+02 0.  0.
          5    1    5    5  501    0  0.29246867513E+02 -0.42838825077E+02 -0.34352165639E+02  0.62391549727E+02  0.47000000000E+01 0. -1.
        -11    1    6    6    0    0 -0.14692290976E+02 -0.12933786772E+02 -0.54779548886E+01  0.20326196008E+02  0.00000000000E+00 0.  1.
         12    1    6    6    0    0  0.17845752246E+02  0.46532103123E+02  0.84983380515E+02  0.98518437148E+02  0.00000000000E+00 0. -1.
         -5    1    3    3    0  503 -0.41795617338E+02 -0.13951655596E+02 -0.41094936821E+03  0.41333158064E+03  0.47000000000E+01 0.  1.
         11    1    4    4    0    0  0.84776952740E+01 -0.63526419644E+01 -0.13373993960E+03  0.13415885667E+03  0.00000000000E+00 0. -1.
        -12    1    4    4    0    0  0.91759328056E+00  0.29544806286E+02 -0.62402814291E+01  0.30210572126E+02  0.00000000000E+00 0.  1.
</event>
<event>
12    1  0.8633375E-002  0.2401461E+03  0.7818608E-02  0.1119757E+00
         21   -1    0    0  501  502  0.00000000000E+00  0.00000000000E+00  0.25047926111E+03  0.25047926111E+03  0.00000000000E+00 0. -1.
         21   -1    0    0  502  503 -0.00000000000E+00 -0.00000000000E+00 -0.49763230070E+03  0.49763230070E+03  0.00000000000E+00 0.  1.
         -6    2    1    2    0  503 -0.57597667011E+02 -0.15632250702E+03 -0.39799434975E+03  0.46483295060E+03  0.17296228516E+03 0.  0.
        -24    2    3    3    0    0  0.29420584983E+02 -0.64571362110E+02 -0.10294370268E+03  0.14379179575E+03  0.71018610082E+02 0.  0.
          6    2    1    2  501    0  0.57597667011E+02  0.15632250702E+03  0.15084131017E+03  0.28327861121E+03  0.17245130695E+03 0.  0.
         24    2    5    5    0    0  0.54977166802E+02  0.39943652939E+02  0.12425847306E+03  0.16378115548E+03  0.82256394772E+02 0.  0.
          5    1    5    5  501    0  0.26205002090E+01  0.11637885408E+03  0.26582837105E+02  0.11949745573E+03  0.47000000000E+01 0. -1.
        -13    1    6    6    0    0  0.40228789580E+02  0.16176580935E+01  0.87653517117E+01  0.41204413834E+02  0.00000000000E+00 0.  1.
         14    1    6    6    0    0  0.14748377222E+02  0.38325994845E+02  0.11549312135E+03  0.12257674164E+03  0.00000000000E+00 0. -1.
         -5    1    3    3    0  503 -0.87018251995E+02 -0.91751144906E+02 -0.29505064707E+03  0.32104115486E+03  0.47000000000E+01 0.  1.
         11    1    4    4    0    0  0.10973027830E+02  0.11110217919E+02 -0.12132594154E+01  0.15662575790E+02  0.00000000000E+00 0. -1.
        -12    1    4    4    0    0  0.18447557153E+02 -0.75681580029E+02 -0.10173044326E+03  0.12812921996E+03  0.00000000000E+00 0.  1.
</event>
<event>
12    1  0.8633375E-002  0.4639023E+03  0.7818608E-02  0.1023679E+00
         21   -1    0    0  503  502  0.00000000000E+00  0.00000000000E+00  0.43491811296E+03  0.43491811296E+03  0.00000000000E+00 0.  1.
         21   -1    0    0  501  503 -0.00000000000E+00 -0.00000000000E+00 -0.54786235318E+03  0.54786235318E+03  0.00000000000E+00 0. -1.
          6    2    1    2  501    0 -0.39504082601E+03  0.16806589683E+03 -0.20986261255E+03  0.50886217886E+03  0.17491426768E+03 0.  0.
         24    2    3    3    0    0 -0.33551332939E+03  0.18822629093E+03 -0.14583531879E+03  0.41902038074E+03  0.79446890877E+02 0.  0.
         -6    2    1    2    0  502  0.39504082601E+03 -0.16806589683E+03  0.96918372334E+02  0.47391828729E+03  0.17578956806E+03 0.  0.
        -24    2    5    5    0    0  0.25016274201E+03 -0.81898634789E+02  0.12580986816E+03  0.30282981661E+03  0.81172600224E+02 0.  0.
          5    1    3    3  501    0 -0.59527496621E+02 -0.20160394105E+02 -0.64027293759E+02  0.89841798126E+02  0.47000000000E+01 0. -1.
        -11    1    4    4    0    0 -0.81685995316E+02  0.91912147582E+01 -0.29537371501E+02  0.87347218471E+02  0.00000000000E+00 0.  1.
         12    1    4    4    0    0 -0.25382733407E+03  0.17903507617E+03 -0.11629794729E+03  0.33167316227E+03  0.00000000000E+00 0. -1.
         -5    1    5    5    0  502  0.14487808400E+03 -0.86167262037E+02 -0.28891495824E+02  0.17108847068E+03  0.47000000000E+01 0.  1.
         13    1    6    6    0    0  0.22828660962E+02  0.86132821889E+01  0.33197951181E+02  0.41200004296E+02  0.00000000000E+00 0. -1.
        -14    1    6    6    0    0  0.22733408105E+03 -0.90511916978E+02  0.92611916976E+02  0.26162981231E+03  0.00000000000E+00 0.  1.
</event>
<event>
12    1  0.8633375E-002  0.2170332E+03  0.7818608E-02  0.1136116E+00
         21   -1    0    0  503  502  0.00000000000E+00  0.00000000000E+00  0.12696602811E+03  0.12696602811E+03  0.00000000000E+00 0.  1.
         21   -1    0    0  501  503 -0.00000000000E+00 -0.00000000000E+00 -0.49852171229E+03  0.49852171229E+03  0.00000000000E+00 0.  1.
          6    2    1    2  501    0  0.10639204700E+03  0.70412863426E+02 -0.34397177948E+03  0.40671854855E+03  0.17557378409E+03 0.  0.
         24    2    3    3    0    0  0.89378240147E+02 -0.13473706684E+02 -0.26068984904E+03  0.28720120167E+03  0.79720275117E+02 0.  0.
         -6    2    1    2    0  502 -0.10639204700E+03 -0.70412863426E+02 -0.27583904701E+02  0.21876919184E+03  0.17556152340E+03 0.  0.
        -24    2    5    5    0    0 -0.10162360316E+03 -0.91875038216E+01  0.27947244034E+02  0.13584102295E+03  0.85205446551E+02 0.  0.
          5    1    3    3  501    0  0.17013806856E+02  0.83886570109E+02 -0.83281930440E+02  0.11951734688E+03  0.47000000000E+01 0. -1.
        -11    1    4    4    0    0 -0.36709551371E+01  0.20922659472E+02 -0.42201768136E+02  0.47246405417E+02  0.00000000000E+00 0.  1.
         12    1    4    4    0    0  0.93049195284E+02 -0.34396366156E+02 -0.21848808090E+03  0.23995479625E+03  0.00000000000E+00 0. -1.
         -5    1    5    5    0  502 -0.47684438438E+01 -0.61225359604E+02 -0.55531148735E+02  0.82928168888E+02  0.47000000000E+01 0.  1.
         11    1    6    6    0    0 -0.22862791665E+02  0.35433568732E+02  0.50731292240E+01  0.42473305450E+02  0.00000000000E+00 0. -1.
        -12    1    6    6    0    0 -0.78760811494E+02 -0.44621072553E+02  0.22874114810E+02  0.93367717501E+02  0.00000000000E+00 0.  1.
</event>
<event>
12    1  0.8633375E-002  0.1735937E+03  0.7818608E-02  0.1174158E+00
         21   -1    0    0  501  502  0.00000000000E+00  0.00000000000E+00  0.25627721500E+03  0.25627721500E+03  0.00000000000E+00 0. -1.
         21   -1    0    0  502  503 -0.00000000000E+00 -0.00000000000E+00 -0.12900883360E+03  0.12900883360E+03  0.00000000000E+00 0. -1.
         -6    2    1    2    0  503 -0.45444774702E+01 -0.51785914825E+01  0.62729622899E+01  0.17370699644E+03  0.17345691243E+03 0.  0.
        -24    2    3    3    0    0 -0.45960555495E+02  0.40380733646E+01  0.53840092910E+02  0.10979330193E+03  0.83828007531E+02 0.  0.
          6    2    1    2  501    0  0.45444774702E+01  0.51785914825E+01  0.12099541911E+03  0.21157905216E+03  0.17343106349E+03 0.  0.
         24    2    5    5    0    0  0.20047243524E+01 -0.13960480269E+02 -0.91522685419E+01  0.79923193905E+02  0.78134748835E+02 0.  0.
          5    1    5    5  501    0  0.25397531178E+01  0.19139071752E+02  0.13014768765E+03  0.13165585826E+03  0.47000000000E+01 0. -1.
        -13    1    6    6    0    0 -0.35506304474E+02  0.34198904570E+01  0.54369065384E+01  0.36082589442E+02  0.00000000000E+00 0.  1.
         14    1    6    6    0    0  0.37511028826E+02 -0.17380370726E+02 -0.14589175080E+02  0.43840604463E+02  0.00000000000E+00 0. -1.
         -5    1    3    3    0  503  0.41416078025E+02 -0.92166648471E+01 -0.47567130620E+02  0.63913694505E+02  0.47000000000E+01 0.  1.
         13    1    4    4    0    0 -0.42668289735E+02 -0.26206640662E+01 -0.11311263495E+02  0.44219854262E+02  0.00000000000E+00 0. -1.
        -14    1    4    4    0    0 -0.32922657601E+01  0.66587374308E+01  0.65151356405E+02  0.65573447670E+02  0.00000000000E+00 0.  1.
</event>
<event>
12    1  0.8633375E-002  0.2401113E+03  0.7818608E-02  0.1119864E+00
         21   -1    0    0  503  502  0.00000000000E+00  0.00000000000E+00  0.44119320266E+02  0.44119320266E+02  0.00000000000E+00 0. -1.
         21   -1    0    0  501  503 -0.00000000000E+00 -0.00000000000E+00 -0.16492473418E+04  0.16492473418E+04  0.00000000000E+00 0. -1.
          6    2    1    2  501    0  0.14361413079E+03 -0.87184355319E+02 -0.11899080325E+04  0.12137198242E+04  0.17031898151E+03 0.  0.
         24    2    3    3    0    0  0.12650004170E+03 -0.12650329184E+03 -0.94319287154E+03  0.96326158124E+03  0.79086898929E+02 0.  0.
         -6    2    1    2    0  502 -0.14361413079E+03  0.87184355319E+02 -0.41521998906E+03  0.47964683790E+03  0.17154392853E+03 0.  0.
        -24    2    5    5    0    0 -0.88616840843E+02  0.85657520472E+02 -0.15554908274E+03  0.21416971512E+03  0.80517044408E+02 0.  0.
          5    1    3    3  501    0  0.17114089087E+02  0.39318936523E+02 -0.24671516093E+03  0.25045824292E+03  0.47000000000E+01 0. -1.
        -13    1    4    4    0    0  0.43052599417E+02  0.60446216671E-02 -0.25174634722E+03  0.25540115444E+03  0.00000000000E+00 0.  1.
         14    1    4    4    0    0  0.83447442284E+02 -0.12650933646E+03 -0.69144652432E+03  0.70786042680E+03  0.00000000000E+00 0. -1.
         -5    1    5    5    0  502 -0.54997289944E+02  0.15268348463E+01 -0.25967090633E+03  0.26547712278E+03  0.47000000000E+01 0.  1.
         11    1    6    6    0    0 -0.84589618015E+02  0.89366399917E+02 -0.16342892007E+03  0.20457460455E+03  0.00000000000E+00 0. -1.
        -12    1    6    6    0    0 -0.40272228283E+01 -0.37088794444E+01  0.78798373363E+01  0.95951105720E+01  0.00000000000E+00 0.  1.
</event>
<event>
12    1  0.8633375E-002  0.1906200E+03  0.7818608E-02  0.1157949E+00
         21   -1    0    0  501  502  0.00000000000E+00  0.00000000000E+00  0.11890164225E+03  0.11890164225E+03  0.00000000000E+00 0. -1.
         21   -1    0    0  502  503 -0.00000000000E+00 -0.00000000000E+00 -0.30950111731E+03  0.30950111731E+03  0.00000000000E+00 0. -1.
         -6    2    1    2    0  503 -0.44312325484E+02 -0.68542157055E+02 -0.12028155162E+03  0.22522650225E+03  0.17203986797E+03 0.  0.
        -24    2    3    3    0    0  0.96101981261E+01  0.16902401548E+02 -0.24357563380E+02  0.85828106755E+02  0.79969531255E+02 0.  0.
          6    2    1    2  501    0  0.44312325484E+02  0.68542157055E+02 -0.70317923443E+02  0.20317625732E+03  0.17226250810E+03 0.  0.
         24    2    5    5    0    0  0.63002670039E+02 -0.68498939756E+01 -0.67811298956E+02  0.12531957164E+03  0.84204306844E+02 0.  0.
          5    1    5    5  501    0 -0.18690344554E+02  0.75392051030E+02 -0.25066244867E+01  0.77856685676E+02  0.47000000000E+01 0. -1.
        -11    1    6    6    0    0  0.68461234058E+02  0.36598913506E+01 -0.13683276195E+02  0.69911139462E+02  0.00000000000E+00 0.  1.
         12    1    6    6    0    0 -0.54585640192E+01 -0.10509785326E+02 -0.54128022761E+02  0.55408432181E+02  0.00000000000E+00 0. -1.
         -5    1    3    3    0  503 -0.53922523611E+02 -0.85444558603E+02 -0.95923988235E+02  0.13939839549E+03  0.47000000000E+01 0.  1.
         13    1    4    4    0    0  0.28181152610E+02 -0.18728572099E+02 -0.30040720698E+02  0.45248001894E+02  0.00000000000E+00 0. -1.
        -14    1    4    4    0    0 -0.18570954484E+02  0.35630973647E+02  0.56831573182E+01  0.40580104861E+02  0.00000000000E+00 0.  1.
</event>
<event>
12    1  0.8633375E-002  0.1853110E+03  0.7818608E-02  0.1163403E+00
         21   -1    0    0  501  502  0.00000000000E+00  0.00000000000E+00  0.35671006810E+03  0.35671006810E+03  0.00000000000E+00 0. -1.
         21   -1    0    0  502  503 -0.00000000000E+00 -0.00000000000E+00 -0.28023140967E+03  0.28023140967E+03  0.00000000000E+00 0. -1.
         -6    2    1    2    0  503  0.43281725772E+02 -0.48923280648E+02 -0.22088101586E+03  0.28656603100E+03  0.17048422736E+03 0.  0.
        -24    2    3    3    0    0  0.60887293776E+02 -0.86819648012E+02 -0.19865859355E+03  0.23900536723E+03  0.80083799550E+02 0.  0.
          6    2    1    2  501    0 -0.43281725772E+02  0.48923280648E+02  0.29735967430E+03  0.35037544678E+03  0.17341678878E+03 0.  0.
         24    2    5    5    0    0 -0.32996766910E+01 -0.72624245336E+01  0.25445830185E+02  0.69814176579E+02  0.64520526201E+02 0.  0.
          5    1    5    5  501    0 -0.39982049081E+02  0.56185705181E+02  0.27191384411E+03  0.28056127020E+03  0.47000000000E+01 0. -1.
        -13    1    6    6    0    0 -0.19159296654E+02  0.13057241035E+02 -0.10605358789E+02  0.25495957068E+02  0.00000000000E+00 0.  1.
         14    1    6    6    0    0  0.15859619963E+02 -0.20319665569E+02  0.36051188974E+02  0.44318219511E+02  0.00000000000E+00 0. -1.
         -5    1    3    3    0  503 -0.17605568004E+02  0.37896367364E+02 -0.22222422309E+02  0.47560663761E+02  0.47000000000E+01 0.  1.
         11    1    4    4    0    0  0.58829399059E+01 -0.16443645456E+02 -0.11599623150E+03  0.11730357275E+03  0.00000000000E+00 0. -1.
        -12    1    4    4    0    0  0.55004353870E+02 -0.70376002556E+02 -0.82662362051E+02  0.12170179448E+03  0.00000000000E+00 0.  1.
</event>
<event>
12    1  0.8633375E-002  0.1737521E+03  0.7818608E-02  0.1174293E+00
         21   -1    0    0  503  502  0.00000000000E+00  0.00000000000E+00  0.11473391021E+03  0.11473391021E+03  0.00000000000E+00 0.  1.
         21   -1    0    0  501  503 -0.00000000000E+00 -0.00000000000E+00 -0.27312936747E+03  0.27312936747E+03  0.00000000000E+00 0.  1.
          6    2    1    2  501    0  0.44213547007E+01  0.28541233922E+02 -0.11924624417E+03  0.20975526533E+03  0.17012775839E+03 0.  0.
         24    2    3    3    0    0  0.30315219900E+02  0.38944673571E+01 -0.14307059745E+03  0.16653900489E+03  0.79573015924E+02 0.  0.
         -6    2    1    2    0  502 -0.44213547007E+01 -0.28541233922E+02 -0.39149213088E+02  0.17810801235E+03  0.17133491403E+03 0.  0.
        -24    2    5    5    0    0  0.23354885911E+02  0.40118123612E+02 -0.54461041155E+01  0.96599629501E+02  0.84539421760E+02 0.  0.
          5    1    3    3  501    0 -0.25893865199E+02  0.24646766565E+02  0.23824353279E+02  0.43216260438E+02  0.47000000000E+01 0. -1.
        -13    1    4    4    0    0  0.91451733428E+01  0.33116831590E+02 -0.23455617249E+02  0.41599575846E+02  0.00000000000E+00 0.  1.
         14    1    4    4    0    0  0.21170046557E+02 -0.29222364233E+02 -0.11961498020E+03  0.12493942905E+03  0.00000000000E+00 0. -1.
         -5    1    5    5    0  502 -0.27776240611E+02 -0.68659357535E+02 -0.33703108973E+02  0.81508382845E+02  0.47000000000E+01 0.  1.
         13    1    6    6    0    0 -0.14766215844E+02 -0.80853825193E+01 -0.26707018551E+02  0.31570229342E+02  0.00000000000E+00 0. -1.
        -14    1    6    6    0    0  0.38121101754E+02  0.48203506132E+02  0.21260914436E+02  0.65029400159E+02  0.00000000000E+00 0.  1.
</event>
<event>
12    1  0.8633375E-002  0.2311578E+03  0.7818608E-02  0.1125860E+00
         21   -1    0    0  501  502  0.00000000000E+00  0.00000000000E+00  0.26861402180E+03  0.26861402180E+03  0.00000000000E+00 0. -1.
         21   -1    0    0  502  503 -0.00000000000E+00 -0.00000000000E+00 -0.21069035396E+03  0.21069035396E+03  0.00000000000E+00 0.  1.
         -6    2    1    2    0  503  0.89302796044E+02  0.12547267582E+03 -0.28068176886E+02  0.23266997139E+03  0.17213108747E+03 0.  0.
        -24    2    3    3    0    0  0.10750033165E+03  0.62585682662E+02  0.26672008383E+02  0.14720359148E+03  0.74055467958E+02 0.  0.
          6    2    1    2  501    0 -0.89302796044E+02 -0.12547267582E+03  0.85991844726E+02  0.24663440437E+03  0.17238198949E+03 0.  0.
         24    2    5    5    0    0  0.44956940295E+01 -0.12655298685E+02  0.43530992493E+02  0.93824289207E+02  0.82022448684E+02 0.  0.
          5    1    5    5  501    0 -0.93798490074E+02 -0.11281737714E+03  0.42460852233E+02  0.15281011516E+03  0.47000000000E+01 0. -1.
        -11    1    6    6    0    0  0.13531791252E+02 -0.18635360681E+02 -0.19310994365E+02  0.30054958752E+02  0.00000000000E+00 0.  1.
         12    1    6    6    0    0 -0.90360972220E+01  0.59800619953E+01  0.62841986858E+02  0.63769330455E+02  0.00000000000E+00 0. -1.
         -5    1    3    3    0  503 -0.18197535608E+02  0.62886993160E+02 -0.54740185269E+02  0.85466379905E+02  0.47000000000E+01 0.  1.
         11    1    4    4    0    0  0.89208571579E+02  0.53881679540E+02  0.50600053738E+02  0.11585236325E+03  0.00000000000E+00 0. -1.
        -12    1    4    4    0    0  0.18291760073E+02  0.87040031220E+01 -0.23928045355E+02  0.31351228228E+02  0.00000000000E+00 0.  1.
</event>
<event>
12    1  0.8633375E-002  0.2537884E+03  0.7818608E-02  0.1111101E+00
         21   -1    0    0  501  502  0.00000000000E+00  0.00000000000E+00  0.23904333603E+03  0.23904333603E+03  0.00000000000E+00 0.  1.
         21   -1    0    0  502  503 -0.00000000000E+00 -0.00000000000E+00 -0.26904671663E+03  0.26904671663E+03  0.00000000000E+00 0. -1.
         -6    2    1    2    0  503 -0.46841507349E+02  0.17986145255E+03 -0.28357584701E+02  0.25429630446E+03  0.17122554988E+03 0.  0.
        -24    2    3    3    0    0  0.21192268735E+02  0.36850541319E+02 -0.32651642083E+02  0.95799476903E+02  0.79399845053E+02 0.  0.
          6    2    1    2  501    0  0.46841507349E+02 -0.17986145255E+03 -0.16457959030E+01  0.25379374819E+03  0.17281287295E+03 0.  0.
         24    2    5    5    0    0 -0.11768034128E+02 -0.16536963297E+03  0.21675248558E+02  0.18890112688E+03  0.87910279266E+02 0.  0.
          5    1    5    5  501    0  0.58609541476E+02 -0.14491819580E+02 -0.23321044461E+02  0.64892621318E+02  0.47000000000E+01 0. -1.
        -13    1    6    6    0    0 -0.24967611129E+02 -0.87472982023E+02 -0.28477767003E+02  0.95319921333E+02  0.00000000000E+00 0.  1.
         14    1    6    6    0    0  0.13199577001E+02 -0.77896650943E+02  0.50153015561E+02  0.93581205544E+02  0.00000000000E+00 0. -1.
         -5    1    3    3    0  503 -0.68033776083E+02  0.14301091123E+03  0.42940573820E+01  0.15849682756E+03  0.47000000000E+01 0.  1.
         13    1    4    4    0    0  0.14758123354E+02  0.12136213538E+02  0.25746162978E+02  0.32061734078E+02  0.00000000000E+00 0. -1.
        -14    1    4    4    0    0  0.64341453806E+01  0.24714327781E+02 -0.58397805061E+02  0.63737742825E+02  0.00000000000E+00 0.  1.
</event>
<event>
12    1  0.8633375E-002  0.2377537E+03  0.7818608E-02  0.1121622E+00
         21   -1    0    0  501  502  0.00000000000E+00  0.00000000000E+00  0.79482771284E+02  0.79482771284E+02  0.00000000000E+00 0. -1.
         21   -1    0    0  502  503 -0.00000000000E+00 -0.00000000000E+00 -0.99305145238E+03  0.99305145238E+03  0.00000000000E+00 0. -1.
         -6    2    1    2    0  503  0.16075892637E+03  0.25191596610E+02 -0.74405504839E+03  0.78053816314E+03  0.17071572901E+03 0.  0.
        -24    2    3    3    0    0  0.81785670368E+02 -0.24595192936E+02 -0.58091249642E+03  0.59251401086E+03  0.79496573345E+02 0.  0.
          6    2    1    2  501    0 -0.16075892637E+03 -0.25191596610E+02 -0.16951363270E+03  0.29199606052E+03  0.17334583566E+03 0.  0.
         24    2    5    5    0    0 -0.12122086908E+03 -0.22426555739E+02 -0.19541821931E+03  0.24441412033E+03  0.79702774580E+02 0.  0.
          5    1    5    5  501    0 -0.39538057287E+02 -0.27650408709E+01  0.25904586606E+02  0.47581940190E+02  0.47000000000E+01 0. -1.
        -11    1    6    6    0    0 -0.93545765957E+02  0.20152638670E+02 -0.11980427334E+03  0.15332972016E+03  0.00000000000E+00 0.  1.
         12    1    6    6    0    0 -0.27675103128E+02 -0.42579194410E+02 -0.75613945963E+02  0.91084400167E+02  0.00000000000E+00 0. -1.
         -5    1    3    3    0  503  0.78973256004E+02  0.49786789547E+02 -0.16314255197E+03  0.18802415228E+03  0.47000000000E+01 0.  1.
         13    1    4    4    0    0 -0.52400110223E+01  0.89263763753E+01 -0.20303567373E+03  0.20329934264E+03  0.00000000000E+00 0. -1.
        -14    1    4    4    0    0  0.87025681390E+02 -0.33521569312E+02 -0.37787682269E+03  0.38921466822E+03  0.00000000000E+00 0.  1.
</event>
<event>
12    1  0.8633375E-002  0.1918678E+03  0.7818608E-02  0.1158984E+00
         21   -1    0    0  501  502  0.00000000000E+00  0.00000000000E+00  0.20666028655E+02  0.20666028655E+02  0.00000000000E+00 0. -1.
         21   -1    0    0  502  503 -0.00000000000E+00 -0.00000000000E+00 -0.17274958183E+04  0.17274958183E+04  0.00000000000E+00 0. -1.
         -6    2    1    2    0  503 -0.57134526886E+02 -0.26728800839E+02 -0.99775134858E+03  0.10160319964E+04  0.18120287274E+03 0.  0.
        -24    2    3    3    0    0 -0.38300601706E+02 -0.50976839784E+01 -0.21023121671E+03  0.22797573565E+03  0.79264425138E+02 0.  0.
          6    2    1    2  501    0  0.57134526886E+02  0.26728800839E+02 -0.70907844105E+03  0.73212985057E+03  0.17100613902E+03 0.  0.
         24    2    5    5    0    0  0.13162986269E+02 -0.24374988319E+02 -0.58305729882E+03  0.58913155709E+03  0.79704288395E+02 0.  0.
          5    1    5    5  501    0  0.43971540617E+02  0.51103789158E+02 -0.12602114223E+03  0.14299829349E+03  0.47000000000E+01 0. -1.
        -11    1    6    6    0    0  0.36623350750E+01  0.99773380215E+01 -0.88817234192E+01  0.13850811640E+02  0.00000000000E+00 0.  1.
         12    1    6    6    0    0  0.95006511939E+01 -0.34352326340E+02 -0.57417557540E+03  0.57528074545E+03  0.00000000000E+00 0. -1.
         -5    1    3    3    0  503 -0.18833925180E+02 -0.21631116861E+02 -0.78752013187E+03  0.78805626072E+03  0.47000000000E+01 0.  1.
         11    1    4    4    0    0 -0.23955524154E+02 -0.38374921407E+02 -0.15839856596E+03  0.16473192595E+03  0.00000000000E+00 0. -1.
        -12    1    4    4    0    0 -0.14345077552E+02  0.33277237429E+02 -0.51832650747E+02  0.63243809692E+02  0.00000000000E+00 0.  1.
</event>
<event>
12    1  0.8633375E-002  0.2182096E+03  0.7818608E-02  0.1135570E+00
         21   -1    0    0  501  502  0.00000000000E+00  0.00000000000E+00  0.17842541156E+03  0.17842541156E+03  0.00000000000E+00 0. -1.
         21   -1    0    0  502  503 -0.00000000000E+00 -0.00000000000E+00 -0.34622246791E+03  0.34622246791E+03  0.00000000000E+00 0. -1.
         -6    2    1    2    0  503 -0.21001713250E+02 -0.13219544550E+03 -0.21150563634E+03  0.30389152075E+03  0.17233314947E+03 0.  0.
        -24    2    3    3    0    0 -0.37081263627E+02 -0.58936853245E+02 -0.34477182392E+02  0.11157267927E+03  0.80070056018E+02 0.  0.
          6    2    1    2  501    0  0.21001713250E+02  0.13219544550E+03  0.43708579985E+02  0.22075635873E+03  0.17001829956E+03 0.  0.
         24    2    5    5    0    0 -0.21405607207E+02  0.73950184948E+02  0.81981112022E+02  0.13903874793E+03  0.81755983421E+02 0.  0.
          5    1    5    5  501    0  0.42407320457E+02  0.58245260549E+02 -0.38272532038E+02  0.81717610790E+02  0.47000000000E+01 0. -1.
        -11    1    6    6    0    0 -0.21027099403E+02  0.75034624959E+02  0.24699960662E+02  0.81746081916E+02  0.00000000000E+00 0.  1.
         12    1    6    6    0    0 -0.37850780341E+00 -0.10844400102E+01  0.57281151361E+02  0.57292666018E+02  0.00000000000E+00 0. -1.
         -5    1    3    3    0  503  0.16079550377E+02 -0.73258592252E+02 -0.17702845395E+03  0.19231884148E+03  0.47000000000E+01 0.  1.
         13    1    4    4    0    0 -0.41689484566E+02 -0.78546156083E+01 -0.42044086109E+02  0.59727826735E+02  0.00000000000E+00 0. -1.
        -14    1    4    4    0    0  0.46082209398E+01 -0.51082237637E+02  0.75669037176E+01  0.51844852532E+02  0.00000000000E+00 0.  1.
</event>
<event>
12    1  0.8633375E-002  0.1916770E+03  0.7818608E-02  0.1157289E+00
         21   -1    0    0  501  502  0.00000000000E+00  0.00000000000E+00  0.77916382042E+03  0.77916382042E+03  0.00000000000E+00 0.  1.
         21   -1    0    0  502  503 -0.00000000000E+00 -0.00000000000E+00 -0.46831772798E+02  0.46831772798E+02  0.00000000000E+00 0.  1.
         -6    2    1    2    0  503 -0.82119607691E+02  0.13337970306E+02  0.35226829960E+03  0.40033314782E+03  0.17103257854E+03 0.  0.
        -24    2    3    3    0    0 -0.41982353320E+01  0.51882456560E+02  0.24053719205E+03  0.25868799935E+03  0.79698969687E+02 0.  0.
          6    2    1    2  501    0  0.82119607691E+02 -0.13337970306E+02  0.38006374802E+03  0.42566244540E+03  0.17268043735E+03 0.  0.
         24    2    5    5    0    0  0.64983684498E+02 -0.73050114958E+02  0.29014586443E+03  0.31627096551E+03  0.79268546301E+02 0.  0.
          5    1    5    5  501    0  0.17135923194E+02  0.59712144652E+02  0.89917883596E+02  0.10939147989E+03  0.47000000000E+01 0. -1.
        -11    1    6    6    0    0  0.63100777884E+02 -0.11872474997E+02  0.16192340313E+03  0.17418912800E+03  0.00000000000E+00 0.  1.
         12    1    6    6    0    0  0.18829066134E+01 -0.61177639961E+02  0.12822246130E+03  0.14208183751E+03  0.00000000000E+00 0. -1.
         -5    1    3    3    0  503 -0.77921372359E+02 -0.38544486255E+02  0.11173110755E+03  0.14164514847E+03  0.47000000000E+01 0.  1.
         13    1    4    4    0    0  0.41287054973E+01  0.71252034347E+02  0.20811896302E+03  0.22001682067E+03  0.00000000000E+00 0. -1.
        -14    1    4    4    0    0 -0.83269408293E+01 -0.19369577787E+02  0.32418229026E+02  0.38671178679E+02  0.00000000000E+00 0.  1.
</event>
<event>
12    1  0.8633375E-002  0.2345212E+03  0.7818608E-02  0.1123574E+00
         21   -1    0    0  503  502  0.00000000000E+00  0.00000000000E+00  0.37701567987E+02  0.37701567987E+02  0.00000000000E+00 0. -1.
         21   -1    0    0  501  503 -0.00000000000E+00 -0.00000000000E+00 -0.17031265896E+04  0.17031265896E+04  0.00000000000E+00 0.  1.
          6    2    1    2  501    0 -0.99160089988E+02 -0.12216688160E+03 -0.11649113834E+04  0.11882839317E+04  0.17390428658E+03 0.  0.
         24    2    3    3    0    0 -0.10434132922E+03 -0.15157678406E+03 -0.10709667035E+04  0.10895951255E+04  0.79907590524E+02 0.  0.
         -6    2    1    2    0  502  0.99160089988E+02  0.12216688160E+03 -0.50051363819E+03  0.55254422581E+03  0.17330247849E+03 0.  0.
        -24    2    5    5    0    0  0.92276849435E+02  0.98641669992E+02 -0.20483808960E+03  0.25581718859E+03  0.72378139145E+02 0.  0.
          5    1    3    3  501    0  0.51812392361E+01  0.29409902451E+02 -0.93944679895E+02  0.98688806269E+02  0.47000000000E+01 0. -1.
        -13    1    4    4    0    0 -0.12544756511E+02  0.90873519099E+01 -0.91801834553E+02  0.93099558044E+02  0.00000000000E+00 0.  1.
         14    1    4    4    0    0 -0.91796572713E+02 -0.16066413597E+03 -0.97916486894E+03  0.99649556743E+03  0.00000000000E+00 0. -1.
         -5    1    5    5    0  502  0.68832405534E+01  0.23525211613E+02 -0.29567554859E+03  0.29672703722E+03  0.47000000000E+01 0.  1.
         11    1    6    6    0    0  0.33823677040E+02  0.86860293196E+02 -0.13384106515E+03  0.16310175469E+03  0.00000000000E+00 0. -1.
        -12    1    6    6    0    0  0.58453172395E+02  0.11781376796E+02 -0.70997024450E+02  0.92715433899E+02  0.00000000000E+00 0.  1.
</event>
<event>
12    1  0.8633375E-002  0.1896778E+03  0.7818608E-02  0.1159296E+00
         21   -1    0    0  501  502  0.00000000000E+00  0.00000000000E+00  0.24806041434E+03  0.24806041434E+03  0.00000000000E+00 0. -1.
         21   -1    0    0  502  503 -0.00000000000E+00 -0.00000000000E+00 -0.15380314786E+03  0.15380314786E+03  0.00000000000E+00 0.  1.
         -6    2    1    2    0  503  0.68369024570E+02 -0.32787435300E+02 -0.53149007322E+01  0.18975220490E+03  0.17386291054E+03 0.  0.
        -24    2    3    3    0    0  0.97856035372E+02 -0.28781239846E+02  0.37712619576E+02  0.13722610746E+03  0.83693485220E+02 0.  0.
          6    2    1    2  501    0 -0.68369024570E+02  0.32787435300E+02  0.99572167210E+02  0.21211135730E+03  0.17125207145E+03 0.  0.
         24    2    5    5    0    0 -0.89792915544E+02  0.73352398526E+02  0.79852272308E+02  0.16195695967E+03  0.80064532362E+02 0.  0.
          5    1    5    5  501    0  0.21423890974E+02 -0.40564963226E+02  0.19719894902E+02  0.50154397623E+02  0.47000000000E+01 0. -1.
        -11    1    6    6    0    0 -0.55669371342E+02  0.68617707981E+02  0.89917804050E+02  0.12606617405E+03  0.00000000000E+00 0.  1.
         12    1    6    6    0    0 -0.34123544202E+02  0.47346905448E+01 -0.10065531742E+02  0.35890785624E+02  0.00000000000E+00 0. -1.
         -5    1    3    3    0  503 -0.29487010802E+02 -0.40061954537E+01 -0.43027520308E+02  0.52526097436E+02  0.47000000000E+01 0.  1.
         11    1    4    4    0    0  0.16635996939E+02 -0.96461191973E+01  0.49359767422E+02  0.52973490066E+02  0.00000000000E+00 0. -1.
        -12    1    4    4    0    0  0.81220038432E+02 -0.19135120649E+02 -0.11647147847E+02  0.84252617397E+02  0.00000000000E+00 0.  1.
</event>
<event>
12    1  0.8633375E-002  0.2496205E+03  0.7818608E-02  0.1113812E+00
         21   -1    0    0  501  502  0.00000000000E+00  0.00000000000E+00  0.29577384035E+03  0.29577384035E+03  0.00000000000E+00 0. -1.
         21   -1    0    0  502  503 -0.00000000000E+00 -0.00000000000E+00 -0.33081083374E+03  0.33081083374E+03  0.00000000000E+00 0. -1.
         -6    2    1    2    0  503 -0.34471313339E+02  0.17022216080E+03 -0.20746887313E+03  0.32458235824E+03  0.17929450212E+03 0.  0.
        -24    2    3    3    0    0 -0.35533323074E+02  0.20058996839E+03 -0.18792152150E+03  0.28814720271E+03  0.78837552734E+02 0.  0.
          6    2    1    2  501    0  0.34471313339E+02 -0.17022216080E+03  0.17243187974E+03  0.30200231585E+03  0.17694290084E+03 0.  0.
         24    2    5    5    0    0  0.86838766465E+02 -0.15130081188E+03  0.13288280573E+03  0.23354366522E+03  0.80323698038E+02 0.  0.
          5    1    5    5  501    0 -0.52367453126E+02 -0.18921348916E+02  0.39549074011E+02  0.68458650636E+02  0.47000000000E+01 0. -1.
        -13    1    6    6    0    0  0.15381295072E+02  0.29760577481E+01 -0.29285773395E+01  0.15937933462E+02  0.00000000000E+00 0.  1.
         14    1    6    6    0    0  0.71457471393E+02 -0.15427686963E+03  0.13581138307E+03  0.21760573175E+03  0.00000000000E+00 0. -1.
         -5    1    3    3    0  503  0.10620097350E+01 -0.30367807589E+02 -0.19547351631E+02  0.36435155526E+02  0.47000000000E+01 0.  1.
         11    1    4    4    0    0  0.21390423274E+02  0.79589759207E+02 -0.51851006731E+02  0.97368408006E+02  0.00000000000E+00 0. -1.
        -12    1    4    4    0    0 -0.56923746348E+02  0.12100020918E+03 -0.13607051477E+03  0.19077879471E+03  0.00000000000E+00 0.  1.
</event>
<event>
12    1  0.8633375E-002  0.1936044E+03  0.7818608E-02  0.1155456E+00
         21   -1    0    0  501  502  0.00000000000E+00  0.00000000000E+00  0.10692786439E+04  0.10692786439E+04  0.00000000000E+00 0.  1.
         21   -1    0    0  502  503 -0.00000000000E+00 -0.00000000000E+00 -0.42021065707E+02  0.42021065707E+02  0.00000000000E+00 0.  1.
         -6    2    1    2    0  503 -0.83665518679E+02 -0.25089400033E+02  0.28568706561E+03  0.34510835567E+03  0.17278101945E+03 0.  0.
        -24    2    3    3    0    0 -0.69115874394E+02  0.21679668869E+02  0.78525750921E+02  0.13218363127E+03  0.77840906229E+02 0.  0.
          6    2    1    2  501    0  0.83665518679E+02  0.25089400033E+02  0.74157051261E+03  0.76619135397E+03  0.17173517029E+03 0.  0.
         24    2    5    5    0    0  0.54501921706E+02  0.69865784388E+02  0.32523439565E+03  0.34641368392E+03  0.79833207360E+02 0.  0.
          5    1    5    5  501    0  0.29163596973E+02 -0.44776384355E+02  0.41633611696E+03  0.41977767005E+03  0.47000000000E+01 0. -1.
        -11    1    6    6    0    0 -0.11404099234E+02  0.39680414581E+02  0.17217903080E+03  0.17705989785E+03  0.00000000000E+00 0.  1.
         12    1    6    6    0    0  0.65906020941E+02  0.30185369807E+02  0.15305536485E+03  0.16935378607E+03  0.00000000000E+00 0. -1.
         -5    1    3    3    0  503 -0.14549644285E+02 -0.46769068902E+02  0.20716131469E+03  0.21292472440E+03  0.47000000000E+01 0.  1.
         13    1    4    4    0    0 -0.70637820957E+02  0.44073126004E+02  0.67461227400E+02  0.10715950442E+03  0.00000000000E+00 0. -1.
        -14    1    4    4    0    0  0.15219465631E+01 -0.22393457135E+02  0.11064523521E+02  0.25024126849E+02  0.00000000000E+00 0.  1.
</event>
<event>
12    1  0.8633375E-002  0.2043308E+03  0.7818608E-02  0.1146639E+00
         21   -1    0    0  503  502  0.00000000000E+00  0.00000000000E+00  0.12463208697E+03  0.12463208697E+03  0.00000000000E+00 0. -1.
         21   -1    0    0  501  503 -0.00000000000E+00 -0.00000000000E+00 -0.36622243043E+03  0.36622243043E+03  0.00000000000E+00 0.  1.
          6    2    1    2  501    0 -0.39390321787E+02  0.98035471703E+02 -0.44042084697E+02  0.20664262155E+03  0.17204335690E+03 0.  0.
         24    2    3    3    0    0  0.20379058251E+02  0.92631948197E+02 -0.70341113321E+02  0.14095163462E+03  0.76964324450E+02 0.  0.
         -6    2    1    2    0  502  0.39390321787E+02 -0.98035471703E+02 -0.19754825876E+03  0.28421189584E+03  0.17489578621E+03 0.  0.
        -24    2    5    5    0    0  0.73996335161E+02 -0.82106353867E+02 -0.20434032929E+03  0.24523068013E+03  0.78525189182E+02 0.  0.
          5    1    3    3  501    0 -0.59769380038E+02  0.54035235062E+01  0.26299028624E+02  0.65690986924E+02  0.47000000000E+01 0. -1.
        -11    1    4    4    0    0  0.47910385541E+02  0.50616941492E+02 -0.27474675526E+02  0.74915536466E+02  0.00000000000E+00 0.  1.
         12    1    4    4    0    0 -0.27531327290E+02  0.42015006705E+02 -0.42866437795E+02  0.66036098159E+02  0.00000000000E+00 0. -1.
         -5    1    5    5    0  502 -0.34606013374E+02 -0.15929117836E+02  0.67920705310E+01  0.38981215717E+02  0.47000000000E+01 0.  1.
         13    1    6    6    0    0  0.27064166603E+02 -0.82703934672E+02 -0.11391082730E+03  0.14334603762E+03  0.00000000000E+00 0. -1.
        -14    1    6    6    0    0  0.46932168558E+02  0.59758080431E+00 -0.90429501990E+02  0.10188464251E+03  0.00000000000E+00 0.  1.
</event>
<event>
12    1  0.8633375E-002  0.2374795E+03  0.7818608E-02  0.1122424E+00
         21   -1    0    0  503  502  0.00000000000E+00  0.00000000000E+00  0.24517422841E+03  0.24517422841E+03  0.00000000000E+00 0. -1.
         21   -1    0    0  501  503 -0.00000000000E+00 -0.00000000000E+00 -0.30653749355E+03  0.30653749355E+03  0.00000000000E+00 0. -1.
          6    2    1    2  501    0 -0.60361383519E+01 -0.15910458514E+03 -0.17344741350E+03  0.29407570258E+03  0.17619821117E+03 0.  0.
         24    2    3    3    0    0 -0.51784015578E+02 -0.39415042972E+02 -0.40163211110E+02  0.10912916063E+03  0.77852169465E+02 0.  0.
         -6    2    1    2    0  502  0.60361383519E+01  0.15910458514E+03  0.11208414836E+03  0.25763601938E+03  0.16870909338E+03 0.  0.
        -24    2    5    5    0    0 -0.36030003152E+02  0.12351092522E+03  0.23008541760E+02  0.15278840339E+03  0.79131494623E+02 0.  0.
          5    1    3    3  501    0  0.45747877226E+02 -0.11968954217E+03 -0.13328420239E+03  0.18494654196E+03  0.47000000000E+01 0. -1.
        -11    1    4    4    0    0 -0.40144080522E+02 -0.28580417852E+02  0.15166363367E+02  0.51559732964E+02  0.00000000000E+00 0.  1.
         12    1    4    4    0    0 -0.11639935057E+02 -0.10834625120E+02 -0.55329574477E+02  0.57569427663E+02  0.00000000000E+00 0. -1.
         -5    1    5    5    0  502  0.42066141504E+02  0.35593659921E+02  0.89075606604E+02  0.10484761599E+03  0.47000000000E+01 0.  1.
         11    1    6    6    0    0  0.14885523502E+02  0.30955191290E+02  0.31772015226E+02  0.46789567526E+02  0.00000000000E+00 0. -1.
        -12    1    6    6    0    0 -0.50915526654E+02  0.92555733928E+02 -0.87634734661E+01  0.10599883586E+03  0.00000000000E+00 0.  1.
</event>
<event>
12    1  0.8633375E-002  0.2039003E+03  0.7818608E-02  0.1147016E+00
         21   -1    0    0  503  502  0.00000000000E+00  0.00000000000E+00  0.14889890232E+03  0.14889890232E+03  0.00000000000E+00 0.  1.
         21   -1    0    0  501  503 -0.00000000000E+00 -0.00000000000E+00 -0.27646128599E+03  0.27646128599E+03  0.00000000000E+00 0.  1.
          6    2    1    2  501    0  0.85688423715E+02 -0.57248146053E+02 -0.53361897444E+02  0.21076718259E+03  0.17594162944E+03 0.  0.
         24    2    3    3    0    0  0.27111763564E+02 -0.78718469238E+02 -0.82852515293E+02  0.14160081480E+03  0.79086069177E+02 0.  0.
         -6    2    1    2    0  502 -0.85688423715E+02  0.57248146053E+02 -0.74200486222E+02  0.21459300572E+03  0.17298725318E+03 0.  0.
        -24    2    5    5    0    0  0.46647824220E+01  0.59204121614E+01 -0.75600725886E+02  0.11056277552E+03  0.80323384515E+02 0.  0.
          5    1    3    3  501    0  0.58576660151E+02  0.21470323186E+02  0.29490617849E+02  0.69166367790E+02  0.47000000000E+01 0. -1.
        -11    1    4    4    0    0  0.22839857721E+02 -0.60750381379E+02 -0.90589403135E+01  0.65531155476E+02  0.00000000000E+00 0.  1.
         12    1    4    4    0    0  0.42719058426E+01 -0.17968087859E+02 -0.73793574980E+02  0.76069659321E+02  0.00000000000E+00 0. -1.
         -5    1    5    5    0  502 -0.90353206137E+02  0.51327733891E+02  0.14002396634E+01  0.10403023021E+03  0.47000000000E+01 0.  1.
         13    1    6    6    0    0 -0.35251831591E+02 -0.11371898538E+02 -0.31600015560E+02  0.48688527296E+02  0.00000000000E+00 0. -1.
        -14    1    6    6    0    0  0.39916614013E+02  0.17292310700E+02 -0.44000710326E+02  0.61874248220E+02  0.00000000000E+00 0.  1.
</event>
<event>
12    1  0.8633375E-002  0.2576528E+03  0.7818608E-02  0.1109041E+00
         21   -1    0    0  501  502  0.00000000000E+00  0.00000000000E+00  0.10445654749E+03  0.10445654749E+03  0.00000000000E+00 0. -1.
         21   -1    0    0  502  503 -0.00000000000E+00 -0.00000000000E+00 -0.64126810410E+03  0.64126810410E+03  0.00000000000E+00 0.  1.
         -6    2    1    2    0  503  0.16473964269E+03  0.89278517940E+02 -0.21279987785E+03  0.33175783395E+03  0.17224885700E+03 0.  0.
        -24    2    3    3    0    0  0.93538393280E+02  0.21631889885E+02 -0.19632704975E+03  0.23206265719E+03  0.78047400474E+02 0.  0.
          6    2    1    2  501    0 -0.16473964269E+03 -0.89278517940E+02 -0.32401167877E+03  0.41396681764E+03  0.17684782862E+03 0.  0.
         24    2    5    5    0    0 -0.66463033327E+02 -0.97980789791E+02 -0.12146646886E+03  0.18862114197E+03  0.82500073786E+02 0.  0.
          5    1    5    5  501    0 -0.98276609364E+02  0.87022718509E+01 -0.20254520991E+03  0.22534567567E+03  0.47000000000E+01 0. -1.
        -11    1    6    6    0    0 -0.27338991414E+02 -0.27140203250E+02 -0.96541057167E+02  0.10394319027E+03  0.00000000000E+00 0.  1.
         12    1    6    6    0    0 -0.39124041912E+02 -0.70840586541E+02 -0.24925411694E+02  0.84677951706E+02  0.00000000000E+00 0. -1.
         -5    1    3    3    0  503  0.71201249411E+02  0.67646628055E+02 -0.16472828101E+02  0.99695176767E+02  0.47000000000E+01 0.  1.
         13    1    4    4    0    0  0.10546436641E+02  0.17593855042E+02 -0.18703268106E+01  0.20597795597E+02  0.00000000000E+00 0. -1.
        -14    1    4    4    0    0  0.82991956639E+02  0.40380348427E+01 -0.19445672294E+03  0.21146486159E+03  0.00000000000E+00 0.  1.
</event>
<event>
12    1  0.8633375E-002  0.1835840E+03  0.7818608E-02  0.1164673E+00
         21   -1    0    0  503  502  0.00000000000E+00  0.00000000000E+00  0.22002755173E+04  0.22002755173E+04  0.00000000000E+00 0.  1.
         21   -1    0    0  501  503 -0.00000000000E+00 -0.00000000000E+00 -0.39141465903E+02  0.39141465903E+02  0.00000000000E+00 0. -1.
          6    2    1    2  501    0  0.62121305144E+02 -0.33404364436E+01  0.20369279228E+03  0.27338560972E+03  0.17140222549E+03 0.  0.
         24    2    3    3    0    0 -0.42233767306E+01  0.52108027205E+02  0.11105245359E+03  0.14657681157E+03  0.80118854411E+02 0.  0.
         -6    2    1    2    0  502 -0.62121305144E+02  0.33404364436E+01  0.19574412591E+04  0.19660313735E+04  0.17272192556E+03 0.  0.
        -24    2    5    5    0    0 -0.14373450844E+02 -0.45662088779E+02  0.36206382703E+03  0.36918061469E+03  0.53967480723E+02 0.  0.
          5    1    3    3  501    0  0.66344681875E+02 -0.55448463649E+02  0.92640338692E+02  0.12680879815E+03  0.47000000000E+01 0. -1.
        -13    1    4    4    0    0  0.37329880934E+02  0.29079005044E+02  0.65105259172E+02  0.80484801775E+02  0.00000000000E+00 0.  1.
         14    1    4    4    0    0 -0.41553257664E+02  0.23029022161E+02  0.45947194417E+02  0.66092009797E+02  0.00000000000E+00 0. -1.
         -5    1    5    5    0  502 -0.47747854300E+02  0.49002525223E+02  0.15953774321E+04  0.15968507588E+04  0.47000000000E+01 0.  1.
         11    1    6    6    0    0 -0.20491576238E+02 -0.54592938643E+02  0.25557006352E+03  0.26213803809E+03  0.00000000000E+00 0. -1.
        -12    1    6    6    0    0  0.61181253947E+01  0.89308498641E+01  0.10649376352E+03  0.10704257660E+03  0.00000000000E+00 0.  1.
</event>
<event>
12    1  0.8633375E-002  0.2226958E+03  0.7818608E-02  0.1131968E+00
         21   -1    0    0  503  502  0.00000000000E+00  0.00000000000E+00  0.78633274522E+03  0.78633274522E+03  0.00000000000E+00 0.  1.
         21   -1    0    0  501  503 -0.00000000000E+00 -0.00000000000E+00 -0.27256938602E+03  0.27256938602E+03  0.00000000000E+00 0.  1.
          6    2    1    2  501    0  0.14049002798E+03  0.10293129722E+02 -0.20736839264E+03  0.30429434353E+03  0.17248188530E+03 0.  0.
         24    2    3    3    0    0  0.17920722092E+02 -0.25948789379E+02 -0.34417750552E+02  0.89188030175E+02  0.75996257953E+02 0.  0.
         -6    2    1    2    0  502 -0.14049002798E+03 -0.10293129722E+02  0.72113175184E+03  0.75460778771E+03  0.17192589474E+03 0.  0.
        -24    2    5    5    0    0 -0.57347176042E+02  0.52900565522E+02  0.27827008544E+03  0.29957512678E+03  0.78891366468E+02 0.  0.
          5    1    3    3  501    0  0.12256930589E+03  0.36241919101E+02 -0.17295064209E+03  0.21510631336E+03  0.47000000000E+01 0. -1.
        -13    1    4    4    0    0  0.40389831952E+02 -0.36863270355E+02 -0.33628346148E+02  0.64195832349E+02  0.00000000000E+00 0.  1.
         14    1    4    4    0    0 -0.22469109859E+02  0.10914480976E+02 -0.78940440377E+00  0.24992197825E+02  0.00000000000E+00 0. -1.
         -5    1    5    5    0  502 -0.83142851943E+02 -0.63193695244E+02  0.44286166640E+03  0.45503266093E+03  0.47000000000E+01 0.  1.
         11    1    6    6    0    0 -0.68119229264E+02  0.29497306759E+02  0.13551788003E+03  0.15451671854E+03  0.00000000000E+00 0. -1.
        -12    1    6    6    0    0  0.10772053222E+02  0.23403258763E+02  0.14275220541E+03  0.14505840824E+03  0.00000000000E+00 0.  1.
</event>
<event>
12    1  0.8633375E-002  0.1746249E+03  0.7818608E-02  0.1173169E+00
         21   -1    0    0  503  502  0.00000000000E+00  0.00000000000E+00  0.42519031703E+03  0.42519031703E+03  0.00000000000E+00 0.  1.
         21   -1    0    0  501  503 -0.00000000000E+00 -0.00000000000E+00 -0.38036124498E+03  0.38036124498E+03  0.00000000000E+00 0.  1.
          6    2    1    2  501    0  0.24795048867E+00 -0.32391130985E+02 -0.34046216921E+03  0.38263342562E+03  0.17159429737E+03 0.  0.
         24    2    3    3    0    0 -0.10337313778E+02 -0.67652908786E+02 -0.10792062471E+03  0.14714860506E+03  0.72952550405E+02 0.  0.
         -6    2    1    2    0  502 -0.24795048867E+00  0.32391130985E+02  0.38529124126E+03  0.42291813640E+03  0.17135099258E+03 0.  0.
        -24    2    5    5    0    0  0.18975445788E+02 -0.42277331290E+02  0.16817548121E+03  0.19247017810E+03  0.81328572429E+02 0.  0.
          5    1    3    3  501    0  0.10585264266E+02  0.35261777801E+02 -0.23254154450E+03  0.23548482055E+03  0.47000000000E+01 0. -1.
        -13    1    4    4    0    0 -0.30141900410E+02 -0.33364166042E+02 -0.95654175246E+02  0.10569495247E+03  0.00000000000E+00 0.  1.
         14    1    4    4    0    0  0.19804586633E+02 -0.34288742743E+02 -0.12266449464E+02  0.41453652590E+02  0.00000000000E+00 0. -1.
         -5    1    5    5    0  502 -0.19223396276E+02  0.74668462275E+02  0.21711576005E+03  0.23044795830E+03  0.47000000000E+01 0.  1.
         11    1    6    6    0    0 -0.94683157176E+01 -0.86095165576E+01 -0.50259102873E+01  0.13748910942E+02  0.00000000000E+00 0. -1.
        -12    1    6    6    0    0  0.28443761505E+02 -0.33667814732E+02  0.17320139150E+03  0.17872126716E+03  0.00000000000E+00 0.  1.
</event>
<event>
12    1  0.8633375E-002  0.1885686E+03  0.7818608E-02  0.1160177E+00
         21   -1    0    0  501  502  0.00000000000E+00  0.00000000000E+00  0.70057347816E+03  0.70057347816E+03  0.00000000000E+00 0. -1.
         21   -1    0    0  502  503 -0.00000000000E+00 -0.00000000000E+00 -0.64970920915E+02  0.64970920915E+02  0.00000000000E+00 0. -1.
         -6    2    1    2    0  503 -0.60709278440E+02  0.47890033097E+02  0.13449426590E+03  0.23013087083E+03  0.16997775852E+03 0.  0.
        -24    2    3    3    0    0 -0.61791793364E+02 -0.30683613803E+02  0.99620261456E+02  0.14403048749E+03  0.77851621371E+02 0.  0.
          6    2    1    2  501    0  0.60709278440E+02 -0.47890033097E+02  0.50110829135E+03  0.53541352825E+03  0.17198562386E+03 0.  0.
         24    2    5    5    0    0  0.63130260072E+02  0.19321631761E+02  0.18138023921E+03  0.20865461656E+03  0.79241420003E+02 0.  0.
          5    1    5    5  501    0 -0.24209816318E+01 -0.67211664858E+02  0.31972805214E+03  0.32675891169E+03  0.47000000000E+01 0. -1.
        -13    1    6    6    0    0  0.38146564249E+01 -0.23832280535E+02  0.19851636709E+02  0.31250866855E+02  0.00000000000E+00 0.  1.
         14    1    6    6    0    0  0.59315603647E+02  0.43153912296E+02  0.16152860250E+03  0.17740374970E+03  0.00000000000E+00 0. -1.
         -5    1    3    3    0  503  0.10825149234E+01  0.78573646900E+02  0.34874004442E+02  0.86100383342E+02  0.47000000000E+01 0.  1.
         11    1    4    4    0    0 -0.76061975364E+02 -0.38079038870E+02  0.69315435494E+02  0.10972723862E+03  0.00000000000E+00 0. -1.
        -12    1    4    4    0    0  0.14270182000E+02  0.73954250672E+01  0.30304825962E+02  0.34303248867E+02  0.00000000000E+00 0.  1.
</event>
<event>
12    1  0.8633375E-002  0.1965195E+03  0.7818608E-02  0.1153218E+00
         21   -1    0    0  501  502  0.00000000000E+00  0.00000000000E+00  0.21380467062E+03  0.21380467062E+03  0.00000000000E+00 0.  1.
         21   -1    0    0  502  503 -0.00000000000E+00 -0.00000000000E+00 -0.17998912375E+03  0.17998912375E+03  0.00000000000E+00 0.  1.
         -6    2    1    2    0  503 -0.89204220112E+02 -0.32787383599E+02 -0.10022348100E+01  0.19652202517E+03  0.17201016393E+03 0.  0.
        -24    2    3    3    0    0 -0.21302491057E+02  0.20901061994E+02 -0.47796858860E+02  0.98008468547E+02  0.80190209329E+02 0.  0.
          6    2    1    2  501    0  0.89204220112E+02  0.32787383599E+02  0.34817781681E+02  0.19727176920E+03  0.16932651178E+03 0.  0.
         24    2    5    5    0    0  0.44371546220E+02 -0.24323753571E+02  0.68724010899E+02  0.11700114557E+03  0.80036237354E+02 0.  0.
          5    1    5    5  501    0  0.44832673892E+02  0.57111137170E+02 -0.33906229218E+02  0.80270623624E+02  0.47000000000E+01 0. -1.
        -13    1    6    6    0    0  0.18877744081E+02 -0.44533555882E+02  0.93010762533E+01  0.49255627501E+02  0.00000000000E+00 0.  1.
         14    1    6    6    0    0  0.25493802139E+02  0.20209802311E+02  0.59422934646E+02  0.67745518072E+02  0.00000000000E+00 0. -1.
         -5    1    3    3    0  503 -0.67901729055E+02 -0.53688445593E+02  0.46794624050E+02  0.98513556625E+02  0.47000000000E+01 0.  1.
         11    1    4    4    0    0  0.16819582146E+01  0.30782438863E+02  0.12083377846E+02  0.33111864127E+02  0.00000000000E+00 0. -1.
        -12    1    4    4    0    0 -0.22984449271E+02 -0.98813768698E+01 -0.59880236707E+02  0.64896604419E+02  0.00000000000E+00 0.  1.
</event>
<event>
12    1  0.8633375E-002  0.2496542E+03  0.7818608E-02  0.1115819E+00
         21   -1    0    0  501  502  0.00000000000E+00  0.00000000000E+00  0.60433057044E+02  0.60433057044E+02  0.00000000000E+00 0.  1.
         21   -1    0    0  502  503 -0.00000000000E+00 -0.00000000000E+00 -0.10760634062E+04  0.10760634062E+04  0.00000000000E+00 0.  1.
         -6    2    1    2    0  503  0.42379324266E+02 -0.15519526595E+03 -0.34625311558E+03  0.42687051112E+03  0.19090740039E+03 0.  0.
        -24    2    3    3    0    0  0.20174625395E+02 -0.92398716621E+02 -0.33751953608E+03  0.35952943398E+03  0.79983987911E+02 0.  0.
          6    2    1    2  501    0 -0.42379324266E+02  0.15519526595E+03 -0.66937723359E+03  0.70962595213E+03  0.17210907410E+03 0.  0.
         24    2    5    5    0    0 -0.27660232866E+02  0.13132254042E+03 -0.66323498478E+03  0.68053341191E+03  0.72349026197E+02 0.  0.
          5    1    5    5  501    0 -0.14719091400E+02  0.23872725533E+02 -0.61422488177E+01  0.29092540222E+02  0.47000000000E+01 0. -1.
        -13    1    6    6    0    0  0.18491592832E+02  0.63138303050E+02 -0.37676794141E+03  0.38246890853E+03  0.00000000000E+00 0.  1.
         14    1    6    6    0    0 -0.46151825698E+02  0.68184237372E+02 -0.28646704336E+03  0.29806450338E+03  0.00000000000E+00 0. -1.
         -5    1    3    3    0  503  0.22204698871E+02 -0.62796549334E+02 -0.87335795011E+01  0.67341077145E+02  0.47000000000E+01 0.  1.
         13    1    4    4    0    0  0.13121946760E+02  0.65049310862E+01 -0.11485950707E+03  0.11578948994E+03  0.00000000000E+00 0. -1.
        -14    1    4    4    0    0  0.70526786344E+01 -0.98903647707E+02 -0.22266002900E+03  0.24373994404E+03  0.00000000000E+00 0.  1.
</event>
<event>
12    1  0.8633375E-002  0.3130078E+03  0.7818608E-02  0.1078986E+00
         21   -1    0    0  503  502  0.00000000000E+00  0.00000000000E+00  0.16739151494E+03  0.16739151494E+03  0.00000000000E+00 0.  1.
         21   -1    0    0  501  503 -0.00000000000E+00 -0.00000000000E+00 -0.71720929628E+03  0.71720929628E+03  0.00000000000E+00 0. -1.
          6    2    1    2  501    0  0.20776366018E+03  0.15817050630E+03 -0.84615734920E+02  0.32424323847E+03  0.17259839961E+03 0.  0.
         24    2    3    3    0    0  0.20934462912E+03  0.16519336070E+03 -0.41528147946E+02  0.28030635080E+03  0.75716861188E+02 0.  0.
         -6    2    1    2    0  502 -0.20776366018E+03 -0.15817050630E+03 -0.46520204642E+03  0.56035757275E+03  0.17147599773E+03 0.  0.
        -24    2    5    5    0    0 -0.14797756905E+03 -0.49021571843E+02 -0.19570786358E+03  0.26347868976E+03  0.82577095142E+02 0.  0.
          5    1    3    3  501    0 -0.15809689405E+01 -0.70228544057E+01 -0.43087586974E+02  0.43936887669E+02  0.47000000000E+01 0. -1.
        -13    1    4    4    0    0  0.21129603888E+03  0.14352382762E+03 -0.39269777684E+02  0.25843223596E+03  0.00000000000E+00 0.  1.
         14    1    4    4    0    0 -0.19514097662E+01  0.21669533080E+02 -0.22583702618E+01  0.21874114844E+02  0.00000000000E+00 0. -1.
         -5    1    5    5    0  502 -0.59786091123E+02 -0.10914893446E+03 -0.26949418283E+03  0.29687888299E+03  0.47000000000E+01 0.  1.
         11    1    6    6    0    0 -0.95008768856E+02  0.10813868231E+02 -0.11956006395E+03  0.15309544343E+03  0.00000000000E+00 0. -1.
        -12    1    6    6    0    0 -0.52968800196E+02 -0.59835440074E+02 -0.76147799630E+02  0.11038324634E+03  0.00000000000E+00 0.  1.
</event>
<event>
12    1  0.8633375E-002  0.4163144E+03  0.7818608E-02  0.1038557E+00
         21   -1    0    0  501  502  0.00000000000E+00  0.00000000000E+00  0.92347590157E+03  0.92347590157E+03  0.00000000000E+00 0.  1.
         21   -1    0    0  502  503 -0.00000000000E+00 -0.00000000000E+00 -0.21583960056E+03  0.21583960056E+03  0.00000000000E+00 0. -1.
         -6    2    1    2    0  503 -0.33753367786E+03 -0.16830855575E+03  0.14374560645E+03  0.44043214709E+03  0.17624109393E+03 0.  0.
        -24    2    3    3    0    0 -0.20488090573E+03 -0.12676786039E+03  0.20106995636E+02  0.25433812944E+03  0.78976685480E+02 0.  0.
          6    2    1    2  501    0  0.33753367786E+03  0.16830855575E+03  0.56389069456E+03  0.69888335504E+03  0.16795378805E+03 0.  0.
         24    2    5    5    0    0  0.15591778297E+03  0.70048424238E+02  0.34456851429E+03  0.39761321799E+03  0.10075551250E+03 0.  0.
          5    1    5    5  501    0  0.18161589488E+03  0.98260131510E+02  0.21932218027E+03  0.30127013705E+03  0.47000000000E+01 0. -1.
        -11    1    6    6    0    0  0.16522816225E+03  0.71953409429E+02  0.34368582062E+03  0.38806904286E+03  0.00000000000E+00 0.  1.
         12    1    6    6    0    0 -0.93103792781E+01 -0.19049851905E+01  0.88269366577E+00  0.95441751339E+01  0.00000000000E+00 0. -1.
         -5    1    3    3    0  503 -0.13265277212E+03 -0.41540695358E+02  0.12363861081E+03  0.18609401765E+03  0.47000000000E+01 0.  1.
         13    1    4    4    0    0 -0.25334759710E+02 -0.53455573233E+02 -0.16954874830E+01  0.59179582941E+02  0.00000000000E+00 0. -1.
        -14    1    4    4    0    0 -0.17954614602E+03 -0.73312287157E+02  0.21802483119E+02  0.19515854649E+03  0.00000000000E+00 0.  1.
</event>
<event>
12    1  0.8633375E-002  0.1752586E+03  0.7818608E-02  0.1173348E+00
         21   -1    0    0  503  502  0.00000000000E+00  0.00000000000E+00  0.14891808101E+03  0.14891808101E+03  0.00000000000E+00 0. -1.
         21   -1    0    0  501  503 -0.00000000000E+00 -0.00000000000E+00 -0.30594960026E+03  0.30594960026E+03  0.00000000000E+00 0. -1.
          6    2    1    2  501    0 -0.17688363931E+02  0.22463168493E+02 -0.21146503543E+03  0.27465074119E+03  0.17291065980E+03 0.  0.
         24    2    3    3    0    0 -0.77144212720E+02  0.14453700976E+01 -0.12123957252E+03  0.16447147835E+03  0.79990715677E+02 0.  0.
         -6    2    1    2    0  502  0.17688363931E+02 -0.22463168493E+02  0.54433516174E+02  0.18021694007E+03  0.16940385370E+03 0.  0.
        -24    2    5    5    0    0  0.19360323869E+02 -0.36962401513E+02 -0.29825601916E+02  0.94574005804E+02  0.79458383939E+02 0.  0.
          5    1    3    3  501    0  0.59455848790E+02  0.21017798396E+02 -0.90225462905E+02  0.11017926285E+03  0.47000000000E+01 0. -1.
        -13    1    4    4    0    0 -0.38544336582E+02  0.36907859651E+02 -0.86333657635E+02  0.10149559807E+03  0.00000000000E+00 0.  1.
         14    1    4    4    0    0 -0.38599876138E+02 -0.35462489554E+02 -0.34905914886E+02  0.62975880281E+02  0.00000000000E+00 0. -1.
         -5    1    5    5    0  502 -0.16719599390E+01  0.14499233020E+02  0.84259118091E+02  0.85642934266E+02  0.47000000000E+01 0.  1.
         11    1    6    6    0    0 -0.15235954809E+02  0.18949507660E+01  0.18171319132E+02  0.23789115081E+02  0.00000000000E+00 0. -1.
        -12    1    6    6    0    0  0.34596278679E+02 -0.38857352279E+02 -0.47996921048E+02  0.70784890723E+02  0.00000000000E+00 0.  1.
</event>
<event>
12    1  0.8633375E-002  0.1988304E+03  0.7818608E-02  0.1150810E+00
         21   -1    0    0  501  502  0.00000000000E+00  0.00000000000E+00  0.83991530437E+02  0.83991530437E+02  0.00000000000E+00 0.  1.
         21   -1    0    0  502  503 -0.00000000000E+00 -0.00000000000E+00 -0.21049546102E+04  0.21049546102E+04  0.00000000000E+00 0.  1.
         -6    2    1    2    0  503  0.97024039959E+02  0.28213410210E+02 -0.19749050382E+04  0.19848508972E+04  0.17080255688E+03 0.  0.
        -24    2    3    3    0    0  0.45035200390E+02 -0.49794375110E+02 -0.10399813939E+04  0.10452273744E+04  0.80195482528E+02 0.  0.
          6    2    1    2  501    0 -0.97024039959E+02 -0.28213410210E+02 -0.46058041587E+02  0.20409524344E+03  0.17124212202E+03 0.  0.
         24    2    5    5    0    0 -0.43523581644E+02 -0.72785450229E+02  0.24728011300E+01  0.11908760563E+03  0.83568649296E+02 0.  0.
          5    1    5    5  501    0 -0.53500458315E+02  0.44572040019E+02 -0.48530842717E+02  0.85007637811E+02  0.47000000000E+01 0. -1.
        -13    1    6    6    0    0 -0.26622311821E+00  0.17573056398E+02  0.67262238508E+01  0.18818216526E+02  0.00000000000E+00 0.  1.
         14    1    6    6    0    0 -0.43257358526E+02 -0.90358506627E+02 -0.42534227208E+01  0.10026938910E+03  0.00000000000E+00 0. -1.
         -5    1    3    3    0  503  0.51988839569E+02  0.78007785321E+02 -0.93492364427E+03  0.93962352281E+03  0.47000000000E+01 0.  1.
         11    1    4    4    0    0  0.34846662402E+02  0.96516360268E+01 -0.21280524920E+03  0.21585531739E+03  0.00000000000E+00 0. -1.
        -12    1    4    4    0    0  0.10188537988E+02 -0.59446011137E+02 -0.82717614469E+03  0.82937205698E+03  0.00000000000E+00 0.  1.
</event>
<event>
12    1  0.8633375E-002  0.2078500E+03  0.7818608E-02  0.1143449E+00
         21   -1    0    0  501  502  0.00000000000E+00  0.00000000000E+00  0.95113684355E+02  0.95113684355E+02  0.00000000000E+00 0. -1.
         21   -1    0    0  502  503 -0.00000000000E+00 -0.00000000000E+00 -0.45439446549E+03  0.45439446549E+03  0.00000000000E+00 0. -1.
         -6    2    1    2    0  503  0.86352329929E+02 -0.76270029339E+02 -0.16168855225E+03  0.26333399871E+03  0.17299642969E+03 0.  0.
        -24    2    3    3    0    0  0.91072520716E+02 -0.11352455222E+03 -0.10812318831E+03  0.19774804068E+03  0.78940710392E+02 0.  0.
          6    2    1    2  501    0 -0.86352329929E+02  0.76270029339E+02 -0.19759222889E+03  0.28617415114E+03  0.17198579478E+03 0.  0.
         24    2    5    5    0    0 -0.35920466963E+02  0.49481149151E+02 -0.20614403736E+03  0.22824108345E+03  0.76550401495E+02 0.  0.
          5    1    5    5  501    0 -0.50431862966E+02  0.26788880188E+02  0.85518084692E+01  0.57933067691E+02  0.47000000000E+01 0. -1.
        -13    1    6    6    0    0 -0.40244084800E+02 -0.24335956558E+01 -0.12900997858E+03  0.13516317295E+03  0.00000000000E+00 0.  1.
         14    1    6    6    0    0  0.43236178367E+01  0.51914744807E+02 -0.77134058778E+02  0.93077910501E+02  0.00000000000E+00 0. -1.
         -5    1    3    3    0  503 -0.47201907871E+01  0.37254522878E+02 -0.53565363943E+02  0.65585958027E+02  0.47000000000E+01 0.  1.
         11    1    4    4    0    0  0.12148355827E+01 -0.32520969487E+02  0.40152648566E+01  0.32790419847E+02  0.00000000000E+00 0. -1.
        -12    1    4    4    0    0  0.89857685134E+02 -0.81003582730E+02 -0.11213845317E+03  0.16495762083E+03  0.00000000000E+00 0.  1.
</event>
<event>
12    1  0.8633375E-002  0.1835461E+03  0.7818608E-02  0.1165365E+00
         21   -1    0    0  503  502  0.00000000000E+00  0.00000000000E+00  0.40568548965E+02  0.40568548965E+02  0.00000000000E+00 0.  1.
         21   -1    0    0  501  503 -0.00000000000E+00 -0.00000000000E+00 -0.12708313519E+04  0.12708313519E+04  0.00000000000E+00 0.  1.
          6    2    1    2  501    0  0.47517198227E+02  0.16052593978E+02 -0.21705752407E+03  0.28170377131E+03  0.17241657726E+03 0.  0.
         24    2    3    3    0    0  0.32249265785E+02  0.64407076726E+02 -0.74780744308E+02  0.13058779657E+03  0.79200544299E+02 0.  0.
         -6    2    1    2    0  502 -0.47517198227E+02 -0.16052593978E+02 -0.10132052789E+04  0.10296961296E+04  0.17656050576E+03 0.  0.
        -24    2    5    5    0    0 -0.64408413521E+02  0.32098380964E+02 -0.78511230702E+03  0.79591776583E+03  0.10911006154E+03 0.  0.
          5    1    3    3  501    0  0.15267932442E+02 -0.48354482748E+02 -0.14227677976E+03  0.15111597474E+03  0.47000000000E+01 0. -1.
        -11    1    4    4    0    0  0.43119884818E+02  0.53576166692E+02 -0.87051205568E+02  0.11093981474E+03  0.00000000000E+00 0.  1.
         12    1    4    4    0    0 -0.10870619033E+02  0.10830910034E+02  0.12270461260E+02  0.19647981826E+02  0.00000000000E+00 0. -1.
         -5    1    5    5    0  502  0.16891215294E+02 -0.48150974942E+02 -0.22809297185E+03  0.23377836373E+03  0.47000000000E+01 0.  1.
         13    1    6    6    0    0 -0.37144120167E+02  0.71153117942E+02 -0.40898822107E+03  0.41678989531E+03  0.00000000000E+00 0. -1.
        -14    1    6    6    0    0 -0.27264293354E+02 -0.39054736979E+02 -0.37612408595E+03  0.37912787052E+03  0.00000000000E+00 0.  1.
</event>
<event>
12    1  0.8633375E-002  0.2076819E+03  0.7818608E-02  0.1143450E+00
         21   -1    0    0  501  502  0.00000000000E+00  0.00000000000E+00  0.62646928727E+03  0.62646928727E+03  0.00000000000E+00 0. -1.
         21   -1    0    0  502  503 -0.00000000000E+00 -0.00000000000E+00 -0.68842152409E+02  0.68842152409E+02  0.00000000000E+00 0. -1.
         -6    2    1    2    0  503  0.74740407215E+02 -0.86421402300E+02  0.26927031546E+03  0.33995045155E+03  0.17321957011E+03 0.  0.
        -24    2    3    3    0    0  0.13573033304E+02 -0.35038945337E+02  0.39338195024E+02  0.96491061658E+02  0.79693641332E+02 0.  0.
          6    2    1    2  501    0 -0.74740407215E+02  0.86421402300E+02  0.28835681939E+03  0.35536098813E+03  0.17342718745E+03 0.  0.
         24    2    5    5    0    0  0.24219212279E+02  0.85336849907E+01  0.10190733171E+03  0.13031653862E+03  0.77057783243E+02 0.  0.
          5    1    5    5  501    0 -0.98959619494E+02  0.77887717310E+02  0.18644948768E+03  0.22504444951E+03  0.47000000000E+01 0. -1.
        -13    1    6    6    0    0  0.22849360976E+02 -0.23473044817E+02  0.12024267692E+02  0.34894987369E+02  0.00000000000E+00 0.  1.
         14    1    6    6    0    0  0.13698513036E+01  0.32006729808E+02  0.89883064016E+02  0.95421551247E+02  0.00000000000E+00 0. -1.
         -5    1    3    3    0  503  0.61167373911E+02 -0.51382456963E+02  0.22993212044E+03  0.24345938989E+03  0.47000000000E+01 0.  1.
         11    1    4    4    0    0  0.32777053875E+02 -0.20123816836E+00  0.45665009958E+02  0.56210932139E+02  0.00000000000E+00 0. -1.
        -12    1    4    4    0    0 -0.19204020571E+02 -0.34837707169E+02 -0.63268149337E+01  0.40280129519E+02  0.00000000000E+00 0.  1.
</event>
<event>
12    1  0.8633375E-002  0.2031991E+03  0.7818608E-02  0.1147611E+00
         21   -1    0    0  501  502  0.00000000000E+00  0.00000000000E+00  0.97245710204E+02  0.97245710204E+02  0.00000000000E+00 0. -1.
         21   -1    0    0  502  503 -0.00000000000E+00 -0.00000000000E+00 -0.42041143390E+03  0.42041143390E+03  0.00000000000E+00 0. -1.
         -6    2    1    2    0  503 -0.33057599657E+01  0.10773989859E+03 -0.17676818784E+03  0.26932670642E+03  0.17225292091E+03 0.  0.
        -24    2    3    3    0    0  0.92135614201E+01  0.14180689489E+03 -0.12213591940E+03  0.20356905744E+03  0.79555598100E+02 0.  0.
          6    2    1    2  501    0  0.33057599657E+01 -0.10773989859E+03 -0.14639753586E+03  0.24833043768E+03  0.16916546331E+03 0.  0.
         24    2    5    5    0    0  0.61955742321E+02 -0.58022242621E+02 -0.11816692383E+03  0.16628945280E+03  0.80521211973E+02 0.  0.
          5    1    5    5  501    0 -0.58649982356E+02 -0.49717655972E+02 -0.28230612022E+02  0.82040984884E+02  0.47000000000E+01 0. -1.
        -13    1    6    6    0    0  0.26486150238E+02  0.18678659095E+02 -0.29977158306E+02  0.44147915920E+02  0.00000000000E+00 0.  1.
         14    1    6    6    0    0  0.35469592084E+02 -0.76700901716E+02 -0.88189765529E+02  0.12214153688E+03  0.00000000000E+00 0. -1.
         -5    1    3    3    0  503 -0.12519321386E+02 -0.34066996294E+02 -0.54632268440E+02  0.65757648980E+02  0.47000000000E+01 0.  1.
         13    1    4    4    0    0 -0.27393435025E+02  0.47062667944E+02 -0.72071350903E+02  0.90330363763E+02  0.00000000000E+00 0. -1.
        -14    1    4    4    0    0  0.36606996445E+02  0.94744226943E+02 -0.50064568496E+02  0.11323869368E+03  0.00000000000E+00 0.  1.
</event>
<event>
12    1  0.8633375E-002  0.2169843E+03  0.7818608E-02  0.1136712E+00
         21   -1    0    0  503  502  0.00000000000E+00  0.00000000000E+00  0.24072020592E+03  0.24072020592E+03  0.00000000000E+00 0.  1.
         21   -1    0    0  501  503 -0.00000000000E+00 -0.00000000000E+00 -0.47396624184E+03  0.47396624184E+03  0.00000000000E+00 0. -1.
          6    2    1    2  501    0 -0.70326883829E+02 -0.11196396297E+03 -0.39209665715E+03  0.44813162756E+03  0.17204757329E+03 0.  0.
         24    2    3    3    0    0 -0.55532669650E+02  0.85680475662E+01 -0.16444462756E+03  0.19007277591E+03  0.76995686707E+02 0.  0.
         -6    2    1    2    0  502  0.70326883829E+02  0.11196396297E+03  0.15885062123E+03  0.26655482019E+03  0.16833345689E+03 0.  0.
        -24    2    5    5    0    0  0.27332556380E+02 -0.10295732278E+02  0.57596444482E+02  0.10202383957E+03  0.78983812790E+02 0.  0.
          5    1    3    3  501    0 -0.14794214179E+02 -0.12053201053E+03 -0.22765202959E+03  0.25805885164E+03  0.47000000000E+01 0. -1.
        -13    1    4    4    0    0  0.13666762738E+02 -0.62949517769E+01 -0.53931064514E+01  0.15984130217E+02  0.00000000000E+00 0.  1.
         14    1    4    4    0    0 -0.69199432388E+02  0.14862999343E+02 -0.15905152111E+03  0.17408864570E+03  0.00000000000E+00 0. -1.
         -5    1    5    5    0  502  0.42994327449E+02  0.12225969525E+03  0.10125417675E+03  0.16453098062E+03  0.47000000000E+01 0.  1.
         13    1    6    6    0    0 -0.71931132598E+01  0.74956132010E+01 -0.15843461685E+02  0.18945721781E+02  0.00000000000E+00 0. -1.
        -14    1    6    6    0    0  0.34525669640E+02 -0.17791345479E+02  0.73439906168E+02  0.83078117792E+02  0.00000000000E+00 0.  1.
</event>
<event>
12    1  0.8633375E-002  0.2504099E+03  0.7818608E-02  0.1113178E+00
         21   -1    0    0  503  502  0.00000000000E+00  0.00000000000E+00  0.25416670664E+03  0.25416670664E+03  0.00000000000E+00 0. -1.
         21   -1    0    0  501  503 -0.00000000000E+00 -0.00000000000E+00 -0.31552120139E+03  0.31552120139E+03  0.00000000000E+00 0. -1.
          6    2    1    2  501    0 -0.79592461977E+02 -0.16265440332E+03 -0.16445190997E+03  0.29888500584E+03  0.17174516324E+03 0.  0.
         24    2    3    3    0    0 -0.51609106410E+01 -0.15505736002E+03 -0.12489401523E+03  0.21412246731E+03  0.78616131110E+02 0.  0.
         -6    2    1    2    0  502  0.79592461977E+02  0.16265440332E+03  0.10309741522E+03  0.27080290219E+03  0.17295583218E+03 0.  0.
        -24    2    5    5    0    0  0.11716079845E+03  0.12709514017E+03  0.10531383264E+03  0.21881402254E+03  0.83118865291E+02 0.  0.
          5    1    3    3  501    0 -0.74431551336E+02 -0.75970433001E+01 -0.39557894741E+02  0.84762538526E+02  0.47000000000E+01 0. -1.
        -11    1    4    4    0    0  0.40782343693E+01 -0.37894637886E+02  0.55812077264E+01  0.38519935822E+02  0.00000000000E+00 0.  1.
         12    1    4    4    0    0 -0.92391450103E+01 -0.11716272214E+03 -0.13047522296E+03  0.17560253149E+03  0.00000000000E+00 0. -1.
         -5    1    5    5    0  502 -0.37568336469E+02  0.35559263156E+02 -0.22164174225E+01  0.51988879651E+02  0.47000000000E+01 0.  1.
         13    1    6    6    0    0  0.34034901742E+02  0.91612671862E+02  0.33291410834E+02  0.10324521402E+03  0.00000000000E+00 0. -1.
        -14    1    6    6    0    0  0.83125896703E+02  0.35482468305E+02  0.72022421810E+02  0.11556880852E+03  0.00000000000E+00 0.  1.
</event>
<event>
12    1  0.8633375E-002  0.2520907E+03  0.7818608E-02  0.1112349E+00
         21   -1    0    0  501  502  0.00000000000E+00  0.00000000000E+00  0.36730714857E+03  0.36730714857E+03  0.00000000000E+00 0. -1.
         21   -1    0    0  502  503 -0.00000000000E+00 -0.00000000000E+00 -0.20419977175E+03  0.20419977175E+03  0.00000000000E+00 0.  1.
         -6    2    1    2    0  503  0.21025787021E+02  0.18308414619E+03 -0.33187954746E+02  0.25200482836E+03  0.16865083715E+03 0.  0.
        -24    2    3    3    0    0 -0.28783297055E+02  0.10714608068E+03 -0.70476681825E+02  0.15371915384E+03  0.79711070629E+02 0.  0.
          6    2    1    2  501    0 -0.21025787021E+02 -0.18308414619E+03  0.19629533156E+03  0.31950209196E+03  0.17201116612E+03 0.  0.
         24    2    5    5    0    0  0.46468288880E+02 -0.57599851379E+02  0.10486566590E+03  0.15014084407E+03  0.77900066898E+02 0.  0.
          5    1    5    5  501    0 -0.67494075901E+02 -0.12548429481E+03  0.91429665664E+02  0.16936124789E+03  0.47000000000E+01 0. -1.
        -13    1    6    6    0    0  0.69820495873E+01  0.19556859563E+02  0.21097354119E+02  0.29602670880E+02  0.00000000000E+00 0.  1.
         14    1    6    6    0    0  0.39486239293E+02 -0.77156710942E+02  0.83768311780E+02  0.12053817319E+03  0.00000000000E+00 0. -1.
         -5    1    3    3    0  503  0.49809084076E+02  0.75938065503E+02  0.37288727079E+02  0.98285674521E+02  0.47000000000E+01 0.  1.
         11    1    4    4    0    0 -0.11719360655E+02  0.32988849478E+02  0.16032310531E+02  0.38505098169E+02  0.00000000000E+00 0. -1.
        -12    1    4    4    0    0 -0.17063936400E+02  0.74157231205E+02 -0.86508992356E+02  0.11521405567E+03  0.00000000000E+00 0.  1.
</event>
<event>
12    1  0.8633375E-002  0.2967747E+03  0.7818608E-02  0.1086972E+00
         21   -1    0    0  503  502  0.00000000000E+00  0.00000000000E+00  0.63438003006E+02  0.63438003006E+02  0.00000000000E+00 0. -1.
         21   -1    0    0  501  503 -0.00000000000E+00 -0.00000000000E+00 -0.14621233126E+04  0.14621233126E+04  0.00000000000E+00 0.  1.
          6    2    1    2  501    0 -0.23361979195E+03 -0.58635351916E+02 -0.87425987978E+03  0.92298579186E+03  0.17191894286E+03 0.  0.
         24    2    3    3    0    0 -0.16826329512E+03 -0.96504463774E+02 -0.73638548238E+03  0.76570584792E+03  0.80101303754E+02 0.  0.
         -6    2    1    2    0  502  0.23361979195E+03  0.58635351916E+02 -0.52442542982E+03  0.60257552375E+03  0.17337508093E+03 0.  0.
        -24    2    5    5    0    0  0.63612401685E+02  0.24363819662E+02 -0.30807960131E+03  0.32525863248E+03  0.78993695333E+02 0.  0.
          5    1    3    3  501    0 -0.65356496824E+02  0.37869111858E+02 -0.13787439739E+03  0.15727994394E+03  0.47000000000E+01 0. -1.
        -11    1    4    4    0    0 -0.77074008642E+02 -0.31091584239E+00 -0.25332707431E+03  0.26479257176E+03  0.00000000000E+00 0.  1.
         12    1    4    4    0    0 -0.91189286482E+02 -0.96193547932E+02 -0.48305840807E+03  0.50091327617E+03  0.00000000000E+00 0. -1.
         -5    1    5    5    0  502  0.17000739026E+03  0.34271532254E+02 -0.21634582851E+03  0.27731689127E+03  0.47000000000E+01 0.  1.
         11    1    6    6    0    0  0.32691557574E+02 -0.91529228102E+01 -0.36383060002E+02  0.49761842688E+02  0.00000000000E+00 0. -1.
        -12    1    6    6    0    0  0.30920844111E+02  0.33516742472E+02 -0.27169654131E+03  0.27549678979E+03  0.00000000000E+00 0.  1.
</event>
<event>
12    1  0.8633375E-002  0.2680429E+03  0.7818608E-02  0.1103083E+00
         21   -1    0    0  503  502  0.00000000000E+00  0.00000000000E+00  0.14805328806E+03  0.14805328806E+03  0.00000000000E+00 0.  1.
         21   -1    0    0  501  503 -0.00000000000E+00 -0.00000000000E+00 -0.71855356109E+03  0.71855356109E+03  0.00000000000E+00 0.  1.
          6    2    1    2  501    0 -0.16813301580E+03 -0.10536041310E+03 -0.53818818753E+03  0.60124333168E+03  0.18021512436E+03 0.  0.
         24    2    3    3    0    0 -0.12983975221E+03 -0.80246888950E+02 -0.21886105303E+03  0.27861510608E+03  0.80176632262E+02 0.  0.
         -6    2    1    2    0  502  0.16813301580E+03  0.10536041310E+03 -0.32312085511E+02  0.26536351747E+03  0.17321719858E+03 0.  0.
        -24    2    5    5    0    0  0.17094079097E+03  0.97441429910E+02 -0.72157699690E+02  0.22437136132E+03  0.80126074891E+02 0.  0.
          5    1    3    3  501    0 -0.38293263590E+02 -0.25113524146E+02 -0.31932713449E+03  0.32262822560E+03  0.47000000000E+01 0. -1.
        -11    1    4    4    0    0 -0.96176412416E+02 -0.66079159149E+02 -0.21120764542E+03  0.24129862632E+03  0.00000000000E+00 0.  1.
         12    1    4    4    0    0 -0.33663339795E+02 -0.14167729801E+02 -0.76534076154E+01  0.37316479764E+02  0.00000000000E+00 0. -1.
         -5    1    5    5    0  502 -0.28077751665E+01  0.79189831856E+01  0.39845614179E+02  0.40992156145E+02  0.47000000000E+01 0.  1.
         13    1    6    6    0    0 -0.86401813901E+01  0.29988300052E+01 -0.60788032476E+01  0.10981692255E+02  0.00000000000E+00 0. -1.
        -14    1    6    6    0    0  0.17958097236E+03  0.94442599905E+02 -0.66078896443E+02  0.21338966907E+03  0.00000000000E+00 0.  1.
</event>
<event>
12    1  0.8633375E-002  0.2756128E+03  0.7818608E-02  0.1098253E+00
         21   -1    0    0  503  502  0.00000000000E+00  0.00000000000E+00  0.23335558770E+03  0.23335558770E+03  0.00000000000E+00 0. -1.
         21   -1    0    0  501  503 -0.00000000000E+00 -0.00000000000E+00 -0.38215681554E+03  0.38215681554E+03  0.00000000000E+00 0.  1.
          6    2    1    2  501    0  0.13544051638E+03  0.16671118049E+03 -0.19425308245E+03  0.33718940560E+03  0.17270114079E+03 0.  0.
         24    2    3    3    0    0  0.15839819488E+03  0.12519513003E+03 -0.19392673222E+03  0.28951515729E+03  0.73808130351E+02 0.  0.
         -6    2    1    2    0  502 -0.13544051638E+03 -0.16671118049E+03  0.45451854612E+02  0.27832299764E+03  0.17105867048E+03 0.  0.
        -24    2    5    5    0    0 -0.46177822481E+01 -0.10528836997E+03  0.18676467036E+02  0.13126395916E+03  0.75989813723E+02 0.  0.
          5    1    3    3  501    0 -0.22957678492E+02  0.41516050465E+02 -0.32635022942E+00  0.47674248315E+02  0.47000000000E+01 0. -1.
        -13    1    4    4    0    0  0.47060775129E+02  0.64861073155E+02 -0.38129659838E+02  0.88744274892E+02  0.00000000000E+00 0.  1.
         14    1    4    4    0    0  0.11133741975E+03  0.60334056875E+02 -0.15579707239E+03  0.20077088240E+03  0.00000000000E+00 0. -1.
         -5    1    5    5    0  502 -0.13082273413E+03 -0.61422810529E+02  0.26775387575E+02  0.14705903848E+03  0.47000000000E+01 0.  1.
         13    1    6    6    0    0 -0.27044310034E+02 -0.10305038873E+03  0.96162967611E+01  0.10697312974E+03  0.00000000000E+00 0. -1.
        -14    1    6    6    0    0  0.22426527786E+02 -0.22379812389E+01  0.90601702752E+01  0.24290829421E+02  0.00000000000E+00 0.  1.
</event>
<event>
12    1  0.8633375E-002  0.1799520E+03  0.7818608E-02  0.1167924E+00
         21   -1    0    0  503  502  0.00000000000E+00  0.00000000000E+00  0.16432679874E+03  0.16432679874E+03  0.00000000000E+00 0. -1.
         21   -1    0    0  501  503 -0.00000000000E+00 -0.00000000000E+00 -0.22467924613E+03  0.22467924613E+03  0.00000000000E+00 0. -1.
          6    2    1    2  501    0  0.46957424725E+02 -0.24145300266E+02 -0.98759443120E+02  0.20500108023E+03  0.17170911457E+03 0.  0.
         24    2    3    3    0    0 -0.95732818718E+01  0.30705780746E+02 -0.92874578588E+02  0.12587407152E+03  0.78639060495E+02 0.  0.
         -6    2    1    2    0  502 -0.46957424725E+02  0.24145300266E+02  0.38406995729E+02  0.18400496465E+03  0.17203120192E+03 0.  0.
        -24    2    5    5    0    0 -0.56424585454E+02 -0.45607149259E+02  0.71795239001E+01  0.10685396762E+03  0.78118364836E+02 0.  0.
          5    1    3    3  501    0  0.56530706597E+02 -0.54851081012E+02 -0.58848645318E+01  0.79127008708E+02  0.47000000000E+01 0. -1.
        -13    1    4    4    0    0 -0.11789407240E+01  0.10696005680E+02  0.13525474178E+02  0.17283891068E+02  0.00000000000E+00 0.  1.
         14    1    4    4    0    0 -0.83943411478E+01  0.20009775066E+02 -0.10640005277E+03  0.10859018045E+03  0.00000000000E+00 0. -1.
         -5    1    5    5    0  502  0.94671607289E+01  0.69752449525E+02  0.31227471829E+02  0.77150997037E+02  0.47000000000E+01 0.  1.
         11    1    6    6    0    0  0.94259625905E+01 -0.25484362570E+01  0.24427560882E+02  0.26306824756E+02  0.00000000000E+00 0. -1.
        -12    1    6    6    0    0 -0.65850548044E+02 -0.43058713002E+02 -0.17248036982E+02  0.80547142860E+02  0.00000000000E+00 0.  1.
</event>
<event>
12    1  0.8633375E-002  0.1747429E+03  0.7818608E-02  0.1173070E+00
         21   -1    0    0  501  502  0.00000000000E+00  0.00000000000E+00  0.46284924761E+03  0.46284924761E+03  0.00000000000E+00 0. -1.
         21   -1    0    0  502  503 -0.00000000000E+00 -0.00000000000E+00 -0.16309601227E+03  0.16309601227E+03  0.00000000000E+00 0. -1.
         -6    2    1    2    0  503 -0.12774960628E+02 -0.21428411140E+02 -0.91844830649E+02  0.19712811644E+03  0.17263152943E+03 0.  0.
        -24    2    3    3    0    0 -0.31636294582E+02  0.35945485809E+02 -0.98508755124E+02  0.13618542320E+03  0.80929361620E+02 0.  0.
          6    2    1    2  501    0  0.12774960628E+02  0.21428411140E+02  0.39159806599E+03  0.42881714343E+03  0.17295294386E+03 0.  0.
         24    2    5    5    0    0  0.45988211749E+02  0.56129218411E+02  0.16091104972E+03  0.19313546075E+03  0.78380708713E+02 0.  0.
          5    1    5    5  501    0 -0.33213251122E+02 -0.34700807271E+02  0.23068701627E+03  0.23568168268E+03  0.47000000000E+01 0. -1.
        -11    1    6    6    0    0  0.15307739130E+02  0.71026696482E+02  0.11220813315E+03  0.13367791005E+03  0.00000000000E+00 0.  1.
         12    1    6    6    0    0  0.30680472619E+02 -0.14897478070E+02  0.48702916577E+02  0.59457550707E+02  0.00000000000E+00 0. -1.
         -5    1    3    3    0  503  0.18861333954E+02 -0.57373896949E+02  0.66639244752E+01  0.60942693238E+02  0.47000000000E+01 0.  1.
         13    1    4    4    0    0 -0.56550826602E+02  0.19617053183E+02 -0.83750284890E+02  0.10294141530E+03  0.00000000000E+00 0. -1.
        -14    1    4    4    0    0  0.24914532020E+02  0.16328432626E+02 -0.14758470234E+02  0.33244007903E+02  0.00000000000E+00 0.  1.
</event>
<event>
12    1  0.8633375E-002  0.2039467E+03  0.7818608E-02  0.1149739E+00
         21   -1    0    0  503  502  0.00000000000E+00  0.00000000000E+00  0.88662404639E+02  0.88662404639E+02  0.00000000000E+00 0.  1.
         21   -1    0    0  501  503 -0.00000000000E+00 -0.00000000000E+00 -0.68797956341E+03  0.68797956341E+03  0.00000000000E+00 0.  1.
          6    2    1    2  501    0  0.10107009617E+03 -0.44028360848E+02 -0.54263763180E+03  0.57969807981E+03  0.17158264302E+03 0.  0.
         24    2    3    3    0    0  0.11606422945E+03  0.78129950800E+01 -0.45884094145E+03  0.47991669111E+03  0.79076371941E+02 0.  0.
         -6    2    1    2    0  502 -0.10107009617E+03  0.44028360848E+02 -0.56679526964E+02  0.19694388824E+03  0.15303811760E+03 0.  0.
        -24    2    5    5    0    0 -0.43223024250E+02  0.77450819218E+02 -0.35779581461E+02  0.12678519544E+03  0.83231292854E+02 0.  0.
          5    1    3    3  501    0 -0.14994133282E+02 -0.51841355928E+02 -0.83796690352E+02  0.99781388702E+02  0.47000000000E+01 0. -1.
        -13    1    4    4    0    0  0.44303943738E+02 -0.31426944073E+02 -0.24545582827E+03  0.25139422403E+03  0.00000000000E+00 0.  1.
         14    1    4    4    0    0  0.71760285714E+02  0.39239939153E+02 -0.21338511319E+03  0.22852246708E+03  0.00000000000E+00 0. -1.
         -5    1    5    5    0  502 -0.57847071920E+02 -0.33422458369E+02 -0.20899945502E+02  0.70158692798E+02  0.47000000000E+01 0.  1.
         13    1    6    6    0    0 -0.49268637772E+02  0.51105393388E+02 -0.58098772174E+02  0.91731277269E+02  0.00000000000E+00 0. -1.
        -14    1    6    6    0    0  0.60456135217E+01  0.26345425829E+02  0.22319190713E+02  0.35053918170E+02  0.00000000000E+00 0.  1.
</event>
<event>
12    1  0.8633375E-002  0.2122537E+03  0.7818608E-02  0.1140024E+00
         21   -1    0    0  501  502  0.00000000000E+00  0.00000000000E+00  0.11667326406E+03  0.11667326406E+03  0.00000000000E+00 0. -1.
         21   -1    0    0  502  503 -0.00000000000E+00 -0.00000000000E+00 -0.69010258213E+03  0.69010258213E+03  0.00000000000E+00 0.  1.
         -6    2    1    2    0  503  0.79410994069E+02 -0.94935289740E+02 -0.55581713497E+03  0.59496579690E+03  0.17243200613E+03 0.  0.
        -24    2    3    3    0    0  0.59397918391E+02 -0.13445692217E+03 -0.42159608053E+03  0.45354492120E+03  0.79705481651E+02 0.  0.
          6    2    1    2  501    0 -0.79410994069E+02  0.94935289740E+02 -0.17612183098E+02  0.21181004929E+03  0.17098097195E+03 0.  0.
         24    2    5    5    0    0 -0.11760828801E+03  0.89112827537E+02 -0.30989503706E+02  0.17065209700E+03  0.79931116780E+02 0.  0.
          5    1    5    5  501    0  0.38197293938E+02  0.58224622027E+01  0.13377320608E+02  0.41157952293E+02  0.47000000000E+01 0. -1.
        -11    1    6    6    0    0  0.38941293577E+01  0.29639221338E+02 -0.17657637657E+02  0.34719444877E+02  0.00000000000E+00 0.  1.
         12    1    6    6    0    0 -0.12150241736E+03  0.59473606200E+02 -0.13331866049E+02  0.13593265212E+03  0.00000000000E+00 0. -1.
         -5    1    3    3    0  503  0.20013075678E+02  0.39521632426E+02 -0.13422105444E+03  0.14142087570E+03  0.47000000000E+01 0.  1.
         11    1    4    4    0    0  0.23977841908E+02 -0.80771060437E+02 -0.12982552808E+03  0.15476940540E+03  0.00000000000E+00 0. -1.
        -12    1    4    4    0    0  0.35420076482E+02 -0.53685861729E+02 -0.29177055245E+03  0.29877551580E+03  0.00000000000E+00 0.  1.
</event>
<event>
12    1  0.8633375E-002  0.1770368E+03  0.7818608E-02  0.1170784E+00
         21   -1    0    0  501  502  0.00000000000E+00  0.00000000000E+00  0.17168716436E+03  0.17168716436E+03  0.00000000000E+00 0.  1.
         21   -1    0    0  502  503 -0.00000000000E+00 -0.00000000000E+00 -0.30431998440E+03  0.30431998440E+03  0.00000000000E+00 0.  1.
         -6    2    1    2    0  503 -0.25348663369E+02  0.29605724580E+02 -0.21711634118E+03  0.28014557778E+03  0.17269332783E+03 0.  0.
        -24    2    3    3    0    0  0.26888661086E+02  0.28223949001E+02 -0.41438367013E+02  0.96800307924E+02  0.78317111548E+02 0.  0.
          6    2    1    2  501    0  0.25348663369E+02 -0.29605724580E+02  0.84483521149E+02  0.19586157098E+03  0.17235206984E+03 0.  0.
         24    2    5    5    0    0  0.43405660010E+01  0.26424831049E+02  0.10338454158E+03  0.13293223051E+03  0.79154925685E+02 0.  0.
          5    1    5    5  501    0  0.21008097368E+02 -0.56030555628E+02 -0.18901020431E+02  0.62929340473E+02  0.47000000000E+01 0. -1.
        -13    1    6    6    0    0  0.28210932780E+02 -0.14391710036E+02  0.63949571800E+02  0.71361935088E+02  0.00000000000E+00 0.  1.
         14    1    6    6    0    0 -0.23870366779E+02  0.40816541084E+02  0.39434969779E+02  0.61570295417E+02  0.00000000000E+00 0. -1.
         -5    1    3    3    0  503 -0.52237324455E+02  0.13817755785E+01 -0.17567797417E+03  0.18334526986E+03  0.47000000000E+01 0.  1.
         11    1    4    4    0    0  0.11052267592E+02 -0.22320116934E+02  0.60845497450E+01  0.25639071444E+02  0.00000000000E+00 0. -1.
        -12    1    4    4    0    0  0.15836393494E+02  0.50544065936E+02 -0.47522916758E+02  0.71161236480E+02  0.00000000000E+00 0.  1.
</event>
<event>
12    1  0.8633375E-002  0.1984994E+03  0.7818608E-02  0.1151587E+00
         21   -1    0    0  501  502  0.00000000000E+00  0.00000000000E+00  0.65850016271E+02  0.65850016271E+02  0.00000000000E+00 0.  1.
         21   -1    0    0  502  503 -0.00000000000E+00 -0.00000000000E+00 -0.96133198198E+03  0.96133198198E+03  0.00000000000E+00 0. -1.
         -6    2    1    2    0  503 -0.25533170358E+02  0.90022975777E+02 -0.76868078952E+03  0.79389681529E+03  0.17505975609E+03 0.  0.
        -24    2    3    3    0    0  0.50509461256E+02  0.67092286148E+02 -0.39175524037E+03  0.40866538102E+03  0.80514872858E+02 0.  0.
          6    2    1    2  501    0  0.25533170358E+02 -0.90022975777E+02 -0.12680117620E+03  0.23328518296E+03  0.17200976527E+03 0.  0.
         24    2    5    5    0    0 -0.27368899988E+02 -0.48830287095E+02 -0.85041950303E+01  0.97227355550E+02  0.79040392901E+02 0.  0.
          5    1    5    5  501    0  0.52902070346E+02 -0.41192688682E+02 -0.11829698117E+03  0.13605782741E+03  0.47000000000E+01 0. -1.
        -11    1    6    6    0    0 -0.43591246543E+02 -0.48331106010E+02 -0.28856998054E+02  0.71195638349E+02  0.00000000000E+00 0.  1.
         12    1    6    6    0    0  0.16222346555E+02 -0.49918108511E+00  0.20352803024E+02  0.26031717201E+02  0.00000000000E+00 0. -1.
         -5    1    3    3    0  503 -0.76042631614E+02  0.22930689629E+02 -0.37692554915E+03  0.38523143427E+03  0.47000000000E+01 0.  1.
         13    1    4    4    0    0  0.77752403637E+01 -0.18806923728E+02 -0.73126260414E+02  0.75905235030E+02  0.00000000000E+00 0. -1.
        -14    1    4    4    0    0  0.42734220892E+02  0.85899209876E+02 -0.31862897996E+03  0.33276014599E+03  0.00000000000E+00 0.  1.
</event>
<event>
12    1  0.8633375E-002  0.1967178E+03  0.7818608E-02  0.1153019E+00
         21   -1    0    0  501  502  0.00000000000E+00  0.00000000000E+00  0.10692425105E+03  0.10692425105E+03  0.00000000000E+00 0.  1.
         21   -1    0    0  502  503 -0.00000000000E+00 -0.00000000000E+00 -0.64724100283E+03  0.64724100283E+03  0.00000000000E+00 0.  1.
         -6    2    1    2    0  503 -0.18341650447E+02 -0.93062294635E+02 -0.52314426480E+03  0.55890771348E+03  0.17233950090E+03 0.  0.
        -24    2    3    3    0    0  0.35521782195E+02  0.45821348978E+00 -0.26952560706E+03  0.28324148710E+03  0.79496416147E+02 0.  0.
          6    2    1    2  501    0  0.18341650447E+02  0.93062294635E+02 -0.17172486967E+02  0.19525754040E+03  0.16980461110E+03 0.  0.
         24    2    5    5    0    0  0.60652483045E+02  0.20219140196E+02 -0.40021014788E+02  0.10784771871E+03  0.77083795163E+02 0.  0.
          5    1    5    5  501    0 -0.42310832598E+02  0.72843154439E+02  0.22848527821E+02  0.87409821687E+02  0.47000000000E+01 0. -1.
        -13    1    6    6    0    0  0.60014154324E+02  0.44544157270E+02 -0.23165038440E+02  0.78246403573E+02  0.00000000000E+00 0.  1.
         14    1    6    6    0    0  0.63832872057E+00 -0.24325017075E+02 -0.16855976348E+02  0.29601315138E+02  0.00000000000E+00 0. -1.
         -5    1    3    3    0  503 -0.53863432642E+02 -0.93520508125E+02 -0.25361865774E+03  0.27566622639E+03  0.47000000000E+01 0.  1.
         13    1    4    4    0    0  0.45736771582E+02 -0.22508832062E+02 -0.10403069262E+03  0.11584854251E+03  0.00000000000E+00 0. -1.
        -14    1    4    4    0    0 -0.10214989387E+02  0.22967045552E+02 -0.16549491445E+03  0.16739294459E+03  0.00000000000E+00 0.  1.
</event>
<event>
12    1  0.8633375E-002  0.1999677E+03  0.7818608E-02  0.1150051E+00
         21   -1    0    0  501  502  0.00000000000E+00  0.00000000000E+00  0.85151404141E+02  0.85151404141E+02  0.00000000000E+00 0.  1.
         21   -1    0    0  502  503 -0.00000000000E+00 -0.00000000000E+00 -0.48190011751E+03  0.48190011751E+03  0.00000000000E+00 0.  1.
         -6    2    1    2    0  503  0.98959155256E+02  0.10894129810E+02 -0.14825589553E+03  0.24893151825E+03  0.17342287549E+03 0.  0.
        -24    2    3    3    0    0 -0.80145993844E+01  0.23106507906E+02 -0.10129798631E+03  0.13137446146E+03  0.79998891139E+02 0.  0.
          6    2    1    2  501    0 -0.98959155256E+02 -0.10894129810E+02 -0.24849281783E+03  0.31812000340E+03  0.17187221875E+03 0.  0.
         24    2    5    5    0    0 -0.13315996145E+03 -0.32195715297E+02 -0.20615663136E+03  0.25948643475E+03  0.77874987930E+02 0.  0.
          5    1    5    5  501    0  0.34200806195E+02  0.21301585487E+02 -0.42336186468E+02  0.58633568656E+02  0.47000000000E+01 0. -1.
        -13    1    6    6    0    0 -0.10586113024E+03 -0.10469485151E+02 -0.93760968429E+02  0.14180024053E+03  0.00000000000E+00 0.  1.
         14    1    6    6    0    0 -0.27298831215E+02 -0.21726230146E+02 -0.11239566294E+03  0.11768619421E+03  0.00000000000E+00 0. -1.
         -5    1    3    3    0  503  0.10697375464E+03 -0.12212378097E+02 -0.46957909224E+02  0.11755705678E+03  0.47000000000E+01 0.  1.
         13    1    4    4    0    0 -0.29189442091E+01  0.61751595556E+01 -0.11099735523E+03  0.11120730956E+03  0.00000000000E+00 0. -1.
        -14    1    4    4    0    0 -0.50956551753E+01  0.16931348351E+02  0.96993689190E+01  0.20167151908E+02  0.00000000000E+00 0.  1.
</event>
<event>
12    1  0.8633375E-002  0.2298475E+03  0.7818608E-02  0.1127065E+00
         21   -1    0    0  503  502  0.00000000000E+00  0.00000000000E+00  0.35263135184E+03  0.35263135184E+03  0.00000000000E+00 0. -1.
         21   -1    0    0  501  503 -0.00000000000E+00 -0.00000000000E+00 -0.23280905851E+03  0.23280905851E+03  0.00000000000E+00 0. -1.
          6    2    1    2  501    0 -0.11086510869E+03 -0.10134346790E+03 -0.11623613782E+03  0.25596591112E+03  0.17159876779E+03 0.  0.
         24    2    3    3    0    0 -0.78809626863E+01 -0.24681299530E+02 -0.93369035058E+02  0.12547523415E+03  0.79718138195E+02 0.  0.
         -6    2    1    2    0  502  0.11086510869E+03  0.10134346790E+03  0.23605843115E+03  0.32947449924E+03  0.17397784893E+03 0.  0.
        -24    2    5    5    0    0  0.10570385362E+03  0.88241866338E+02  0.90267476447E+02  0.18292968360E+03  0.79719007731E+02 0.  0.
          5    1    3    3  501    0 -0.10298414601E+03 -0.76662168370E+02 -0.22867102763E+02  0.13049067697E+03  0.47000000000E+01 0. -1.
        -11    1    4    4    0    0 -0.40512695036E+02 -0.52231452604E+01 -0.69474410886E+02  0.80593135399E+02  0.00000000000E+00 0.  1.
         12    1    4    4    0    0  0.32631732349E+02 -0.19458154270E+02 -0.23894624171E+02  0.44882098748E+02  0.00000000000E+00 0. -1.
         -5    1    5    5    0  502  0.51612550771E+01  0.13101601562E+02  0.14579095470E+03  0.14654481564E+03  0.47000000000E+01 0.  1.
         13    1    6    6    0    0  0.33567919508E+02  0.29988414806E+02 -0.10264743403E+02  0.46167902267E+02  0.00000000000E+00 0. -1.
        -14    1    6    6    0    0  0.72135934108E+02  0.58253451532E+02  0.10053221985E+03  0.13676178133E+03  0.00000000000E+00 0.  1.
</event>
<event>
12    1  0.8633375E-002  0.1740798E+03  0.7818608E-02  0.1173724E+00
         21   -1    0    0  503  502  0.00000000000E+00  0.00000000000E+00  0.37535888916E+02  0.37535888916E+02  0.00000000000E+00 0. -1.
         21   -1    0    0  501  503 -0.00000000000E+00 -0.00000000000E+00 -0.12383507276E+04  0.12383507276E+04  0.00000000000E+00 0. -1.
          6    2    1    2  501    0  0.14043260926E+02  0.34696323597E+01 -0.97700604992E+03  0.99234799339E+03  0.17321797501E+03 0.  0.
         24    2    3    3    0    0 -0.34589307694E+02 -0.75902298150E+00 -0.26766692847E+03  0.28131558381E+03  0.79346561177E+02 0.  0.
         -6    2    1    2    0  502 -0.14043260926E+02 -0.34696323597E+01 -0.22380878874E+03  0.28353862311E+03  0.17347773734E+03 0.  0.
        -24    2    5    5    0    0 -0.12154558073E+02 -0.34184843359E+02 -0.38296155380E+02  0.95432220981E+02  0.79525948514E+02 0.  0.
          5    1    3    3  501    0  0.48632568620E+02  0.42286553412E+01 -0.70933912145E+03  0.71103240958E+03  0.47000000000E+01 0. -1.
        -13    1    4    4    0    0 -0.38465516779E+02 -0.33367417003E+02 -0.12617163635E+03  0.13605977480E+03  0.00000000000E+00 0.  1.
         14    1    4    4    0    0  0.38762090852E+01  0.32608394022E+02 -0.14149529212E+03  0.14525580900E+03  0.00000000000E+00 0. -1.
         -5    1    5    5    0  502 -0.18887028527E+01  0.30715211000E+02 -0.18551263336E+03  0.18810640213E+03  0.47000000000E+01 0.  1.
         11    1    6    6    0    0  0.32564903567E+02 -0.17602949030E+02 -0.52051790019E+01  0.37382223681E+02  0.00000000000E+00 0. -1.
        -12    1    6    6    0    0 -0.44719461640E+02 -0.16581894329E+02 -0.33090976378E+02  0.58049997300E+02  0.00000000000E+00 0.  1.
</event>
<event>
12    1  0.8633375E-002  0.1962063E+03  0.7818608E-02  0.1153160E+00
         21   -1    0    0  503  502  0.00000000000E+00  0.00000000000E+00  0.26230750265E+03  0.26230750265E+03  0.00000000000E+00 0. -1.
         21   -1    0    0  501  503 -0.00000000000E+00 -0.00000000000E+00 -0.29741946469E+03  0.29741946469E+03  0.00000000000E+00 0. -1.
          6    2    1    2  501    0 -0.91017083246E+02  0.22038765026E+02 -0.21717021231E+03  0.29267700235E+03  0.17241551548E+03 0.  0.
         24    2    3    3    0    0 -0.92080309039E+02  0.19450764157E+02 -0.23979412334E+03  0.26940127361E+03  0.78858792119E+02 0.  0.
         -6    2    1    2    0  502  0.91017083246E+02 -0.22038765026E+02  0.18205825027E+03  0.26704996499E+03  0.17146620863E+03 0.  0.
        -24    2    5    5    0    0  0.47885479631E+02  0.51760411750E+02  0.10215066096E+03  0.14994331892E+03  0.84119450606E+02 0.  0.
          5    1    3    3  501    0  0.10632257927E+01  0.25880008681E+01  0.22623911033E+02  0.23275728732E+02  0.47000000000E+01 0. -1.
        -13    1    4    4    0    0 -0.28151250306E+02  0.31016416452E+02 -0.16545344768E+03  0.17067323847E+03  0.00000000000E+00 0.  1.
         14    1    4    4    0    0 -0.63929058733E+02 -0.11565652295E+02 -0.74340675669E+02  0.98728035139E+02  0.00000000000E+00 0. -1.
         -5    1    5    5    0  502  0.43131603615E+02 -0.73799176776E+02  0.79907589310E+02  0.11710664606E+03  0.47000000000E+01 0.  1.
         11    1    6    6    0    0  0.20095345024E+02  0.25868888179E+02  0.10676918005E+03  0.11168115363E+03  0.00000000000E+00 0. -1.
        -12    1    6    6    0    0  0.27790134607E+02  0.25891523572E+02 -0.46185190883E+01  0.38262165293E+02  0.00000000000E+00 0.  1.
</event>
<event>
12    1  0.8633375E-002  0.2007206E+03  0.7818608E-02  0.1150062E+00
         21   -1    0    0  503  502  0.00000000000E+00  0.00000000000E+00  0.10755166078E+04  0.10755166078E+04  0.00000000000E+00 0. -1.
         21   -1    0    0  501  503 -0.00000000000E+00 -0.00000000000E+00 -0.11569962038E+03  0.11569962038E+03  0.00000000000E+00 0.  1.
          6    2    1    2  501    0 -0.31458383003E+02  0.88633615966E+02 -0.10730479330E+02  0.20100717369E+03  0.17732228553E+03 0.  0.
         24    2    3    3    0    0 -0.31101953133E+02  0.11280660066E+03 -0.53806329958E+02  0.15138783130E+03  0.79564399590E+02 0.  0.
         -6    2    1    2    0  502  0.31458383003E+02 -0.88633615966E+02  0.97054746670E+03  0.99020905444E+03  0.17235439837E+03 0.  0.
        -24    2    5    5    0    0  0.63609389467E+00 -0.20905587794E+02  0.79602479847E+03  0.80042667636E+03  0.81178422156E+02 0.  0.
          5    1    3    3  501    0 -0.35642986999E+00 -0.24172984694E+02  0.43075850628E+02  0.49619342384E+02  0.47000000000E+01 0. -1.
        -13    1    4    4    0    0 -0.29680706182E+02  0.70165601547E+01  0.41081555731E+01  0.30774232372E+02  0.00000000000E+00 0.  1.
         14    1    4    4    0    0 -0.14212469516E+01  0.10579004051E+03 -0.57914485531E+02  0.12061359893E+03  0.00000000000E+00 0. -1.
         -5    1    5    5    0  502  0.30822289109E+02 -0.67728028172E+02  0.17452266823E+03  0.18978237809E+03  0.47000000000E+01 0.  1.
         13    1    6    6    0    0  0.35999695967E+02 -0.28403199930E+02  0.52557385130E+03  0.52757046263E+03  0.00000000000E+00 0. -1.
        -14    1    6    6    0    0 -0.35363602073E+02  0.74976121358E+01  0.27045094717E+03  0.27285621372E+03  0.00000000000E+00 0.  1.
</event>
<event>
12    1  0.8633375E-002  0.2039843E+03  0.7818608E-02  0.1146631E+00
         21   -1    0    0  503  502  0.00000000000E+00  0.00000000000E+00  0.27707870612E+03  0.27707870612E+03  0.00000000000E+00 0.  1.
         21   -1    0    0  501  503 -0.00000000000E+00 -0.00000000000E+00 -0.20122097083E+04  0.20122097083E+04  0.00000000000E+00 0. -1.
          6    2    1    2  501    0  0.46138413322E+02  0.10033787140E+03 -0.19690532094E+04  0.19795908999E+04  0.17150261821E+03 0.  0.
         24    2    3    3    0    0 -0.11373115128E+02  0.86470774890E+02 -0.77419684763E+03  0.78326164445E+03  0.80693879159E+02 0.  0.
         -6    2    1    2    0  502 -0.46138413322E+02 -0.10033787140E+03  0.23392220717E+03  0.30969751454E+03  0.17028361602E+03 0.  0.
        -24    2    5    5    0    0 -0.19910260891E+02 -0.47193073029E+02  0.23206408940E+03  0.25021786949E+03  0.78304763537E+02 0.  0.
          5    1    3    3  501    0  0.57511528450E+02  0.13867096512E+02 -0.11948563617E+04  0.11963292555E+04  0.47000000000E+01 0. -1.
        -13    1    4    4    0    0 -0.39629121231E+02  0.59574425178E+02 -0.62370903425E+03  0.62779976011E+03  0.00000000000E+00 0.  1.
         14    1    4    4    0    0  0.28256006103E+02  0.26896349712E+02 -0.15048781338E+03  0.15546188434E+03  0.00000000000E+00 0. -1.
         -5    1    5    5    0  502 -0.26228152430E+02 -0.53144798373E+02  0.18581177709E+01  0.59479645053E+02  0.47000000000E+01 0.  1.
         11    1    6    6    0    0  0.28014024632E+02 -0.17346787245E+02  0.12388800626E+03  0.12819490902E+03  0.00000000000E+00 0. -1.
        -12    1    6    6    0    0 -0.47924285524E+02 -0.29846285784E+02  0.10817608313E+03  0.12202296046E+03  0.00000000000E+00 0.  1.
</event>
<event>
12    1  0.8633375E-002  0.1926118E+03  0.7818608E-02  0.1156400E+00
         21   -1    0    0  503  502  0.00000000000E+00  0.00000000000E+00  0.26129091877E+03  0.26129091877E+03  0.00000000000E+00 0.  1.
         21   -1    0    0  501  503 -0.00000000000E+00 -0.00000000000E+00 -0.43463587537E+03  0.43463587537E+03  0.00000000000E+00 0.  1.
          6    2    1    2  501    0  0.14477549656E+02 -0.83833277205E+02 -0.37254979855E+03  0.41883138511E+03  0.17143149928E+03 0.  0.
         24    2    3    3    0    0  0.73001499298E+02 -0.74071863370E+02 -0.23424555968E+03  0.26826415637E+03  0.79238977287E+02 0.  0.
         -6    2    1    2    0  502 -0.14477549656E+02  0.83833277205E+02  0.19920484195E+03  0.27709540902E+03  0.17280532062E+03 0.  0.
        -24    2    5    5    0    0 -0.58347744910E+02  0.10271171837E+03  0.15871635827E+03  0.21430689986E+03  0.82355379403E+02 0.  0.
          5    1    3    3  501    0 -0.58523949643E+02 -0.97614138349E+01 -0.13830423887E+03  0.15056722874E+03  0.47000000000E+01 0. -1.
        -11    1    4    4    0    0  0.69477852858E+01 -0.57993464858E+02 -0.74589633110E+02  0.94737147171E+02  0.00000000000E+00 0.  1.
         12    1    4    4    0    0  0.66053714013E+02 -0.16078398512E+02 -0.15965592657E+03  0.17352700920E+03  0.00000000000E+00 0. -1.
         -5    1    5    5    0  502  0.43870195254E+02 -0.18878441166E+02  0.40488483684E+02  0.62788509168E+02  0.47000000000E+01 0.  1.
         13    1    6    6    0    0 -0.20150112408E+01  0.25429320088E+02 -0.37498002758E+01  0.25783164906E+02  0.00000000000E+00 0. -1.
        -14    1    6    6    0    0 -0.56332733670E+02  0.77282398282E+02  0.16246615855E+03  0.18852373495E+03  0.00000000000E+00 0.  1.
</event>
<event>
12    1  0.8633375E-002  0.1974506E+03  0.7818608E-02  0.1151983E+00
         21   -1    0    0  503  502  0.00000000000E+00  0.00000000000E+00  0.13885466442E+03  0.13885466442E+03  0.00000000000E+00 0. -1.
         21   -1    0    0  501  503 -0.00000000000E+00 -0.00000000000E+00 -0.82380442373E+03  0.82380442373E+03  0.00000000000E+00 0. -1.
          6    2    1    2  501    0  0.54237958370E+02  0.80756412830E+02 -0.73354495999E+03  0.75965450014E+03  0.17182373796E+03 0.  0.
         24    2    3    3    0    0  0.62600721830E+00  0.82573796151E+02 -0.65193756232E+03  0.66188230807E+03  0.79036579383E+02 0.  0.
         -6    2    1    2    0  502 -0.54237958370E+02 -0.80756412830E+02  0.48595200673E+02  0.20300458800E+03  0.17142349570E+03 0.  0.
        -24    2    5    5    0    0 -0.54274021064E+02 -0.47154629392E+02 -0.35253158497E+02  0.11255173572E+03  0.79094118576E+02 0.  0.
          5    1    3    3  501    0  0.53611951152E+02 -0.18173833210E+01 -0.81607397664E+02  0.97772192069E+02  0.47000000000E+01 0. -1.
        -11    1    4    4    0    0 -0.30210969527E+01 -0.97866415741E+01 -0.14354489573E+02  0.17633965833E+02  0.00000000000E+00 0.  1.
         12    1    4    4    0    0  0.36471041710E+01  0.92360437725E+02 -0.63758307275E+03  0.64424834224E+03  0.00000000000E+00 0. -1.
         -5    1    5    5    0  502  0.36062693879E-01 -0.33601783438E+02  0.83848359170E+02  0.90452852283E+02  0.47000000000E+01 0.  1.
         11    1    6    6    0    0 -0.46880371266E+02 -0.32615878921E+02  0.15554262856E+02  0.59190369663E+02  0.00000000000E+00 0. -1.
        -12    1    6    6    0    0 -0.73936497975E+01 -0.14538750470E+02 -0.50807421353E+02  0.53361366053E+02  0.00000000000E+00 0.  1.
</event>
<event>
12    1  0.8633375E-002  0.2031678E+03  0.7818608E-02  0.1147268E+00
         21   -1    0    0  503  502  0.00000000000E+00  0.00000000000E+00  0.52161701369E+03  0.52161701369E+03  0.00000000000E+00 0.  1.
         21   -1    0    0  501  503 -0.00000000000E+00 -0.00000000000E+00 -0.79694557636E+02  0.79694557636E+02  0.00000000000E+00 0. -1.
          6    2    1    2  501    0  0.94621409227E+02  0.48273312770E+02  0.18875061333E+03  0.27669928572E+03  0.17219807453E+03 0.  0.
         24    2    3    3    0    0 -0.24352784752E+00 -0.59913705624E+01  0.12652591890E+03  0.15085011114E+03  0.81920644844E+02 0.  0.
         -6    2    1    2    0  502 -0.94621409227E+02 -0.48273312770E+02  0.25317184272E+03  0.32461228561E+03  0.17318669179E+03 0.  0.
        -24    2    5    5    0    0 -0.77548858887E+02  0.16928626687E+00  0.52960627799E+02  0.11786418294E+03  0.71226984710E+02 0.  0.
          5    1    3    3  501    0  0.94864937075E+02  0.54264683332E+02  0.62224694434E+02  0.12584917457E+03  0.47000000000E+01 0. -1.
        -13    1    4    4    0    0  0.37758461115E+02  0.86407919768E+01  0.80899177117E+02  0.89694155495E+02  0.00000000000E+00 0.  1.
         14    1    4    4    0    0 -0.38001988962E+02 -0.14632162539E+02  0.45626741784E+02  0.61155955650E+02  0.00000000000E+00 0. -1.
         -5    1    5    5    0  502 -0.17072550340E+02 -0.48442599036E+02  0.20021121493E+03  0.20674810267E+03  0.47000000000E+01 0.  1.
         11    1    6    6    0    0 -0.66080072524E+02  0.13711891587E+02  0.61083685207E+01  0.67763589940E+02  0.00000000000E+00 0. -1.
        -12    1    6    6    0    0 -0.11468786363E+02 -0.13542605320E+02  0.46852259278E+02  0.50100593000E+02  0.00000000000E+00 0.  1.
</event>
<event>
12    1  0.8633375E-002  0.1916728E+03  0.7818608E-02  0.1157155E+00
         21   -1    0    0  503  502  0.00000000000E+00  0.00000000000E+00  0.17044453921E+03  0.17044453921E+03  0.00000000000E+00 0. -1.
         21   -1    0    0  501  503 -0.00000000000E+00 -0.00000000000E+00 -0.31341583011E+03  0.31341583011E+03  0.00000000000E+00 0. -1.
          6    2    1    2  501    0 -0.82713907819E+02 -0.19430203204E+02 -0.20723999341E+03  0.28169972942E+03  0.17084261572E+03 0.  0.
         24    2    3    3    0    0  0.18759625770E+02 -0.32312374644E+02 -0.10243180269E+03  0.13517438963E+03  0.79898862912E+02 0.  0.
         -6    2    1    2    0  502  0.82713907819E+02  0.19430203204E+02  0.64268702504E+02  0.20216063990E+03  0.17181191711E+03 0.  0.
        -24    2    5    5    0    0  0.90035734080E+02  0.41858297354E+02  0.97542670259E+02  0.16110122591E+03  0.81120170119E+02 0.  0.
          5    1    3    3  501    0 -0.10147353359E+03  0.12882171440E+02 -0.10480819071E+03  0.14652533979E+03  0.47000000000E+01 0. -1.
        -11    1    4    4    0    0  0.14336905512E+02 -0.65997911810E+01  0.10703247944E+02  0.19069966435E+02  0.00000000000E+00 0.  1.
         12    1    4    4    0    0  0.44227202578E+01 -0.25712583463E+02 -0.11313505064E+03  0.11610442319E+03  0.00000000000E+00 0. -1.
         -5    1    5    5    0  502 -0.73218262613E+01 -0.22428094149E+02 -0.33273967756E+02  0.41059413990E+02  0.47000000000E+01 0.  1.
         13    1    6    6    0    0  0.50061722557E+02 -0.15871732857E+02  0.65397271267E+02  0.83874257424E+02  0.00000000000E+00 0. -1.
        -14    1    6    6    0    0  0.39974011523E+02  0.57730030211E+02  0.32145398993E+02  0.77226968488E+02  0.00000000000E+00 0.  1.
</event>
<event>
12    1  0.8633375E-002  0.2649949E+03  0.7818608E-02  0.1104217E+00
         21   -1    0    0  503  502  0.00000000000E+00  0.00000000000E+00  0.82291834998E+02  0.82291834998E+02  0.00000000000E+00 0.  1.
         21   -1    0    0  501  503 -0.00000000000E+00 -0.00000000000E+00 -0.98233294386E+03  0.98233294386E+03  0.00000000000E+00 0. -1.
          6    2    1    2  501    0  0.18168005801E+03 -0.88585372998E+02 -0.64373253989E+03  0.69614215803E+03  0.17136892800E+03 0.  0.
         24    2    3    3    0    0  0.42576305548E+02  0.61368169183E+01 -0.15677440056E+03  0.18090195514E+03  0.79353023803E+02 0.  0.
         -6    2    1    2    0  502 -0.18168005801E+03  0.88585372998E+02 -0.25630856898E+03  0.36848262083E+03  0.17096884961E+03 0.  0.
        -24    2    5    5    0    0 -0.14455233344E+03  0.82631869471E+00 -0.17259557083E+03  0.24155714820E+03  0.87547500661E+02 0.  0.
          5    1    3    3  501    0  0.13910375246E+03 -0.94722189917E+02 -0.48695813933E+03  0.51524020289E+03  0.47000000000E+01 0. -1.
        -11    1    4    4    0    0  0.58941075378E+02 -0.25420858793E+01 -0.67156347883E+02  0.89389527509E+02  0.00000000000E+00 0.  1.
         12    1    4    4    0    0 -0.16364769830E+02  0.86789027976E+01 -0.89618052675E+02  0.91512427629E+02  0.00000000000E+00 0. -1.
         -5    1    5    5    0  502 -0.37127724573E+02  0.87759054304E+02 -0.83712998149E+02  0.12692547263E+03  0.47000000000E+01 0.  1.
         13    1    6    6    0    0 -0.25008248757E+02 -0.36035579527E+02 -0.42595953325E+02  0.61142380861E+02  0.00000000000E+00 0. -1.
        -14    1    6    6    0    0 -0.11954408468E+03  0.36861898222E+02 -0.12999961750E+03  0.18041476734E+03  0.00000000000E+00 0.  1.
</event>
<event>
12    1  0.8633375E-002  0.1889680E+03  0.7818608E-02  0.1159700E+00
         21   -1    0    0  503  502  0.00000000000E+00  0.00000000000E+00  0.91652110251E+03  0.91652110251E+03  0.00000000000E+00 0.  1.
         21   -1    0    0  501  503 -0.00000000000E+00 -0.00000000000E+00 -0.26998156425E+03  0.26998156425E+03  0.00000000000E+00 0.  1.
          6    2    1    2  501    0 -0.40414378951E+02 -0.64891700058E+02 -0.22566974963E+03  0.29433947380E+03  0.17281387438E+03 0.  0.
         24    2    3    3    0    0 -0.20150095683E+02 -0.65297982212E+02 -0.24508677045E+03  0.26588043413E+03  0.77168823801E+02 0.  0.
         -6    2    1    2    0  502  0.40414378951E+02  0.64891700058E+02  0.87220928789E+03  0.89216319296E+03  0.17135304559E+03 0.  0.
        -24    2    5    5    0    0  0.38490788955E+02 -0.28536136983E+02  0.46017075738E+03  0.46963473054E+03  0.80646154487E+02 0.  0.
          5    1    3    3  501    0 -0.20264283268E+02  0.40628215387E+00  0.19417020820E+02  0.28459039673E+02  0.47000000000E+01 0. -1.
        -13    1    4    4    0    0 -0.46600962450E+02 -0.42298345707E+02 -0.19377740600E+03  0.20374121533E+03  0.00000000000E+00 0.  1.
         14    1    4    4    0    0  0.26450866767E+02 -0.22999636505E+02 -0.51309364454E+02  0.62139218797E+02  0.00000000000E+00 0. -1.
         -5    1    5    5    0  502  0.19235899961E+01  0.93427837042E+02  0.41203853051E+03  0.42252846243E+03  0.47000000000E+01 0.  1.
         13    1    6    6    0    0  0.48963611362E+02 -0.19489612091E+01  0.14267286798E+03  0.15085350823E+03  0.00000000000E+00 0. -1.
        -14    1    6    6    0    0 -0.10472822407E+02 -0.26587175774E+02  0.31749788939E+03  0.31878122230E+03  0.00000000000E+00 0.  1.
</event>
<event>
12    1  0.8633375E-002  0.3372668E+03  0.7818608E-02  0.1068079E+00
         21   -1    0    0  501  502  0.00000000000E+00  0.00000000000E+00  0.16836697330E+04  0.16836697330E+04  0.00000000000E+00 0.  1.
         21   -1    0    0  502  503 -0.00000000000E+00 -0.00000000000E+00 -0.13411464701E+03  0.13411464701E+03  0.00000000000E+00 0. -1.
         -6    2    1    2    0  503  0.79209068217E+02 -0.27755440510E+03  0.14166547896E+04  0.14562484891E+04  0.17446588450E+03 0.  0.
        -24    2    3    3    0    0  0.79250831446E+02 -0.76771752286E+02  0.61970187827E+03  0.63437884720E+03  0.78939898711E+02 0.  0.
          6    2    1    2  501    0 -0.79209068217E+02  0.27755440510E+03  0.13290029639E+03  0.36153589091E+03  0.17243893807E+03 0.  0.
         24    2    5    5    0    0 -0.25118682676E+02  0.24931949822E+03  0.66409689906E+02  0.27116957791E+03  0.79570928500E+02 0.  0.
          5    1    5    5  501    0 -0.54090385541E+02  0.28234906880E+02  0.66490606485E+02  0.90366313000E+02  0.47000000000E+01 0. -1.
        -13    1    6    6    0    0  0.24748995995E+02  0.10903081675E+03  0.11156919331E+02  0.11235972879E+03  0.00000000000E+00 0.  1.
         14    1    6    6    0    0 -0.49867678672E+02  0.14028868146E+03  0.55252770575E+02  0.15880984912E+03  0.00000000000E+00 0. -1.
         -5    1    3    3    0  503 -0.41763228758E-01 -0.20078265281E+03  0.79695291136E+03  0.82186964194E+03  0.47000000000E+01 0.  1.
         11    1    4    4    0    0  0.24114552662E+02 -0.71737637954E+02  0.27351554084E+03  0.28379314902E+03  0.00000000000E+00 0. -1.
        -12    1    4    4    0    0  0.55136278784E+02 -0.50341143327E+01  0.34618633743E+03  0.35058569818E+03  0.00000000000E+00 0.  1.
</event>
<event>
12    1  0.8633375E-002  0.1798748E+03  0.7818608E-02  0.1168593E+00
         21   -1    0    0  503  502  0.00000000000E+00  0.00000000000E+00  0.70923430660E+03  0.70923430660E+03  0.00000000000E+00 0.  1.
         21   -1    0    0  501  503 -0.00000000000E+00 -0.00000000000E+00 -0.45536187946E+02  0.45536187946E+02  0.00000000000E+00 0.  1.
          6    2    1    2  501    0 -0.54740045323E+02  0.10103627349E+01  0.29073740014E+03  0.34188182432E+03  0.17134016624E+03 0.  0.
         24    2    3    3    0    0  0.10167040789E+02 -0.50422305578E+02  0.13176025600E+03  0.16256626014E+03  0.80132679090E+02 0.  0.
         -6    2    1    2    0  502  0.54740045323E+02 -0.10103627349E+01  0.37296071852E+03  0.41288867023E+03  0.16846323946E+03 0.  0.
        -24    2    5    5    0    0  0.95388272963E+02 -0.11309423101E+02  0.21146531601E+03  0.24597191228E+03  0.80980096827E+02 0.  0.
          5    1    3    3  501    0 -0.64907086112E+02  0.51432668313E+02  0.15897714414E+03  0.17931556418E+03  0.47000000000E+01 0. -1.
        -11    1    4    4    0    0 -0.94638332128E+01 -0.21398835496E+02  0.12463221398E+03  0.12680955430E+03  0.00000000000E+00 0.  1.
         12    1    4    4    0    0  0.19630874002E+02 -0.29023470082E+02  0.71280420128E+01  0.35756705841E+02  0.00000000000E+00 0. -1.
         -5    1    5    5    0  502 -0.40648227640E+02  0.10299060366E+02  0.16149540251E+03  0.16691675795E+03  0.47000000000E+01 0.  1.
         11    1    6    6    0    0  0.98912977650E+02 -0.31439531920E+02  0.16133929064E+03  0.19184000630E+03  0.00000000000E+00 0. -1.
        -12    1    6    6    0    0 -0.35247046875E+01  0.20130108819E+02  0.50126025375E+02  0.54131905971E+02  0.00000000000E+00 0.  1.
</event>
<event>
12    1  0.8633375E-002  0.1942043E+03  0.7818608E-02  0.1155990E+00
         21   -1    0    0  501  502  0.00000000000E+00  0.00000000000E+00  0.80331796662E+02  0.80331796662E+02  0.00000000000E+00 0.  1.
         21   -1    0    0  502  503 -0.00000000000E+00 -0.00000000000E+00 -0.77241087347E+03  0.77241087347E+03  0.00000000000E+00 0. -1.
         -6    2    1    2    0  503  0.83532944871E+02  0.35570586591E+02 -0.62201868296E+03  0.65163067955E+03  0.17167492848E+03 0.  0.
        -24    2    3    3    0    0  0.11448123493E+03  0.45341806421E+02 -0.58061551481E+03  0.59881415062E+03  0.79386260716E+02 0.  0.
          6    2    1    2  501    0 -0.83532944871E+02 -0.35570586591E+02 -0.70060393843E+02  0.20111199058E+03  0.16521063664E+03 0.  0.
         24    2    5    5    0    0 -0.94943824154E+02  0.23383478497E+02 -0.61666068088E+02  0.14029797360E+03  0.79496544773E+02 0.  0.
          5    1    5    5  501    0  0.11410879283E+02 -0.58954065088E+02 -0.83943257550E+01  0.60814016980E+02  0.47000000000E+01 0. -1.
        -11    1    6    6    0    0  0.65923315243E+01 -0.98813327053E+01  0.65180663306E+01  0.13549345359E+02  0.00000000000E+00 0.  1.
         12    1    6    6    0    0 -0.10153615568E+03  0.33264811203E+02 -0.68184134419E+02  0.12674862824E+03  0.00000000000E+00 0. -1.
         -5    1    3    3    0  503 -0.30948290061E+02 -0.97712198307E+01 -0.41403168153E+02  0.52816528926E+02  0.47000000000E+01 0.  1.
         13    1    4    4    0    0  0.27026766668E+02 -0.80857883243E+01 -0.27564372757E+03  0.27708354451E+03  0.00000000000E+00 0. -1.
        -14    1    4    4    0    0  0.87454468263E+02  0.53427594746E+02 -0.30497178724E+03  0.32173060612E+03  0.00000000000E+00 0.  1.
</event>
<event>
12    1  0.8633375E-002  0.2590234E+03  0.7818608E-02  0.1107836E+00
         21   -1    0    0  501  502  0.00000000000E+00  0.00000000000E+00  0.51116221932E+03  0.51116221932E+03  0.00000000000E+00 0.  1.
         21   -1    0    0  502  503 -0.00000000000E+00 -0.00000000000E+00 -0.13863938520E+03  0.13863938520E+03  0.00000000000E+00 0. -1.
         -6    2    1    2    0  503  0.19248711318E+03 -0.14413063338E+02  0.10976689528E+03  0.28132166219E+03  0.17272545031E+03 0.  0.
        -24    2    3    3    0    0  0.14152026267E+03 -0.32618278469E+02  0.78521919592E+01  0.16583250053E+03  0.79666959754E+02 0.  0.
          6    2    1    2  501    0 -0.19248711318E+03  0.14413063338E+02  0.26275593883E+03  0.36847994233E+03  0.17169088319E+03 0.  0.
         24    2    5    5    0    0 -0.68620752521E+02  0.58384190757E+02  0.17042773431E+03  0.20778481888E+03  0.77533198878E+02 0.  0.
          5    1    5    5  501    0 -0.12386636066E+03 -0.43971127419E+02  0.92328204527E+02  0.16069512345E+03  0.47000000000E+01 0. -1.
        -13    1    6    6    0    0  0.14840493644E+02 -0.31147801324E+01  0.20241484100E+02  0.25291496307E+02  0.00000000000E+00 0.  1.
         14    1    6    6    0    0 -0.83461246165E+02  0.61498970889E+02  0.15018625021E+03  0.18249332257E+03  0.00000000000E+00 0. -1.
         -5    1    3    3    0  503  0.50966850511E+02  0.18205215131E+02  0.10191470332E+03  0.11548916167E+03  0.47000000000E+01 0.  1.
         11    1    4    4    0    0  0.13881889973E+02  0.66963517995E+00 -0.26149167261E+02  0.29613075303E+02  0.00000000000E+00 0. -1.
        -12    1    4    4    0    0  0.12763837270E+03 -0.33287913649E+02  0.34001359220E+02  0.13621942522E+03  0.00000000000E+00 0.  1.
</event>
<event>
12    1  0.8633375E-002  0.1784901E+03  0.7818608E-02  0.1169850E+00
         21   -1    0    0  501  502  0.00000000000E+00  0.00000000000E+00  0.22952132548E+03  0.22952132548E+03  0.00000000000E+00 0.  1.
         21   -1    0    0  502  503 -0.00000000000E+00 -0.00000000000E+00 -0.17117114791E+03  0.17117114791E+03  0.00000000000E+00 0.  1.
         -6    2    1    2    0  503  0.40731098541E+02  0.62370775695E+01 -0.60200550355E+02  0.18836882786E+03  0.17366860833E+03 0.  0.
        -24    2    3    3    0    0  0.68648173858E+02  0.55117763347E+02 -0.57409570571E+02  0.13181297843E+03  0.79550379497E+02 0.  0.
          6    2    1    2  501    0 -0.40731098541E+02 -0.62370775695E+01  0.11855072793E+03  0.21232364553E+03  0.17125750154E+03 0.  0.
         24    2    5    5    0    0 -0.14981798261E+02 -0.66873730874E+02  0.97761830913E+02  0.14308421726E+03  0.78861698461E+02 0.  0.
          5    1    5    5  501    0 -0.25749300281E+02  0.60636653304E+02  0.20788897020E+02  0.69239428278E+02  0.47000000000E+01 0. -1.
        -11    1    6    6    0    0 -0.41082616958E+02 -0.55201035680E+02  0.90308644325E+02  0.11353672091E+03  0.00000000000E+00 0.  1.
         12    1    6    6    0    0  0.26100818697E+02 -0.11672695194E+02  0.74531865880E+01  0.29547496342E+02  0.00000000000E+00 0. -1.
         -5    1    3    3    0  503 -0.27917075317E+02 -0.48880685778E+02 -0.27909797831E+01  0.56555849428E+02  0.47000000000E+01 0.  1.
         11    1    4    4    0    0  0.28003177899E+02  0.54455388099E+02  0.28690926974E+00  0.61234382355E+02  0.00000000000E+00 0. -1.
        -12    1    4    4    0    0  0.40644995959E+02  0.66237524858E+00 -0.57696479841E+02  0.70578596073E+02  0.00000000000E+00 0.  1.
</event>
<event>
12    1  0.8633375E-002  0.2043810E+03  0.7818608E-02  0.1146964E+00
         21   -1    0    0  501  502  0.00000000000E+00  0.00000000000E+00  0.10179456190E+04  0.10179456190E+04  0.00000000000E+00 0.  1.
         21   -1    0    0  502  503 -0.00000000000E+00 -0.00000000000E+00 -0.44088498173E+02  0.44088498173E+02  0.00000000000E+00 0. -1.
         -6    2    1    2    0  503 -0.60262781927E+02 -0.90896150639E+02  0.32457787443E+03  0.38134688142E+03  0.16787177939E+03 0.  0.
        -24    2    3    3    0    0  0.12144696657E+02 -0.11799778154E+01  0.98505803840E+02  0.12753099200E+03  0.80074181398E+02 0.  0.
          6    2    1    2  501    0  0.60262781927E+02  0.90896150639E+02  0.64927924644E+03  0.68068723579E+03  0.17285213342E+03 0.  0.
         24    2    5    5    0    0  0.63766983629E+02  0.11264790765E+03  0.36649305343E+03  0.39700512617E+03  0.80871086883E+02 0.  0.
          5    1    5    5  501    0 -0.35042017019E+01 -0.21751757013E+02  0.28278619300E+03  0.28368210962E+03  0.47000000000E+01 0. -1.
        -11    1    6    6    0    0  0.84416161521E+01 -0.10350043828E+02  0.12918014153E+02  0.18581156588E+02  0.00000000000E+00 0.  1.
         12    1    6    6    0    0  0.55325367476E+02  0.12299795148E+03  0.35357503928E+03  0.37842396959E+03  0.00000000000E+00 0. -1.
         -5    1    3    3    0  503 -0.72407478584E+02 -0.89716172823E+02  0.22607207059E+03  0.25381588942E+03  0.47000000000E+01 0.  1.
         13    1    4    4    0    0 -0.82403073355E+01 -0.21480886674E+02 -0.18993405257E+01  0.23085464079E+02  0.00000000000E+00 0. -1.
        -14    1    4    4    0    0  0.20385003992E+02  0.20300908859E+02  0.10040514437E+03  0.10444552792E+03  0.00000000000E+00 0.  1.
</event>
<event>
12    1  0.8633375E-002  0.1894412E+03  0.7818608E-02  0.1159252E+00
         21   -1    0    0  503  502  0.00000000000E+00  0.00000000000E+00  0.46581093135E+03  0.46581093135E+03  0.00000000000E+00 0.  1.
         21   -1    0    0  501  503 -0.00000000000E+00 -0.00000000000E+00 -0.12815001807E+03  0.12815001807E+03  0.00000000000E+00 0.  1.
          6    2    1    2  501    0 -0.44251140116E+02  0.64330777651E+02 -0.19981833088E+02  0.18924337694E+03  0.17122257359E+03 0.  0.
         24    2    3    3    0    0 -0.43134239967E+02  0.10259177089E+03  0.13384336518E+02  0.13824786396E+03  0.80917842997E+02 0.  0.
         -6    2    1    2    0  502  0.44251140116E+02 -0.64330777651E+02  0.35764274637E+03  0.40471757248E+03  0.17260175864E+03 0.  0.
        -24    2    5    5    0    0 -0.31345530464E+01 -0.41250392242E+02  0.76827199544E+02  0.11895968641E+03  0.80855229386E+02 0.  0.
          5    1    3    3  501    0 -0.11169001490E+01 -0.38260993236E+02 -0.33366169606E+02  0.50995512974E+02  0.47000000000E+01 0. -1.
        -13    1    4    4    0    0 -0.39890788140E+02  0.10927118956E+03 -0.70180004647E+01  0.11653634702E+03  0.00000000000E+00 0.  1.
         14    1    4    4    0    0 -0.32434518266E+01 -0.66794186743E+01  0.20402336983E+02  0.21711516942E+02  0.00000000000E+00 0. -1.
         -5    1    5    5    0  502  0.47385693162E+02 -0.23080385409E+02  0.28081554683E+03  0.28575788606E+03  0.47000000000E+01 0.  1.
         11    1    6    6    0    0 -0.79170636773E+01 -0.55965416577E+02  0.84521571712E+02  0.10167941697E+03  0.00000000000E+00 0. -1.
        -12    1    6    6    0    0  0.47825106309E+01  0.14715024335E+02 -0.76943721682E+01  0.17280269448E+02  0.00000000000E+00 0.  1.
</event>
<event>
12    1  0.8633375E-002  0.1877599E+03  0.7818608E-02  0.1160552E+00
         21   -1    0    0  501  502  0.00000000000E+00  0.00000000000E+00  0.18092792473E+04  0.18092792473E+04  0.00000000000E+00 0.  1.
         21   -1    0    0  502  503 -0.00000000000E+00 -0.00000000000E+00 -0.20599222842E+02  0.20599222842E+02  0.00000000000E+00 0.  1.
         -6    2    1    2    0  503 -0.45755179730E+02  0.57356202534E+02  0.11089585845E+04  0.11247011779E+04  0.17256977458E+03 0.  0.
        -24    2    3    3    0    0 -0.65527879120E+02  0.15402413975E+02  0.37948340894E+03  0.39373797656E+03  0.80565496532E+02 0.  0.
          6    2    1    2  501    0  0.45755179730E+02 -0.57356202534E+02  0.67972144001E+03  0.70517729225E+03  0.17283086255E+03 0.  0.
         24    2    5    5    0    0  0.89694333329E+02 -0.73921664811E+02  0.49571273941E+03  0.51521320180E+03  0.78765711729E+02 0.  0.
          5    1    5    5  501    0 -0.43939153599E+02  0.16565462277E+02  0.18400870060E+03  0.18996409044E+03  0.47000000000E+01 0. -1.
        -11    1    6    6    0    0  0.56562736155E+02 -0.78303047852E+02  0.26427928223E+03  0.28137919155E+03  0.00000000000E+00 0.  1.
         12    1    6    6    0    0  0.33131597174E+02  0.43813830410E+01  0.23143345718E+03  0.23383401025E+03  0.00000000000E+00 0. -1.
         -5    1    3    3    0  503  0.19772699391E+02  0.41953788559E+02  0.72947517554E+03  0.73096320136E+03  0.47000000000E+01 0.  1.
         13    1    4    4    0    0  0.57736339209E+01  0.16513215426E+02  0.17306741603E+02  0.24607812525E+02  0.00000000000E+00 0. -1.
        -14    1    4    4    0    0 -0.71301513041E+02 -0.11108014506E+01  0.36217666734E+03  0.36913016404E+03  0.00000000000E+00 0.  1.
</event>
<event>
12    1  0.8633375E-002  0.2378859E+03  0.7818608E-02  0.1121224E+00
         21   -1    0    0  501  502  0.00000000000E+00  0.00000000000E+00  0.10360104095E+03  0.10360104095E+03  0.00000000000E+00 0. -1.
         21   -1    0    0  502  503 -0.00000000000E+00 -0.00000000000E+00 -0.82132672747E+03  0.82132672747E+03  0.00000000000E+00 0.  1.
         -6    2    1    2    0  503 -0.83571903315E+02 -0.14047913107E+03 -0.62656690594E+03  0.67017375840E+03  0.17270822081E+03 0.  0.
        -24    2    3    3    0    0 -0.11435089911E+03 -0.61832554954E+02 -0.39224628885E+03  0.42105356229E+03  0.80805681847E+02 0.  0.
          6    2    1    2  501    0  0.83571903315E+02  0.14047913107E+03 -0.91158780584E+02  0.25475401002E+03  0.17283238427E+03 0.  0.
         24    2    5    5    0    0  0.53068295824E+02  0.14799600774E+03 -0.11820039700E+03  0.21303695687E+03  0.81819000338E+02 0.  0.
          5    1    5    5  501    0  0.30503607491E+02 -0.75168766653E+01  0.27041616415E+02  0.41717053145E+02  0.47000000000E+01 0. -1.
        -11    1    6    6    0    0  0.18370627785E+02  0.12447284559E+03 -0.11587995070E+03  0.17105300999E+03  0.00000000000E+00 0.  1.
         12    1    6    6    0    0  0.34697668039E+02  0.23523162149E+02 -0.23204463022E+01  0.41983946883E+02  0.00000000000E+00 0. -1.
         -5    1    3    3    0  503  0.30778995796E+02 -0.78646576117E+02 -0.23432061709E+03  0.24912019611E+03  0.47000000000E+01 0.  1.
         13    1    4    4    0    0 -0.88561490995E+02 -0.52893509183E+02 -0.18330347871E+03  0.21033550891E+03  0.00000000000E+00 0. -1.
        -14    1    4    4    0    0 -0.25789408116E+02 -0.89390457707E+01 -0.20894281014E+03  0.21071805338E+03  0.00000000000E+00 0.  1.
</event>
<event>
12    1  0.8633375E-002  0.1875457E+03  0.7818608E-02  0.1161144E+00
         21   -1    0    0  501  502  0.00000000000E+00  0.00000000000E+00  0.19158219170E+03  0.19158219170E+03  0.00000000000E+00 0.  1.
         21   -1    0    0  502  503 -0.00000000000E+00 -0.00000000000E+00 -0.18264631916E+03  0.18264631916E+03  0.00000000000E+00 0.  1.
         -6    2    1    2    0  503  0.72363346505E+02  0.96167596883E+01  0.17986358674E+02  0.18646455672E+03  0.17063582809E+03 0.  0.
        -24    2    3    3    0    0  0.49267294815E+00  0.55150574272E+02  0.16056385030E+02  0.10123230469E+03  0.83356724042E+02 0.  0.
          6    2    1    2  501    0 -0.72363346505E+02 -0.96167596883E+01 -0.90504861359E+01  0.18776395413E+03  0.17275547803E+03 0.  0.
         24    2    5    5    0    0  0.32555110731E+01 -0.58094197589E+02  0.14115579277E+02  0.94882146477E+02  0.73605964404E+02 0.  0.
          5    1    5    5  501    0 -0.75618857578E+02  0.48477437901E+02 -0.23166065413E+02  0.92881807657E+02  0.47000000000E+01 0. -1.
        -11    1    6    6    0    0 -0.21563552769E+02  0.78122273254E+01  0.75781848685E+01  0.24154639093E+02  0.00000000000E+00 0.  1.
         12    1    6    6    0    0  0.24819063842E+02 -0.65906424915E+02  0.65373944090E+01  0.70727507384E+02  0.00000000000E+00 0. -1.
         -5    1    3    3    0  503  0.71870673557E+02 -0.45533814583E+02  0.19299736443E+01  0.85232252031E+02  0.47000000000E+01 0.  1.
         11    1    4    4    0    0 -0.26221460669E+02  0.21006660944E+02  0.39572989384E+02  0.51912101599E+02  0.00000000000E+00 0. -1.
        -12    1    4    4    0    0  0.26714133618E+02  0.34143913328E+02 -0.23516604354E+02  0.49320203088E+02  0.00000000000E+00 0.  1.
</event>
<event>
12    1  0.8633375E-002  0.2085843E+03  0.7818608E-02  0.1144968E+00
         21   -1    0    0  501  502  0.00000000000E+00  0.00000000000E+00  0.17068998212E+03  0.17068998212E+03  0.00000000000E+00 0.  1.
         21   -1    0    0  502  503 -0.00000000000E+00 -0.00000000000E+00 -0.33128731224E+03  0.33128731224E+03  0.00000000000E+00 0. -1.
         -6    2    1    2    0  503 -0.99508225135E+02 -0.41969016080E+02  0.48701552074E+02  0.21419446936E+03  0.17844927668E+03 0.  0.
        -24    2    3    3    0    0 -0.10771735014E+03 -0.10665959686E+02 -0.22239257037E+02  0.13607942938E+03  0.79411814805E+02 0.  0.
          6    2    1    2  501    0  0.99508225135E+02  0.41969016080E+02 -0.20929888220E+03  0.28778282501E+03  0.16537728713E+03 0.  0.
         24    2    5    5    0    0  0.10528500290E+03  0.22728422016E+02 -0.77959242175E+02  0.15483259875E+03  0.79334590134E+02 0.  0.
          5    1    5    5  501    0 -0.57767777603E+01  0.19240594064E+02 -0.13133964002E+03  0.13295022626E+03  0.47000000000E+01 0. -1.
        -13    1    6    6    0    0 -0.56964516343E+01  0.20192379394E+00  0.99531188612E+01  0.11469738859E+02  0.00000000000E+00 0.  1.
         14    1    6    6    0    0  0.11098145453E+03  0.22526498222E+02 -0.87912361036E+02  0.14336285989E+03  0.00000000000E+00 0. -1.
         -5    1    3    3    0  503  0.82091250039E+01 -0.31303056394E+02  0.70940809111E+02  0.78115039974E+02  0.47000000000E+01 0.  1.
         13    1    4    4    0    0 -0.27290870874E+02 -0.34734653224E+02 -0.27381344266E+02  0.51971393876E+02  0.00000000000E+00 0. -1.
        -14    1    4    4    0    0 -0.80426479266E+02  0.24068693538E+02  0.51420872295E+01  0.84108035507E+02  0.00000000000E+00 0.  1.
</event>
<event>
12    1  0.8633375E-002  0.2077702E+03  0.7818608E-02  0.1143755E+00
         21   -1    0    0  501  502  0.00000000000E+00  0.00000000000E+00  0.47567852799E+03  0.47567852799E+03  0.00000000000E+00 0.  1.
         21   -1    0    0  502  503 -0.00000000000E+00 -0.00000000000E+00 -0.91432409108E+02  0.91432409108E+02  0.00000000000E+00 0.  1.
         -6    2    1    2    0  503  0.95334810639E+02  0.65217381696E+02  0.22833456563E+03  0.30734785969E+03  0.17024687955E+03 0.  0.
        -24    2    3    3    0    0 -0.50618408000E+01  0.50203884761E+02  0.15797352616E+03  0.18374503372E+03  0.79123638524E+02 0.  0.
          6    2    1    2  501    0 -0.95334810639E+02 -0.65217381696E+02  0.15591155325E+03  0.25976307741E+03  0.17270324535E+03 0.  0.
         24    2    5    5    0    0 -0.23275328572E+02 -0.82197897806E+02  0.39850460530E+02  0.12201993193E+03  0.77476249653E+02 0.  0.
          5    1    5    5  501    0 -0.72059482068E+02  0.16980516110E+02  0.11606109272E+03  0.13774314548E+03  0.47000000000E+01 0. -1.
        -13    1    6    6    0    0  0.17227472751E+02 -0.41389239233E+02  0.45954855551E+02  0.64200496029E+02  0.00000000000E+00 0.  1.
         14    1    6    6    0    0 -0.40502801323E+02 -0.40808658573E+02 -0.61043950209E+01  0.57819435902E+02  0.00000000000E+00 0. -1.
         -5    1    3    3    0  503  0.10039665144E+03  0.15013496935E+02  0.70361039469E+02  0.12360282596E+03  0.47000000000E+01 0.  1.
         13    1    4    4    0    0 -0.94223997984E+01 -0.18914538176E+02  0.18765048182E+02  0.28260721959E+02  0.00000000000E+00 0. -1.
        -14    1    4    4    0    0  0.43605589984E+01  0.69118422936E+02  0.13920847798E+03  0.15548431177E+03  0.00000000000E+00 0.  1.
</event>
<event>
12    1  0.8633375E-002  0.2078004E+03  0.7818608E-02  0.1143417E+00
         21   -1    0    0  501  502  0.00000000000E+00  0.00000000000E+00  0.63778142819E+03  0.63778142819E+03  0.00000000000E+00 0.  1.
         21   -1    0    0  502  503 -0.00000000000E+00 -0.00000000000E+00 -0.84159905018E+02  0.84159905018E+02  0.00000000000E+00 0.  1.
         -6    2    1    2    0  503  0.56471522080E+02 -0.10247185984E+03  0.11618076386E+03  0.23765277334E+03  0.17114717619E+03 0.  0.
        -24    2    3    3    0    0  0.38359380670E+01 -0.11084129992E+02 -0.20809727417E+00  0.80520094154E+02  0.79660968483E+02 0.  0.
          6    2    1    2  501    0 -0.56471522080E+02  0.10247185984E+03  0.43744075931E+03  0.48428855987E+03  0.17173082556E+03 0.  0.
         24    2    5    5    0    0  0.31438061969E+02  0.58410469012E+02  0.17374104272E+03  0.20281186161E+03  0.80910856230E+02 0.  0.
          5    1    5    5  501    0 -0.87909584049E+02  0.44061390829E+02  0.26369971659E+03  0.28147669826E+03  0.47000000000E+01 0. -1.
        -13    1    6    6    0    0  0.26725028697E+02  0.63649525784E+02  0.18037489893E+03  0.19313361555E+03  0.00000000000E+00 0.  1.
         14    1    6    6    0    0  0.47130332721E+01 -0.52390567726E+01 -0.66338562165E+01  0.96782460597E+01  0.00000000000E+00 0. -1.
         -5    1    3    3    0  503  0.52635584013E+02 -0.91387729848E+02  0.11638886113E+03  0.15713267918E+03  0.47000000000E+01 0.  1.
         11    1    4    4    0    0  0.34867813463E+02  0.13432602901E+02 -0.12010364055E+02  0.39248542408E+02  0.00000000000E+00 0. -1.
        -12    1    4    4    0    0 -0.31031875396E+02 -0.24516732894E+02  0.11802266780E+02  0.41271551746E+02  0.00000000000E+00 0.  1.
</event>
<event>
12    1  0.8633375E-002  0.1830944E+03  0.7818608E-02  0.1165605E+00
         21   -1    0    0  501  502  0.00000000000E+00  0.00000000000E+00  0.13367624737E+03  0.13367624737E+03  0.00000000000E+00 0.  1.
         21   -1    0    0  502  503 -0.00000000000E+00 -0.00000000000E+00 -0.25752802349E+03  0.25752802349E+03  0.00000000000E+00 0.  1.
         -6    2    1    2    0  503  0.41961943187E+01  0.61636303461E+02 -0.10202358557E+03  0.20681328639E+03  0.16895644842E+03 0.  0.
        -24    2    3    3    0    0  0.13593472336E+02 -0.31366628399E+02 -0.36654291556E+02  0.92650732241E+02  0.77922867171E+02 0.  0.
          6    2    1    2  501    0 -0.41961943187E+01 -0.61636303461E+02 -0.21828190545E+02  0.18439098448E+03  0.17235696477E+03 0.  0.
         24    2    5    5    0    0 -0.69738997841E+02 -0.23709664561E+02 -0.18579510969E+02  0.10845065955E+03  0.77399427094E+02 0.  0.
          5    1    5    5  501    0  0.65542803523E+02 -0.37926638901E+02 -0.32486795764E+01  0.75940324933E+02  0.47000000000E+01 0. -1.
        -11    1    6    6    0    0 -0.17255542645E+02 -0.46400670226E+02 -0.11613398771E+02  0.50849257422E+02  0.00000000000E+00 0.  1.
         12    1    6    6    0    0 -0.52483455196E+02  0.22691005665E+02 -0.69661121983E+01  0.57601402123E+02  0.00000000000E+00 0. -1.
         -5    1    3    3    0  503 -0.93972780177E+01  0.93002931861E+02 -0.65369294016E+02  0.11416255415E+03  0.47000000000E+01 0.  1.
         13    1    4    4    0    0  0.27621717122E+02 -0.28198161784E+01 -0.50758735328E+02  0.57856372442E+02  0.00000000000E+00 0. -1.
        -14    1    4    4    0    0 -0.14028244785E+02 -0.28546812221E+02  0.14104443772E+02  0.34794359799E+02  0.00000000000E+00 0.  1.
</event>
<event>
12    1  0.8633375E-002  0.1912052E+03  0.7818608E-02  0.1158284E+00
         21   -1    0    0  501  502  0.00000000000E+00  0.00000000000E+00  0.10307398248E+03  0.10307398248E+03  0.00000000000E+00 0.  1.
         21   -1    0    0  502  503 -0.00000000000E+00 -0.00000000000E+00 -0.34976337581E+03  0.34976337581E+03  0.00000000000E+00 0. -1.
         -6    2    1    2    0  503 -0.69367275126E+02  0.60071744654E+01 -0.10308054835E+03  0.21370784387E+03  0.17377438845E+03 0.  0.
        -24    2    3    3    0    0 -0.53475916180E+02 -0.34073183598E+02 -0.13587764427E+01  0.10312584139E+03  0.81316895157E+02 0.  0.
          6    2    1    2  501    0  0.69367275126E+02 -0.60071744654E+01 -0.14360884498E+03  0.23912951442E+03  0.17807728464E+03 0.  0.
         24    2    5    5    0    0  0.35858674919E+02  0.34991520867E+02 -0.17807891927E+02  0.10255832750E+03  0.87697425422E+02 0.  0.
          5    1    5    5  501    0  0.33508600206E+02 -0.40998695332E+02 -0.12580095305E+03  0.13657118691E+03  0.47000000000E+01 0. -1.
        -13    1    6    6    0    0  0.62964242754E+02  0.16672251957E+02  0.36308883214E+00  0.65135180083E+02  0.00000000000E+00 0.  1.
         14    1    6    6    0    0 -0.27105567835E+02  0.18319268909E+02 -0.18170980759E+02  0.37423147420E+02  0.00000000000E+00 0. -1.
         -5    1    3    3    0  503 -0.15891358946E+02  0.40080358064E+02 -0.10172177191E+03  0.11058200248E+03  0.47000000000E+01 0.  1.
         11    1    4    4    0    0 -0.44516833334E+02 -0.41786396254E+02 -0.32960839487E+02  0.69384928491E+02  0.00000000000E+00 0. -1.
        -12    1    4    4    0    0 -0.89590828462E+01  0.77132126555E+01  0.31602063044E+02  0.33740912904E+02  0.00000000000E+00 0.  1.
</event>
<event>
12    1  0.8633375E-002  0.2671635E+03  0.7818608E-02  0.1103095E+00
         21   -1    0    0  503  502  0.00000000000E+00  0.00000000000E+00  0.42431167980E+03  0.42431167980E+03  0.00000000000E+00 0. -1.
         21   -1    0    0  501  503 -0.00000000000E+00 -0.00000000000E+00 -0.25975275660E+03  0.25975275660E+03  0.00000000000E+00 0.  1.
          6    2    1    2  501    0  0.19828100158E+03 -0.47004541118E+02 -0.12150439688E+03  0.29349555691E+03  0.17277598500E+03 0.  0.
         24    2    3    3    0    0  0.14640855152E+03 -0.92737199566E+02 -0.11045337493E+03  0.22330693810E+03  0.87352094600E+02 0.  0.
         -6    2    1    2    0  502 -0.19828100158E+03  0.47004541118E+02  0.28606332008E+03  0.39056887949E+03  0.17084216125E+03 0.  0.
        -24    2    5    5    0    0 -0.77275947370E+02 -0.31563857624E+02  0.17774952952E+03  0.21009953680E+03  0.74693178877E+02 0.  0.
          5    1    3    3  501    0  0.51872450060E+02  0.45732658449E+02 -0.11051021948E+02  0.70188618808E+02  0.47000000000E+01 0. -1.
        -11    1    4    4    0    0  0.10533423925E+03 -0.30058945382E+02 -0.30459238038E+02  0.11369523885E+03  0.00000000000E+00 0.  1.
         12    1    4    4    0    0  0.41074312270E+02 -0.62678254184E+02 -0.79994136894E+02  0.10961169925E+03  0.00000000000E+00 0. -1.
         -5    1    5    5    0  502 -0.12100505421E+03  0.78568398742E+02  0.10831379057E+03  0.18046934269E+03  0.47000000000E+01 0.  1.
         13    1    6    6    0    0 -0.49618244664E+02  0.15901062809E+02  0.11767494191E+03  0.12869423435E+03  0.00000000000E+00 0. -1.
        -14    1    6    6    0    0 -0.27657702706E+02 -0.47464920434E+02  0.60074587606E+02  0.81405302449E+02  0.00000000000E+00 0.  1.
</event>
<event>
12    1  0.8633375E-002  0.1806732E+03  0.7818608E-02  0.1168416E+00
         21   -1    0    0  503  502  0.00000000000E+00  0.00000000000E+00  0.13124963232E+04  0.13124963232E+04  0.00000000000E+00 0. -1.
         21   -1    0    0  501  503 -0.00000000000E+00 -0.00000000000E+00 -0.24824065238E+02  0.24824065238E+02  0.00000000000E+00 0. -1.
          6    2    1    2  501    0  0.16510899170E+01 -0.55178189007E+02  0.52581270471E+03  0.55433074000E+03  0.16660195145E+03 0.  0.
         24    2    3    3    0    0 -0.62601474108E+02 -0.27781058775E+02  0.29463590258E+03  0.31278613010E+03  0.79587161675E+02 0.  0.
         -6    2    1    2    0  502 -0.16510899170E+01  0.55178189007E+02  0.76185955321E+03  0.78298964840E+03  0.17203328761E+03 0.  0.
        -24    2    5    5    0    0 -0.27155033815E+02 -0.24873668639E+02  0.50660571842E+03  0.51422327915E+03  0.80125723888E+02 0.  0.
          5    1    3    3  501    0  0.64252564025E+02 -0.27397130232E+02  0.23117680213E+03  0.24154460990E+03  0.47000000000E+01 0. -1.
        -11    1    4    4    0    0 -0.64512590193E+02 -0.21995743980E+02  0.11970902470E+03  0.13775317652E+03  0.00000000000E+00 0.  1.
         12    1    4    4    0    0  0.19111160859E+01 -0.57853147944E+01  0.17492687789E+03  0.17503295358E+03  0.00000000000E+00 0. -1.
         -5    1    5    5    0  502  0.25503943898E+02  0.80051857645E+02  0.25525383479E+03  0.26876636925E+03  0.47000000000E+01 0.  1.
         11    1    6    6    0    0 -0.27344552144E+02  0.23476051233E+02  0.14559431224E+03  0.14998851046E+03  0.00000000000E+00 0. -1.
        -12    1    6    6    0    0  0.18951832906E+00 -0.48349719871E+02  0.36101140618E+03  0.36423476869E+03  0.00000000000E+00 0.  1.
</event>
<event>
12    1  0.8633375E-002  0.1833512E+03  0.7818608E-02  0.1164991E+00
         21   -1    0    0  501  502  0.00000000000E+00  0.00000000000E+00  0.89294834778E+03  0.89294834778E+03  0.00000000000E+00 0. -1.
         21   -1    0    0  502  503 -0.00000000000E+00 -0.00000000000E+00 -0.37868201788E+02  0.37868201788E+02  0.00000000000E+00 0. -1.
         -6    2    1    2    0  503  0.24504470596E+02 -0.58701097440E+02  0.36906585608E+03  0.41136728652E+03  0.17019738650E+03 0.  0.
        -24    2    3    3    0    0  0.51993192639E+02 -0.41419392202E+02  0.11332642839E+03  0.15353200567E+03  0.79437643857E+02 0.  0.
          6    2    1    2  501    0 -0.24504470596E+02  0.58701097440E+02  0.48601428991E+03  0.51944926305E+03  0.17196324888E+03 0.  0.
         24    2    5    5    0    0  0.10328875170E+02 -0.26321471664E+02  0.31804668622E+03  0.32793580367E+03  0.74757549322E+02 0.  0.
          5    1    5    5  501    0 -0.34833345767E+02  0.85022569103E+02  0.16796760369E+03  0.19151345938E+03  0.47000000000E+01 0. -1.
        -13    1    6    6    0    0 -0.97818004493E+01  0.20792267412E+02  0.49853817458E+02  0.54894490792E+02  0.00000000000E+00 0.  1.
         14    1    6    6    0    0  0.20110675620E+02 -0.47113739076E+02  0.26819286876E+03  0.27304131288E+03  0.00000000000E+00 0. -1.
         -5    1    3    3    0  503 -0.27488722042E+02 -0.17281705238E+02  0.25573942769E+03  0.25783528085E+03  0.47000000000E+01 0.  1.
         11    1    4    4    0    0 -0.60892410627E+01 -0.43125690173E+02  0.34279899354E+02  0.55425765753E+02  0.00000000000E+00 0. -1.
        -12    1    4    4    0    0  0.58082433701E+02  0.17062979714E+01  0.79046529036E+02  0.98106239914E+02  0.00000000000E+00 0.  1.
</event>
<event>
12    1  0.8633375E-002  0.4051477E+03  0.7818608E-02  0.1042255E+00
         21   -1    0    0  501  502  0.00000000000E+00  0.00000000000E+00  0.33456492684E+03  0.33456492684E+03  0.00000000000E+00 0. -1.
         21   -1    0    0  502  503 -0.00000000000E+00 -0.00000000000E+00 -0.59784935234E+03  0.59784935234E+03  0.00000000000E+00 0.  1.
         -6    2    1    2    0  503 -0.70361184839E+02 -0.35804195389E+03  0.69324955732E+02  0.40822573502E+03  0.16940355419E+03 0.  0.
        -24    2    3    3    0    0 -0.68789702486E+02 -0.11302810753E+03  0.70175197811E+01  0.15536498077E+03  0.81127402319E+02 0.  0.
          6    2    1    2  501    0  0.70361184839E+02  0.35804195389E+03 -0.33260938123E+03  0.52418854416E+03  0.17606786268E+03 0.  0.
         24    2    5    5    0    0 -0.25409850720E+02  0.11136983645E+03 -0.11479406917E+03  0.18142794995E+03  0.81789496406E+02 0.  0.
          5    1    5    5  501    0  0.95771035559E+02  0.24667211744E+03 -0.21781531206E+03  0.34276059421E+03  0.47000000000E+01 0. -1.
        -13    1    6    6    0    0 -0.15136628761E+02  0.11076915533E+03 -0.62402187818E+02  0.12803498095E+03  0.00000000000E+00 0.  1.
         14    1    6    6    0    0 -0.10273221959E+02  0.60068112139E+00 -0.52391881350E+02  0.53392969000E+02  0.00000000000E+00 0. -1.
         -5    1    3    3    0  503 -0.15714823526E+01 -0.24501384636E+03  0.62307435951E+02  0.25286075425E+03  0.47000000000E+01 0.  1.
         11    1    4    4    0    0 -0.87230288651E+02 -0.89956784044E+02  0.98642890369E+01  0.12569268257E+03  0.00000000000E+00 0. -1.
        -12    1    4    4    0    0  0.18440586164E+02 -0.23071323483E+02 -0.28467692558E+01  0.29672298202E+02  0.00000000000E+00 0.  1.
</event>
<event>
12    1  0.8633375E-002  0.3460681E+03  0.7818608E-02  0.1064420E+00
         21   -1    0    0  503  502  0.00000000000E+00  0.00000000000E+00  0.94002327080E+03  0.94002327080E+03  0.00000000000E+00 0.  1.
         21   -1    0    0  501  503 -0.00000000000E+00 -0.00000000000E+00 -0.13332809705E+03  0.13332809705E+03  0.00000000000E+00 0.  1.
          6    2    1    2  501    0  0.29544771074E+03 -0.54561410483E+02  0.28338692322E+03  0.44596420820E+03  0.16825465654E+03 0.  0.
         24    2    3    3    0    0  0.28653590973E+03 -0.82814211665E+02  0.25111480423E+03  0.40190492274E+03  0.97508465247E+02 0.  0.
         -6    2    1    2    0  502 -0.29544771074E+03  0.54561410483E+02  0.52330825053E+03  0.62738715965E+03  0.17174639947E+03 0.  0.
        -24    2    5    5    0    0 -0.24856980326E+03 -0.11183543185E+02  0.35505882056E+03  0.44070588629E+03  0.79011982735E+02 0.  0.
          5    1    3    3  501    0  0.89118010095E+01  0.28252801182E+02  0.32272118984E+02  0.44059285464E+02  0.47000000000E+01 0. -1.
        -11    1    4    4    0    0  0.17535732726E+03 -0.77627534871E+00  0.13216903113E+03  0.21958927027E+03  0.00000000000E+00 0.  1.
         12    1    4    4    0    0  0.11117858247E+03 -0.82037936316E+02  0.11894577310E+03  0.18231565246E+03  0.00000000000E+00 0. -1.
         -5    1    5    5    0  502 -0.46877907475E+02  0.65744953668E+02  0.16824942996E+03  0.18668127336E+03  0.47000000000E+01 0.  1.
         13    1    6    6    0    0 -0.11966157029E+02  0.10268486980E+02  0.31013711784E+01  0.16070135099E+02  0.00000000000E+00 0. -1.
        -14    1    6    6    0    0 -0.23660364624E+03 -0.21452030166E+02  0.35195744939E+03  0.42463575119E+03  0.00000000000E+00 0.  1.
</event>
<event>
12    1  0.8633375E-002  0.1823230E+03  0.7818608E-02  0.1165586E+00
         21   -1    0    0  503  502  0.00000000000E+00  0.00000000000E+00  0.36757147073E+03  0.36757147073E+03  0.00000000000E+00 0. -1.
         21   -1    0    0  501  503 -0.00000000000E+00 -0.00000000000E+00 -0.12714963279E+03  0.12714963279E+03  0.00000000000E+00 0.  1.
          6    2    1    2  501    0  0.30532873820E+02  0.53366332208E+02 -0.12742670112E+02  0.18276772633E+03  0.17164336384E+03 0.  0.
         24    2    3    3    0    0  0.32018348407E+02  0.89666219535E+02  0.34664255846E+02  0.12285616582E+03  0.69475328607E+02 0.  0.
         -6    2    1    2    0  502 -0.30532873820E+02 -0.53366332208E+02  0.25316450806E+03  0.31195337719E+03  0.17158793548E+03 0.  0.
        -24    2    5    5    0    0 -0.48441900595E+02 -0.12832755224E+02  0.55652474576E+02  0.10947671811E+03  0.79853970105E+02 0.  0.
          5    1    3    3  501    0 -0.14854745870E+01 -0.36299887327E+02 -0.47406925958E+02  0.59911560516E+02  0.47000000000E+01 0. -1.
        -13    1    4    4    0    0 -0.74123534887E+01  0.54041084857E+02 -0.74467321971E+01  0.55053025868E+02  0.00000000000E+00 0.  1.
         14    1    4    4    0    0  0.39430701895E+02  0.35625134678E+02  0.42110988043E+02  0.67803139948E+02  0.00000000000E+00 0. -1.
         -5    1    5    5    0  502  0.17909026775E+02 -0.40533576984E+02  0.19751203348E+03  0.20247665908E+03  0.47000000000E+01 0.  1.
         11    1    6    6    0    0 -0.50628505285E+02  0.88424717962E+01  0.67373458263E+02  0.84738525672E+02  0.00000000000E+00 0. -1.
        -12    1    6    6    0    0  0.21866046896E+01 -0.21675227020E+02 -0.11720983686E+02  0.24738192437E+02  0.00000000000E+00 0.  1.
</event>
<event>
12    1  0.8633375E-002  0.1878014E+03  0.7818608E-02  0.1161316E+00
         21   -1    0    0  501  502  0.00000000000E+00  0.00000000000E+00  0.49544265868E+03  0.49544265868E+03  0.00000000000E+00 0. -1.
         21   -1    0    0  502  503 -0.00000000000E+00 -0.00000000000E+00 -0.79800876755E+02  0.79800876755E+02  0.00000000000E+00 0. -1.
         -6    2    1    2    0  503 -0.36253680849E+02 -0.61169186198E+02  0.10415111835E+03  0.21151864470E+03  0.16981367109E+03 0.  0.
        -24    2    3    3    0    0 -0.25535398848E+02  0.27106460577E+02  0.22626596016E+02  0.90788329027E+02  0.79647605368E+02 0.  0.
          6    2    1    2  501    0  0.36253680849E+02  0.61169186198E+02  0.31149066358E+03  0.36372489073E+03  0.17381991809E+03 0.  0.
         24    2    5    5    0    0 -0.32942811622E+02 -0.46124696726E+01  0.19440212307E+03  0.21257199748E+03  0.79297950446E+02 0.  0.
          5    1    5    5  501    0  0.69196492471E+02  0.65781655871E+02  0.11708854052E+03  0.15115289326E+03  0.47000000000E+01 0. -1.
        -13    1    6    6    0    0 -0.18894910758E+02  0.18846381594E+02  0.14051550117E+02  0.30160401397E+02  0.00000000000E+00 0.  1.
         14    1    6    6    0    0 -0.14047900863E+02 -0.23458851267E+02  0.18035057295E+03  0.18241159608E+03  0.00000000000E+00 0. -1.
         -5    1    3    3    0  503 -0.10718282002E+02 -0.88275646775E+02  0.81524522329E+02  0.12073031568E+03  0.47000000000E+01 0.  1.
         11    1    4    4    0    0 -0.27040141477E+02 -0.92002054709E+01 -0.19930072156E+02  0.34828448257E+02  0.00000000000E+00 0. -1.
        -12    1    4    4    0    0  0.15047426294E+01  0.36306666048E+02  0.42556668173E+02  0.55959880771E+02  0.00000000000E+00 0.  1.
</event>
<event>
12    1  0.8633375E-002  0.2130009E+03  0.7818608E-02  0.1139275E+00
         21   -1    0    0  503  502  0.00000000000E+00  0.00000000000E+00  0.17018076313E+04  0.17018076313E+04  0.00000000000E+00 0. -1.
         21   -1    0    0  501  503 -0.00000000000E+00 -0.00000000000E+00 -0.27493068252E+02  0.27493068252E+02  0.00000000000E+00 0. -1.
          6    2    1    2  501    0  0.46075517363E+02  0.11772454646E+03  0.99075706012E+03  0.10133256586E+04  0.17101846674E+03 0.  0.
         24    2    3    3    0    0  0.48739106396E+02  0.27710900446E+02  0.74973887201E+03  0.75599045269E+03  0.79182029925E+02 0.  0.
         -6    2    1    2    0  502 -0.46075517363E+02 -0.11772454646E+03  0.68355750291E+03  0.71597504098E+03  0.17142746974E+03 0.  0.
        -24    2    5    5    0    0 -0.38393590402E+02 -0.66883384362E+02  0.63640902342E+03  0.64605433672E+03  0.80139291376E+02 0.  0.
          5    1    3    3  501    0 -0.26635890336E+01  0.90013646019E+02  0.24101818811E+03  0.25733520586E+03  0.47000000000E+01 0. -1.
        -13    1    4    4    0    0 -0.18755803367E+02 -0.34725655470E+01  0.25301313038E+03  0.25373112347E+03  0.00000000000E+00 0.  1.
         14    1    4    4    0    0  0.67494909764E+02  0.31183465993E+02  0.49672574163E+03  0.50225932922E+03  0.00000000000E+00 0. -1.
         -5    1    5    5    0  502 -0.76819269604E+01 -0.50841162103E+02  0.47148479499E+02  0.69920704264E+02  0.47000000000E+01 0.  1.
         13    1    6    6    0    0 -0.12781749496E+02 -0.49883158818E+02  0.14844421255E+03  0.15712220370E+03  0.00000000000E+00 0. -1.
        -14    1    6    6    0    0 -0.25611840907E+02 -0.17000225544E+02  0.48796481086E+03  0.48893213302E+03  0.00000000000E+00 0.  1.
</event>
<event>
12    1  0.8633375E-002  0.1828257E+03  0.7818608E-02  0.1165374E+00
         21   -1    0    0  503  502  0.00000000000E+00  0.00000000000E+00  0.45859344530E+03  0.45859344530E+03  0.00000000000E+00 0.  1.
         21   -1    0    0  501  503 -0.00000000000E+00 -0.00000000000E+00 -0.10197793846E+03  0.10197793846E+03  0.00000000000E+00 0. -1.
          6    2    1    2  501    0 -0.35922186658E+02  0.51207326304E+02  0.27008409916E+02  0.18365485162E+03  0.17054927897E+03 0.  0.
         24    2    3    3    0    0  0.12516088279E+02  0.86730766461E+02  0.16121145659E+02  0.12242737574E+03  0.83962448016E+02 0.  0.
         -6    2    1    2    0  502  0.35922186658E+02 -0.51207326304E+02  0.32960709692E+03  0.37691653214E+03  0.17179243317E+03 0.  0.
        -24    2    5    5    0    0 -0.13798342313E+02  0.22963475857E+02  0.22810249232E+03  0.24164379412E+03  0.75121639759E+02 0.  0.
          5    1    3    3  501    0 -0.48438274937E+02 -0.35523440157E+02  0.10887264257E+02  0.61227475878E+02  0.47000000000E+01 0. -1.
        -13    1    4    4    0    0 -0.31734540991E+02  0.19175068483E+02  0.18908925958E+02  0.41621050252E+02  0.00000000000E+00 0.  1.
         14    1    4    4    0    0  0.44250629269E+02  0.67555697978E+02 -0.27877802997E+01  0.80806325489E+02  0.00000000000E+00 0. -1.
         -5    1    5    5    0  502  0.49720528972E+02 -0.74170802161E+02  0.10150460460E+03  0.13527273801E+03  0.47000000000E+01 0.  1.
         11    1    6    6    0    0  0.12256460611E+00 -0.18059101768E+02  0.13074506107E+02  0.22295490322E+02  0.00000000000E+00 0. -1.
        -12    1    6    6    0    0 -0.13920906920E+02  0.41022577624E+02  0.21502798622E+03  0.21934830380E+03  0.00000000000E+00 0.  1.
</event>
<event>
12    1  0.8633375E-002  0.1783214E+03  0.7818608E-02  0.1169678E+00
         21   -1    0    0  503  502  0.00000000000E+00  0.00000000000E+00  0.32492122499E+03  0.32492122499E+03  0.00000000000E+00 0.  1.
         21   -1    0    0  501  503 -0.00000000000E+00 -0.00000000000E+00 -0.10685785567E+03  0.10685785567E+03  0.00000000000E+00 0.  1.
          6    2    1    2  501    0  0.29508083657E+02 -0.31129401944E+02  0.44838533053E+02  0.18387224310E+03  0.17308593550E+03 0.  0.
         24    2    3    3    0    0 -0.24843659644E+02  0.25271752286E+02 -0.95756259800E+01  0.88383013851E+02  0.80398977832E+02 0.  0.
         -6    2    1    2    0  502 -0.29508083657E+02  0.31129401944E+02  0.17322483627E+03  0.24790683756E+03  0.17207902122E+03 0.  0.
        -24    2    5    5    0    0  0.20161008363E+02  0.54832077794E+01  0.20643118606E+02  0.85339877381E+02  0.80126303421E+02 0.  0.
          5    1    3    3  501    0  0.54351743301E+02 -0.56401154230E+02  0.54414159033E+02  0.95489229244E+02  0.47000000000E+01 0. -1.
        -11    1    4    4    0    0  0.19878134109E+02 -0.15162687630E+02 -0.12639573905E+02  0.28014391665E+02  0.00000000000E+00 0.  1.
         12    1    4    4    0    0 -0.44721793753E+02  0.40434439916E+02  0.30639479254E+01  0.60368622187E+02  0.00000000000E+00 0. -1.
         -5    1    5    5    0  502 -0.49669092020E+02  0.25646194165E+02  0.15258171767E+03  0.16256696018E+03  0.47000000000E+01 0.  1.
         13    1    6    6    0    0  0.60061662253E+01  0.55594997389E+01 -0.30860089074E+02  0.31926903510E+02  0.00000000000E+00 0. -1.
        -14    1    6    6    0    0  0.14154842138E+02 -0.76291959550E-01  0.51503207680E+02  0.53412973871E+02  0.00000000000E+00 0.  1.
</event>
<event>
12    1  0.8633375E-002  0.2831857E+03  0.7818608E-02  0.1094102E+00
         21   -1    0    0  501  502  0.00000000000E+00  0.00000000000E+00  0.38836815275E+02  0.38836815275E+02  0.00000000000E+00 0. -1.
         21   -1    0    0  502  503 -0.00000000000E+00 -0.00000000000E+00 -0.20736086617E+04  0.20736086617E+04  0.00000000000E+00 0. -1.
         -6    2    1    2    0  503  0.20548946576E+03  0.87073095042E+02 -0.92567885219E+03  0.96802660329E+03  0.17431730515E+03 0.  0.
        -24    2    3    3    0    0  0.11411539655E+03  0.60174532143E+02 -0.78079357075E+03  0.79457174465E+03  0.71150258039E+02 0.  0.
          6    2    1    2  501    0 -0.20548946576E+03 -0.87073095042E+02 -0.11090929942E+04  0.11444188737E+04  0.17262573432E+03 0.  0.
         24    2    5    5    0    0 -0.17055466696E+03 -0.62109835926E+00 -0.78375323712E+03  0.80594814310E+03  0.78701921747E+02 0.  0.
          5    1    5    5  501    0 -0.34934798799E+02 -0.86451996683E+02 -0.32533975710E+03  0.33847073056E+03  0.47000000000E+01 0. -1.
        -13    1    6    6    0    0 -0.17705004345E+02  0.60593337177E+01 -0.25002545137E+03  0.25072476750E+03  0.00000000000E+00 0.  1.
         14    1    6    6    0    0 -0.15284966262E+03 -0.66804320770E+01 -0.53372778575E+03  0.55522337560E+03  0.00000000000E+00 0. -1.
         -5    1    3    3    0  503  0.91374069211E+02  0.26898562899E+02 -0.14488528143E+03  0.17345485864E+03  0.47000000000E+01 0.  1.
         13    1    4    4    0    0  0.75797851741E+02  0.32257921821E+01 -0.33188219996E+03  0.34044311524E+03  0.00000000000E+00 0. -1.
        -14    1    4    4    0    0  0.38317544812E+02  0.56948739961E+02 -0.44891137079E+03  0.45412862941E+03  0.00000000000E+00 0.  1.
</event>
<event>
12    1  0.8633375E-002  0.1994732E+03  0.7818608E-02  0.1150653E+00
         21   -1    0    0  503  502  0.00000000000E+00  0.00000000000E+00  0.21187448046E+04  0.21187448046E+04  0.00000000000E+00 0. -1.
         21   -1    0    0  501  503 -0.00000000000E+00 -0.00000000000E+00 -0.19753987550E+02  0.19753987550E+02  0.00000000000E+00 0. -1.
          6    2    1    2  501    0  0.97956570786E+02 -0.39572143458E+01  0.78260969810E+03  0.80709021905E+03  0.17118858848E+03 0.  0.
         24    2    3    3    0    0 -0.14924948657E+02  0.69576123830E+01  0.26131254400E+03  0.27357903478E+03  0.79310025569E+02 0.  0.
         -6    2    1    2    0  502 -0.97956570786E+02  0.39572143458E+01  0.13163811189E+04  0.13314085731E+04  0.17371928184E+03 0.  0.
        -24    2    5    5    0    0 -0.11980988589E+03  0.20684423676E+02  0.80466117602E+03  0.81892759110E+03  0.91545273690E+02 0.  0.
          5    1    3    3  501    0  0.11288151944E+03 -0.10914826729E+02  0.52129715410E+03  0.53351118428E+03  0.47000000000E+01 0. -1.
        -11    1    4    4    0    0 -0.60923862509E+01  0.32111633485E+02  0.44931268602E+02  0.55561615109E+02  0.00000000000E+00 0.  1.
         12    1    4    4    0    0 -0.88325624063E+01 -0.25154021102E+02  0.21638127540E+03  0.21801741967E+03  0.00000000000E+00 0. -1.
         -5    1    5    5    0  502  0.21853315108E+02 -0.16727209330E+02  0.51171994293E+03  0.51248098199E+03  0.47000000000E+01 0.  1.
         13    1    6    6    0    0 -0.52853286630E+02 -0.18878317407E+02  0.54466366011E+03  0.54754759009E+03  0.00000000000E+00 0. -1.
        -14    1    6    6    0    0 -0.66956599265E+02  0.39562741083E+02  0.25999751591E+03  0.27138000101E+03  0.00000000000E+00 0.  1.
</event>
<event>
12    1  0.8633375E-002  0.2635094E+03  0.7818608E-02  0.1105095E+00
         21   -1    0    0  501  502  0.00000000000E+00  0.00000000000E+00  0.60478034594E+03  0.60478034594E+03  0.00000000000E+00 0. -1.
         21   -1    0    0  502  503 -0.00000000000E+00 -0.00000000000E+00 -0.12801199509E+03  0.12801199509E+03  0.00000000000E+00 0.  1.
         -6    2    1    2    0  503  0.77002636873E+02 -0.18350385180E+03  0.12007342502E+03  0.28931912725E+03  0.17229294903E+03 0.  0.
        -24    2    3    3    0    0  0.31593029419E+02 -0.84362168516E+02  0.11350060063E+02  0.13526080744E+03  0.10025750437E+03 0.  0.
          6    2    1    2  501    0 -0.77002636873E+02  0.18350385180E+03  0.35669492583E+03  0.44347321378E+03  0.17272565390E+03 0.  0.
         24    2    5    5    0    0  0.36409665091E+01  0.77839708094E+02  0.24211780194E+03  0.26792177018E+03  0.84194822434E+02 0.  0.
          5    1    5    5  501    0 -0.80643603382E+02  0.10566414371E+03  0.11457712389E+03  0.17555144360E+03  0.47000000000E+01 0. -1.
        -13    1    6    6    0    0  0.93564174547E+01  0.52035154508E+02  0.46146369426E+02  0.70176116047E+02  0.00000000000E+00 0.  1.
         14    1    6    6    0    0 -0.57154509457E+01  0.25804553586E+02  0.19597143251E+03  0.19774565413E+03  0.00000000000E+00 0. -1.
         -5    1    3    3    0  503  0.45409607454E+02 -0.99141683289E+02  0.10872336496E+03  0.15405831981E+03  0.47000000000E+01 0.  1.
         13    1    4    4    0    0  0.67850298118E+02 -0.60945779455E+02  0.12669434491E+02  0.92079126616E+02  0.00000000000E+00 0. -1.
        -14    1    4    4    0    0 -0.36257268699E+02 -0.23416389061E+02 -0.13193744280E+01  0.43181680827E+02  0.00000000000E+00 0.  1.
</event>
<event>
12    1  0.8633375E-002  0.3013959E+03  0.7818608E-02  0.1084633E+00
         21   -1    0    0  501  502  0.00000000000E+00  0.00000000000E+00  0.13885938270E+03  0.13885938270E+03  0.00000000000E+00 0.  1.
         21   -1    0    0  502  503 -0.00000000000E+00 -0.00000000000E+00 -0.65665642776E+03  0.65665642776E+03  0.00000000000E+00 0. -1.
         -6    2    1    2    0  503  0.26809390409E+02 -0.24536632021E+03 -0.28964491977E+03  0.41750409945E+03  0.17173269637E+03 0.  0.
        -24    2    3    3    0    0  0.22875044183E+02 -0.21057781421E+03 -0.30389249090E+03  0.37941469787E+03  0.82088875323E+02 0.  0.
          6    2    1    2  501    0 -0.26809390409E+02  0.24536632021E+03 -0.22815212529E+03  0.37801171101E+03  0.17296267482E+03 0.  0.
         24    2    5    5    0    0 -0.11439538048E+02  0.37278176855E+02 -0.40485088801E+02  0.97337675251E+02  0.79467321004E+02 0.  0.
          5    1    5    5  501    0 -0.15369852361E+02  0.20808814335E+03 -0.18766703649E+03  0.28067403576E+03  0.47000000000E+01 0. -1.
        -11    1    6    6    0    0  0.28595070569E+02  0.15532056416E+02  0.50424332612E+01  0.32929454453E+02  0.00000000000E+00 0.  1.
         12    1    6    6    0    0 -0.40034608617E+02  0.21746120439E+02 -0.45527522062E+02  0.64408220798E+02  0.00000000000E+00 0. -1.
         -5    1    3    3    0  503  0.39343462257E+01 -0.34788505999E+02  0.14247571126E+02  0.38089401582E+02  0.47000000000E+01 0.  1.
         11    1    4    4    0    0  0.52774728474E+02 -0.10783845685E+03 -0.16645437768E+03  0.20523490101E+03  0.00000000000E+00 0. -1.
        -12    1    4    4    0    0 -0.29899684291E+02 -0.10273935735E+03 -0.13743811322E+03  0.17417979686E+03  0.00000000000E+00 0.  1.
</event>
<event>
12    1  0.8633375E-002  0.2476504E+03  0.7818608E-02  0.1114867E+00
         21   -1    0    0  501  502  0.00000000000E+00  0.00000000000E+00  0.19389972258E+03  0.19389972258E+03  0.00000000000E+00 0. -1.
         21   -1    0    0  502  503 -0.00000000000E+00 -0.00000000000E+00 -0.43782123414E+03  0.43782123414E+03  0.00000000000E+00 0. -1.
         -6    2    1    2    0  503 -0.40907813007E+02  0.17310718186E+03 -0.28866227573E+03  0.38006155292E+03  0.17170127839E+03 0.  0.
        -24    2    3    3    0    0  0.12317842997E+02  0.17559922372E+03 -0.21625512151E+03  0.29003896291E+03  0.79809183694E+02 0.  0.
          6    2    1    2  501    0  0.40907813007E+02 -0.17310718186E+03  0.44740764160E+02  0.25165940380E+03  0.17231127057E+03 0.  0.
         24    2    5    5    0    0  0.28265392561E+02 -0.67255157288E+02 -0.41047407036E+02  0.11474270570E+03  0.78478087953E+02 0.  0.
          5    1    5    5  501    0  0.12642420446E+02 -0.10585202458E+03  0.85788171196E+02  0.13691669810E+03  0.47000000000E+01 0. -1.
        -11    1    6    6    0    0  0.38392099210E+02 -0.28185650119E+01 -0.16295496594E+01  0.38529897776E+02  0.00000000000E+00 0.  1.
         12    1    6    6    0    0 -0.10126706649E+02 -0.64436592276E+02 -0.39417857377E+02  0.76212807925E+02  0.00000000000E+00 0. -1.
         -5    1    3    3    0  503 -0.53225656004E+02 -0.24920418528E+01 -0.72407154221E+02  0.90022590010E+02  0.47000000000E+01 0.  1.
         13    1    4    4    0    0 -0.33958113681E+02  0.63672908558E+02 -0.80861435039E+02  0.10837880072E+03  0.00000000000E+00 0. -1.
        -14    1    4    4    0    0  0.46275956677E+02  0.11192631516E+03 -0.13539368647E+03  0.18166016219E+03  0.00000000000E+00 0.  1.
</event>
<event>
12    1  0.8633375E-002  0.3792044E+03  0.7818608E-02  0.1051231E+00
         21   -1    0    0  503  502  0.00000000000E+00  0.00000000000E+00  0.45127536850E+03  0.45127536850E+03  0.00000000000E+00 0.  1.
         21   -1    0    0  501  503 -0.00000000000E+00 -0.00000000000E+00 -0.38532943085E+03  0.38532943085E+03  0.00000000000E+00 0.  1.
          6    2    1    2  501    0  0.28185393318E+03 -0.18537393629E+03  0.20702241162E+03  0.43203504222E+03  0.17317870218E+03 0.  0.
         24    2    3    3    0    0  0.21820011028E+03 -0.19400959469E+03  0.12794332495E+03  0.33004496567E+03  0.85493707412E+02 0.  0.
         -6    2    1    2    0  502 -0.28185393318E+03  0.18537393629E+03 -0.14107647396E+03  0.40456975713E+03  0.17311551339E+03 0.  0.
        -24    2    5    5    0    0 -0.59176173780E+02  0.23902052170E+02 -0.19296917498E+02  0.10371945505E+03  0.79449522900E+02 0.  0.
          5    1    3    3  501    0  0.63653822897E+02  0.86356584008E+01  0.79079086672E+02  0.10199007655E+03  0.47000000000E+01 0. -1.
        -13    1    4    4    0    0  0.20364447389E+03 -0.19859650415E+03  0.13294619903E+03  0.31398460957E+03  0.00000000000E+00 0.  1.
         14    1    4    4    0    0  0.14555636388E+02  0.45869094619E+01 -0.50028740819E+01  0.16060356103E+02  0.00000000000E+00 0. -1.
         -5    1    5    5    0  502 -0.22267775940E+03  0.16147188412E+03 -0.12177955646E+03  0.30085030208E+03  0.47000000000E+01 0.  1.
         11    1    6    6    0    0 -0.29275896046E+02  0.27836605219E+02  0.26911422420E+02  0.48540491717E+02  0.00000000000E+00 0. -1.
        -12    1    6    6    0    0 -0.29900277734E+02 -0.39345530488E+01 -0.46208339917E+02  0.55178963330E+02  0.00000000000E+00 0.  1.
</event>
<event>
12    1  0.8633375E-002  0.1789498E+03  0.7818608E-02  0.1169009E+00
         21   -1    0    0  503  502  0.00000000000E+00  0.00000000000E+00  0.14896011423E+03  0.14896011423E+03  0.00000000000E+00 0. -1.
         21   -1    0    0  501  503 -0.00000000000E+00 -0.00000000000E+00 -0.21856249710E+03  0.21856249710E+03  0.00000000000E+00 0. -1.
          6    2    1    2  501    0 -0.22971855921E+02 -0.40239988309E+02 -0.61232012385E+02  0.18913590619E+03  0.17284695209E+03 0.  0.
         24    2    3    3    0    0 -0.42657816767E+02  0.36423451315E+02 -0.22210291410E+02  0.10076393814E+03  0.80707602169E+02 0.  0.
         -6    2    1    2    0  502  0.22971855921E+02  0.40239988309E+02 -0.83703704876E+01  0.17838670514E+03  0.17206042731E+03 0.  0.
        -24    2    5    5    0    0  0.27300936877E+02 -0.15496052302E+02  0.51598665095E+02  0.96267143562E+02  0.74963136932E+02 0.  0.
          5    1    3    3  501    0  0.19685960846E+02 -0.76663439625E+02 -0.39021720975E+02  0.88371968052E+02  0.47000000000E+01 0. -1.
        -13    1    4    4    0    0 -0.11658409292E+02 -0.88821546973E+01  0.24589882809E+02  0.28626447839E+02  0.00000000000E+00 0.  1.
         14    1    4    4    0    0 -0.30999407476E+02  0.45305606013E+02 -0.46800174220E+02  0.72137490302E+02  0.00000000000E+00 0. -1.
         -5    1    5    5    0  502 -0.43290809557E+01  0.55736040611E+02 -0.59969035583E+02  0.82119561577E+02  0.47000000000E+01 0.  1.
         13    1    6    6    0    0  0.88814390217E+00 -0.14325953811E+02  0.65042000912E+02  0.66606933834E+02  0.00000000000E+00 0. -1.
        -14    1    6    6    0    0  0.26412792975E+02 -0.11700984910E+01 -0.13443335817E+02  0.29660209728E+02  0.00000000000E+00 0.  1.
</event>
<event>
12    1  0.8633375E-002  0.2089427E+03  0.7818608E-02  0.1142584E+00
         21   -1    0    0  501  502  0.00000000000E+00  0.00000000000E+00  0.74677114822E+02  0.74677114822E+02  0.00000000000E+00 0.  1.
         21   -1    0    0  502  503 -0.00000000000E+00 -0.00000000000E+00 -0.60077275350E+03  0.60077275350E+03  0.00000000000E+00 0.  1.
         -6    2    1    2    0  503 -0.87547433174E+02 -0.79574738654E+02 -0.32200348696E+03  0.38337000174E+03  0.17114210625E+03 0.  0.
        -24    2    3    3    0    0 -0.17971409605E+02 -0.16626555801E+02 -0.25424456054E+03  0.26753969961E+03  0.79610177649E+02 0.  0.
          6    2    1    2  501    0  0.87547433174E+02  0.79574738654E+02 -0.20409215172E+03  0.29207986658E+03  0.17222180461E+03 0.  0.
         24    2    5    5    0    0  0.96576407723E+02  0.89410419905E+02 -0.21980121161E+03  0.27093447536E+03  0.88157198224E+02 0.  0.
          5    1    5    5  501    0 -0.90289745496E+01 -0.98356812505E+01  0.15709059894E+02  0.21145391220E+02  0.47000000000E+01 0. -1.
        -13    1    6    6    0    0  0.71727376916E+02  0.68787932508E+01 -0.10616022321E+03  0.12830482215E+03  0.00000000000E+00 0.  1.
         14    1    6    6    0    0  0.24849030808E+02  0.82531626654E+02 -0.11364098841E+03  0.14262965321E+03  0.00000000000E+00 0. -1.
         -5    1    3    3    0  503 -0.69576023569E+02 -0.62948182853E+02 -0.67758926423E+02  0.11583030212E+03  0.47000000000E+01 0.  1.
         13    1    4    4    0    0  0.11505937777E+02  0.26430160552E+02 -0.62594639442E+02  0.68913198140E+02  0.00000000000E+00 0. -1.
        -14    1    4    4    0    0 -0.29477347382E+02 -0.43056716353E+02 -0.19164992109E+03  0.19862650147E+03  0.00000000000E+00 0.  1.
</event>
<event>
12    1  0.8633375E-002  0.1773915E+03  0.7818608E-02  0.1171069E+00
         21   -1    0    0  501  502  0.00000000000E+00  0.00000000000E+00  0.32138762587E+03  0.32138762587E+03  0.00000000000E+00 0. -1.
         21   -1    0    0  502  503 -0.00000000000E+00 -0.00000000000E+00 -0.11105301058E+03  0.11105301058E+03  0.00000000000E+00 0. -1.
         -6    2    1    2    0  503 -0.25677656600E+02  0.14658112047E+02  0.27181703116E+02  0.17946193919E+03  0.17491009215E+03 0.  0.
        -24    2    3    3    0    0  0.41761193433E+02  0.26717915735E+02  0.63597383366E+02  0.10173402190E+03  0.62026927555E+02 0.  0.
          6    2    1    2  501    0  0.25677656600E+02 -0.14658112047E+02  0.18315291217E+03  0.25297869726E+03  0.17198555094E+03 0.  0.
         24    2    5    5    0    0 -0.18353065873E+02  0.97657137425E+01  0.18501998649E+03  0.20237431252E+03  0.79314328942E+02 0.  0.
          5    1    5    5  501    0  0.44030722473E+02 -0.24423825789E+02 -0.18670743204E+01  0.50604384733E+02  0.47000000000E+01 0. -1.
        -13    1    6    6    0    0 -0.14820264454E+01  0.43865721795E+02  0.10288572321E+03  0.11185647049E+03  0.00000000000E+00 0.  1.
         14    1    6    6    0    0 -0.16871039428E+02 -0.34100008053E+02  0.82134263282E+02  0.90517842028E+02  0.00000000000E+00 0. -1.
         -5    1    3    3    0  503 -0.67438850033E+02 -0.12059803688E+02 -0.36415680250E+02  0.77727917294E+02  0.47000000000E+01 0.  1.
         11    1    4    4    0    0  0.23394151476E+01  0.18759889222E+02 -0.72663118442E+01  0.20253532893E+02  0.00000000000E+00 0. -1.
        -12    1    4    4    0    0  0.39421778285E+02  0.79580265130E+01  0.70863695211E+02  0.81480489002E+02  0.00000000000E+00 0.  1.
</event>
<event>
12    1  0.8633375E-002  0.1978809E+03  0.7818608E-02  0.1151589E+00
         21   -1    0    0  503  502  0.00000000000E+00  0.00000000000E+00  0.74242278304E+03  0.74242278304E+03  0.00000000000E+00 0. -1.
         21   -1    0    0  501  503 -0.00000000000E+00 -0.00000000000E+00 -0.81983119576E+02  0.81983119576E+02  0.00000000000E+00 0. -1.
          6    2    1    2  501    0  0.94535185409E+02 -0.19832648289E+02  0.83655093275E+02  0.21462127877E+03  0.17243515723E+03 0.  0.
         24    2    3    3    0    0  0.12895866504E+03 -0.33525591621E+02  0.85106543218E+02  0.17724923903E+03  0.80124069148E+02 0.  0.
         -6    2    1    2    0  502 -0.94535185409E+02  0.19832648289E+02  0.57678457019E+03  0.60978462385E+03  0.17270382699E+03 0.  0.
        -24    2    5    5    0    0 -0.55801479097E+02 -0.10732148146E+02  0.53787444273E+03  0.54677196794E+03  0.80135414848E+02 0.  0.
          5    1    3    3  501    0 -0.34423479631E+02  0.13692943332E+02 -0.14514499422E+01  0.37372039735E+02  0.47000000000E+01 0. -1.
        -13    1    4    4    0    0  0.26020225922E+01 -0.21273117479E+02 -0.44515459911E+01  0.21889091131E+02  0.00000000000E+00 0.  1.
         14    1    4    4    0    0  0.12635664245E+03 -0.12252474142E+02  0.89558089209E+02  0.15536014790E+03  0.00000000000E+00 0. -1.
         -5    1    5    5    0  502 -0.38733706312E+02  0.30564796435E+02  0.38910127464E+02  0.63012655911E+02  0.47000000000E+01 0.  1.
         11    1    6    6    0    0 -0.72070780105E+02 -0.20235354114E+02  0.34772684450E+03  0.35569316171E+03  0.00000000000E+00 0. -1.
        -12    1    6    6    0    0  0.16269301007E+02  0.95032059683E+01  0.19014759823E+03  0.19107880623E+03  0.00000000000E+00 0.  1.
</event>
<event>
12    1  0.8633375E-002  0.3238490E+03  0.7818608E-02  0.1073913E+00
         21   -1    0    0  501  502  0.00000000000E+00  0.00000000000E+00  0.69069089700E+02  0.69069089700E+02  0.00000000000E+00 0. -1.
         21   -1    0    0  502  503 -0.00000000000E+00 -0.00000000000E+00 -0.15179251096E+04  0.15179251096E+04  0.00000000000E+00 0. -1.
         -6    2    1    2    0  503  0.26320834886E+03  0.78180268412E+02 -0.71256598244E+03  0.78270586751E+03  0.17171897513E+03 0.  0.
        -24    2    3    3    0    0  0.24852648979E+03  0.93675260221E+02 -0.52385916914E+03  0.59273744080E+03  0.79804599721E+02 0.  0.
          6    2    1    2  501    0 -0.26320834886E+03 -0.78180268412E+02 -0.73629003742E+03  0.80428833176E+03  0.17136485088E+03 0.  0.
         24    2    5    5    0    0 -0.23035195577E+03 -0.10518395538E+02 -0.50050226107E+03  0.55674916903E+03  0.79337656300E+02 0.  0.
          5    1    5    5  501    0 -0.32856393094E+02 -0.67661872874E+02 -0.23578777635E+03  0.24753916273E+03  0.47000000000E+01 0. -1.
        -11    1    6    6    0    0 -0.43689837884E+02  0.28864752176E+02 -0.90996086565E+02  0.10498696882E+03  0.00000000000E+00 0.  1.
         12    1    6    6    0    0 -0.18666211788E+03 -0.39383147715E+02 -0.40950617451E+03  0.45176220021E+03  0.00000000000E+00 0. -1.
         -5    1    3    3    0  503  0.14681859074E+02 -0.15494991808E+02 -0.18870681331E+03  0.18996842671E+03  0.47000000000E+01 0.  1.
         13    1    4    4    0    0  0.20315046956E+03  0.40991764435E+02 -0.37555531099E+03  0.42894315433E+03  0.00000000000E+00 0. -1.
        -14    1    4    4    0    0  0.45376020231E+02  0.52683495786E+02 -0.14830385814E+03  0.16379428647E+03  0.00000000000E+00 0.  1.
</event>
<event>
12    1  0.8633375E-002  0.1815116E+03  0.7818608E-02  0.1166413E+00
         21   -1    0    0  501  502  0.00000000000E+00  0.00000000000E+00  0.35231046215E+03  0.35231046215E+03  0.00000000000E+00 0. -1.
         21   -1    0    0  502  503 -0.00000000000E+00 -0.00000000000E+00 -0.10155503063E+03  0.10155503063E+03  0.00000000000E+00 0. -1.
         -6    2    1    2    0  503  0.58628008785E+02 -0.73873409068E+01  0.60888799748E+02  0.19119500317E+03  0.17133670675E+03 0.  0.
        -24    2    3    3    0    0  0.46243303512E+02 -0.71524618730E+02  0.37708718017E+02  0.12172286832E+03  0.78360034796E+02 0.  0.
          6    2    1    2  501    0 -0.58628008785E+02  0.73873409068E+01  0.18986663177E+03  0.26267048962E+03  0.17162351831E+03 0.  0.
         24    2    5    5    0    0  0.19130350446E+02 -0.37760116132E+02  0.83361142246E+02  0.12320664267E+03  0.80243380301E+02 0.  0.
          5    1    5    5  501    0 -0.77758359231E+02  0.45147457039E+02  0.10650548952E+03  0.13946384695E+03  0.47000000000E+01 0. -1.
        -11    1    6    6    0    0  0.40248016314E+01  0.30696908476E+01  0.79324040336E+02  0.79485378563E+02  0.00000000000E+00 0.  1.
         12    1    6    6    0    0  0.15105548815E+02 -0.40829806980E+02  0.40371019100E+01  0.43721264104E+02  0.00000000000E+00 0. -1.
         -5    1    3    3    0  503  0.12384705272E+02  0.64137277823E+02  0.23180081731E+02  0.69472134848E+02  0.47000000000E+01 0.  1.
         11    1    4    4    0    0  0.41988512428E+02 -0.79962024910E+01  0.39254274793E+02  0.58033374188E+02  0.00000000000E+00 0. -1.
        -12    1    4    4    0    0  0.42547910849E+01 -0.63528416239E+02 -0.15455567755E+01  0.63689494132E+02  0.00000000000E+00 0.  1.
</event>
<event>
12    1  0.8633375E-002  0.1826922E+03  0.7818608E-02  0.1165273E+00
         21   -1    0    0  503  502  0.00000000000E+00  0.00000000000E+00  0.30305873300E+02  0.30305873300E+02  0.00000000000E+00 0.  1.
         21   -1    0    0  501  503 -0.00000000000E+00 -0.00000000000E+00 -0.11238372734E+04  0.11238372734E+04  0.00000000000E+00 0.  1.
          6    2    1    2  501    0  0.22809767930E+02 -0.56179592089E+02 -0.63044322174E+03  0.65632080291E+03  0.17211016361E+03 0.  0.
         24    2    3    3    0    0  0.13379849959E+02 -0.38889461342E+02 -0.14735023479E+03  0.17280369255E+03  0.80359279970E+02 0.  0.
         -6    2    1    2    0  502 -0.22809767930E+02  0.56179592089E+02 -0.46308817840E+03  0.49782234383E+03  0.17233685897E+03 0.  0.
        -24    2    5    5    0    0  0.38540087678E+02  0.33679694693E+01 -0.33384225717E+03  0.34524623030E+03  0.79041921048E+02 0.  0.
          5    1    3    3  501    0  0.94299179704E+01 -0.17290130747E+02 -0.48309298695E+03  0.48351711036E+03  0.47000000000E+01 0. -1.
        -13    1    4    4    0    0 -0.12628280876E+02 -0.53029659549E+02 -0.12276055629E+03  0.13431966517E+03  0.00000000000E+00 0.  1.
         14    1    4    4    0    0  0.26008130836E+02  0.14140198206E+02 -0.24589678504E+02  0.38484027386E+02  0.00000000000E+00 0. -1.
         -5    1    5    5    0  502 -0.61349855608E+02  0.52811622620E+02 -0.12924592123E+03  0.15257611353E+03  0.47000000000E+01 0.  1.
         13    1    6    6    0    0  0.25690825508E+02 -0.34985659359E+02 -0.11992275740E+03  0.12753620121E+03  0.00000000000E+00 0. -1.
        -14    1    6    6    0    0  0.12849262170E+02  0.38353628828E+02 -0.21391949978E+03  0.21771002909E+03  0.00000000000E+00 0.  1.
</event>
<event>
12    1  0.8633375E-002  0.3033720E+03  0.7818608E-02  0.1083719E+00
         21   -1    0    0  501  502  0.00000000000E+00  0.00000000000E+00  0.96670789914E+03  0.96670789914E+03  0.00000000000E+00 0.  1.
         21   -1    0    0  502  503 -0.00000000000E+00 -0.00000000000E+00 -0.11295656617E+03  0.11295656617E+03  0.00000000000E+00 0. -1.
         -6    2    1    2    0  503 -0.19171933891E+03 -0.15769008851E+03  0.64391651667E+03  0.71180265716E+03  0.17439057710E+03 0.  0.
        -24    2    3    3    0    0 -0.17364252872E+03 -0.84464326509E+02  0.35154790270E+03  0.40982537371E+03  0.84172197389E+02 0.  0.
          6    2    1    2  501    0  0.19171933891E+03  0.15769008851E+03  0.20983481630E+03  0.36786180815E+03  0.17224746975E+03 0.  0.
         24    2    5    5    0    0  0.45413382671E+02  0.10321013811E+03  0.14004689996E+03  0.19678889651E+03  0.79987671979E+02 0.  0.
          5    1    5    5  501    0  0.14630595624E+03  0.54479950401E+02  0.69787916340E+02  0.17107291163E+03  0.47000000000E+01 0. -1.
        -13    1    6    6    0    0  0.38103328410E+02  0.11551617958E+03  0.11222109880E+03  0.16549751175E+03  0.00000000000E+00 0.  1.
         14    1    6    6    0    0  0.73100542603E+01 -0.12306041472E+02  0.27825801163E+02  0.31291384763E+02  0.00000000000E+00 0. -1.
         -5    1    3    3    0  503 -0.18076810196E+02 -0.73225761999E+02  0.29236861397E+03  0.30197728345E+03  0.47000000000E+01 0.  1.
         11    1    4    4    0    0 -0.31385293825E+02 -0.55540645762E+02  0.84581658381E+02  0.10594270591E+03  0.00000000000E+00 0. -1.
        -12    1    4    4    0    0 -0.14225723489E+03 -0.28923680747E+02  0.26696624432E+03  0.30388266781E+03  0.00000000000E+00 0.  1.
</event>
<event>
12    1  0.8633375E-002  0.1780647E+03  0.7818608E-02  0.1170029E+00
         21   -1    0    0  501  502  0.00000000000E+00  0.00000000000E+00  0.18838801632E+04  0.18838801632E+04  0.00000000000E+00 0. -1.
         21   -1    0    0  502  503 -0.00000000000E+00 -0.00000000000E+00 -0.17508476478E+02  0.17508476478E+02  0.00000000000E+00 0. -1.
         -6    2    1    2    0  503  0.10960327414E+02  0.45046222683E+02  0.72549970602E+03  0.74670430549E+03  0.17049400417E+03 0.  0.
        -24    2    3    3    0    0  0.42893845008E+02  0.71663222164E+02  0.34979825599E+03  0.36868065047E+03  0.81185607006E+02 0.  0.
          6    2    1    2  501    0 -0.10960327414E+02 -0.45046222683E+02  0.11408719807E+04  0.11546843342E+04  0.17192365833E+03 0.  0.
         24    2    5    5    0    0 -0.60712511813E+02 -0.51228763418E+02  0.53364788484E+03  0.54537595884E+03  0.79652220284E+02 0.  0.
          5    1    5    5  501    0  0.49752184399E+02  0.61825407350E+01  0.60722409586E+03  0.60930837534E+03  0.47000000000E+01 0. -1.
        -11    1    6    6    0    0 -0.11594870736E+02 -0.46757152637E+01  0.34025186350E+03  0.34048147373E+03  0.00000000000E+00 0.  1.
         12    1    6    6    0    0 -0.49117641077E+02 -0.46553048154E+02  0.19339602134E+03  0.20489448510E+03  0.00000000000E+00 0. -1.
         -5    1    3    3    0  503 -0.31933517594E+02 -0.26616999482E+02  0.37570145002E+03  0.37802365502E+03  0.47000000000E+01 0.  1.
         11    1    4    4    0    0  0.59784922294E+02  0.45118681876E+02  0.30417201906E+03  0.31325796010E+03  0.00000000000E+00 0. -1.
        -12    1    4    4    0    0 -0.16891077286E+02  0.26544540289E+02  0.45626236930E+02  0.55422690366E+02  0.00000000000E+00 0.  1.
</event>
<event>
12    1  0.8633375E-002  0.1919751E+03  0.7818608E-02  0.1156759E+00
         21   -1    0    0  503  502  0.00000000000E+00  0.00000000000E+00  0.52124162453E+02  0.52124162453E+02  0.00000000000E+00 0. -1.
         21   -1    0    0  501  503 -0.00000000000E+00 -0.00000000000E+00 -0.70999226723E+03  0.70999226723E+03  0.00000000000E+00 0. -1.
          6    2    1    2  501    0  0.59750755105E+02  0.61001058507E+02 -0.29986772076E+03  0.35589149250E+03  0.17160076515E+03 0.  0.
         24    2    3    3    0    0 -0.20262679788E+02  0.69870849638E+02 -0.15074344682E+03  0.18635989652E+03  0.81938467449E+02 0.  0.
         -6    2    1    2    0  502 -0.59750755105E+02 -0.61001058507E+02 -0.35800038402E+03  0.40622493719E+03  0.17193935781E+03 0.  0.
        -24    2    5    5    0    0 -0.37578180077E+02  0.62466915561E+01 -0.85130407718E+02  0.12427813913E+03  0.82138473161E+02 0.  0.
          5    1    3    3  501    0  0.80013434893E+02 -0.88697911308E+01 -0.14912427394E+03  0.16953159598E+03  0.47000000000E+01 0. -1.
        -13    1    4    4    0    0 -0.22262741935E+02 -0.17117376833E+00 -0.25163517197E+01  0.22405155766E+02  0.00000000000E+00 0.  1.
         14    1    4    4    0    0  0.20000621472E+01  0.70042023406E+02 -0.14822709510E+03  0.16395474075E+03  0.00000000000E+00 0. -1.
         -5    1    5    5    0  502 -0.22172575027E+02 -0.67247750063E+02 -0.27286997630E+03  0.28194679806E+03  0.47000000000E+01 0.  1.
         11    1    6    6    0    0 -0.32690228048E+02  0.14661713536E+01 -0.10144322708E+03  0.10659047326E+03  0.00000000000E+00 0. -1.
        -12    1    6    6    0    0 -0.48879520294E+01  0.47805202026E+01  0.16312819362E+02  0.17687665872E+02  0.00000000000E+00 0.  1.
</event>
<event>
12    1  0.8633375E-002  0.2301864E+03  0.7818608E-02  0.1126663E+00
         21   -1    0    0  501  502  0.00000000000E+00  0.00000000000E+00  0.62601458770E+03  0.62601458770E+03  0.00000000000E+00 0.  1.
         21   -1    0    0  502  503 -0.00000000000E+00 -0.00000000000E+00 -0.11455851780E+03  0.11455851780E+03  0.00000000000E+00 0.  1.
         -6    2    1    2    0  503  0.12058399584E+03  0.89850558094E+02  0.65839393954E+02  0.23941718767E+03  0.17427604858E+03 0.  0.
        -24    2    3    3    0    0  0.82497959049E+02  0.66763735871E+01 -0.15230505448E+02  0.11709421453E+03  0.81416211956E+02 0.  0.
          6    2    1    2  501    0 -0.12058399584E+03 -0.89850558094E+02  0.44561667594E+03  0.50115591784E+03  0.17311675039E+03 0.  0.
         24    2    5    5    0    0 -0.26646979409E+02 -0.89548274920E+02  0.16176280111E+03  0.20212520589E+03  0.77190931987E+02 0.  0.
          5    1    5    5  501    0 -0.93937016433E+02 -0.30228317355E+00  0.28385387483E+03  0.29903071195E+03  0.47000000000E+01 0. -1.
        -11    1    6    6    0    0 -0.50230207867E+02 -0.74303779045E+02  0.10030398375E+03  0.13455487549E+03  0.00000000000E+00 0.  1.
         12    1    6    6    0    0  0.23583228459E+02 -0.15244495876E+02  0.61458817357E+02  0.67570330397E+02  0.00000000000E+00 0. -1.
         -5    1    3    3    0  503  0.38086036793E+02  0.83174184507E+02  0.81069899402E+02  0.12232297313E+03  0.47000000000E+01 0.  1.
         11    1    4    4    0    0 -0.15459385136E+02 -0.20972151400E+01 -0.10152895475E+02  0.18613763366E+02  0.00000000000E+00 0. -1.
        -12    1    4    4    0    0  0.97957344185E+02  0.87735887271E+01 -0.50776099725E+01  0.98480451166E+02  0.00000000000E+00 0.  1.
</event>
<event>
12    1  0.8633375E-002  0.1882872E+03  0.7818608E-02  0.1160336E+00
         21   -1    0    0  501  502  0.00000000000E+00  0.00000000000E+00  0.10974389082E+03  0.10974389082E+03  0.00000000000E+00 0.  1.
         21   -1    0    0  502  503 -0.00000000000E+00 -0.00000000000E+00 -0.32927651331E+03  0.32927651331E+03  0.00000000000E+00 0.  1.
         -6    2    1    2    0  503  0.14770932447E+02  0.67210932343E+02 -0.14490852567E+03  0.23648438220E+03  0.17375526564E+03 0.  0.
        -24    2    3    3    0    0  0.49686633827E+02 -0.15537598081E+02 -0.55016853836E+02  0.10932688869E+03  0.78837401331E+02 0.  0.
          6    2    1    2  501    0 -0.14770932447E+02 -0.67210932343E+02 -0.74624096812E+02  0.20253602193E+03  0.17526150314E+03 0.  0.
         24    2    5    5    0    0  0.34903307141E+02 -0.23978998487E+02 -0.96897998163E+02  0.13286000838E+03  0.80432123929E+02 0.  0.
          5    1    5    5  501    0 -0.49674239588E+02 -0.43231933856E+02  0.22273901352E+02  0.69676013556E+02  0.47000000000E+01 0. -1.
        -11    1    6    6    0    0  0.50117995229E+02 -0.20974053181E+02 -0.25899216248E+02  0.60187156062E+02  0.00000000000E+00 0.  1.
         12    1    6    6    0    0 -0.15214688087E+02 -0.30049453056E+01 -0.70998781916E+02  0.72672852314E+02  0.00000000000E+00 0. -1.
         -5    1    3    3    0  503 -0.34915701379E+02  0.82748530424E+02 -0.89891671836E+02  0.12715749351E+03  0.47000000000E+01 0.  1.
         11    1    4    4    0    0  0.24451045165E+02  0.21574757169E+02  0.64290877196E+01  0.33236379548E+02  0.00000000000E+00 0. -1.
        -12    1    4    4    0    0  0.25235588662E+02 -0.37112355249E+02 -0.61445941555E+02  0.76090509138E+02  0.00000000000E+00 0.  1.
</event>
<event>
12    1  0.8633375E-002  0.3196004E+03  0.7818608E-02  0.1075902E+00
         21   -1    0    0  503  502  0.00000000000E+00  0.00000000000E+00  0.17500568537E+04  0.17500568537E+04  0.00000000000E+00 0. -1.
         21   -1    0    0  501  503 -0.00000000000E+00 -0.00000000000E+00 -0.65092406317E+02  0.65092406317E+02  0.00000000000E+00 0.  1.
          6    2    1    2  501    0 -0.26828524970E+03 -0.76516059887E+01  0.11372836166E+04  0.11813375649E+04  0.17351915036E+03 0.  0.
         24    2    3    3    0    0 -0.19592060247E+03  0.49594875979E+02  0.65000131668E+03  0.68537392550E+03  0.79944805132E+02 0.  0.
         -6    2    1    2    0  502  0.26828524970E+03  0.76516059887E+01  0.54768083081E+03  0.63381169507E+03  0.17241650181E+03 0.  0.
        -24    2    5    5    0    0  0.12009017147E+03  0.65663190423E+02  0.24296809782E+03  0.29001078643E+03  0.79620699739E+02 0.  0.
          5    1    3    3  501    0 -0.72364647228E+02 -0.57246481967E+02  0.48728229988E+03  0.49596363944E+03  0.47000000000E+01 0. -1.
        -11    1    4    4    0    0 -0.49042728986E+02  0.32500956328E+02  0.29496304033E+03  0.30077349715E+03  0.00000000000E+00 0.  1.
         12    1    4    4    0    0 -0.14687787348E+03  0.17093919651E+02  0.35503827635E+03  0.38460042834E+03  0.00000000000E+00 0. -1.
         -5    1    5    5    0  502  0.14819507822E+03 -0.58011584434E+02  0.30471273298E+03  0.34380090864E+03  0.47000000000E+01 0.  1.
         11    1    6    6    0    0  0.13033814466E+03  0.66325242608E+02  0.23586723432E+03  0.27752553393E+03  0.00000000000E+00 0. -1.
        -12    1    6    6    0    0 -0.10247973185E+02 -0.66205218543E+00  0.71008635077E+01  0.12485252503E+02  0.00000000000E+00 0.  1.
</event>
<event>
12    1  0.8633375E-002  0.1994588E+03  0.7818608E-02  0.1150316E+00
         21   -1    0    0  503  502  0.00000000000E+00  0.00000000000E+00  0.20616488888E+04  0.20616488888E+04  0.00000000000E+00 0. -1.
         21   -1    0    0  501  503 -0.00000000000E+00 -0.00000000000E+00 -0.19386724312E+02  0.19386724312E+02  0.00000000000E+00 0. -1.
          6    2    1    2  501    0 -0.24759420813E+02 -0.96375415610E+02  0.93281524417E+03  0.95390150395E+03  0.17286569882E+03 0.  0.
         24    2    3    3    0    0 -0.32688945447E+02  0.14198239217E+02  0.38968540700E+03  0.39955367043E+03  0.80735754005E+02 0.  0.
         -6    2    1    2    0  502  0.24759420813E+02  0.96375415610E+02  0.11094469203E+04  0.11271341091E+04  0.17221376652E+03 0.  0.
        -24    2    5    5    0    0  0.49481424377E+02  0.86749660219E+02  0.48926709126E+03  0.50636930426E+03  0.83986134605E+02 0.  0.
          5    1    3    3  501    0  0.79295246340E+01 -0.11057365483E+03  0.54312983717E+03  0.55434783352E+03  0.47000000000E+01 0. -1.
        -11    1    4    4    0    0  0.11504310179E+01  0.40172691631E+02  0.12091678636E+03  0.12742071209E+03  0.00000000000E+00 0.  1.
         12    1    4    4    0    0 -0.33839376465E+02 -0.25974452414E+02  0.26876862064E+03  0.27213295834E+03  0.00000000000E+00 0. -1.
         -5    1    5    5    0  502 -0.24722003564E+02  0.96257553907E+01  0.62017982902E+03  0.62076480486E+03  0.47000000000E+01 0.  1.
         13    1    6    6    0    0  0.25828226294E+02  0.53209635698E+02  0.43134185058E+03  0.43537817431E+03  0.00000000000E+00 0. -1.
        -14    1    6    6    0    0  0.23653198083E+02  0.33540024521E+02  0.57925240681E+02  0.70991129956E+02  0.00000000000E+00 0.  1.
</event>
<event>
12    1  0.8633375E-002  0.1871622E+03  0.7818608E-02  0.1161135E+00
         21   -1    0    0  501  502  0.00000000000E+00  0.00000000000E+00  0.18665632339E+04  0.18665632339E+04  0.00000000000E+00 0. -1.
         21   -1    0    0  502  503 -0.00000000000E+00 -0.00000000000E+00 -0.36981665591E+02  0.36981665591E+02  0.00000000000E+00 0. -1.
         -6    2    1    2    0  503  0.72282847233E+02 -0.61402176702E+01  0.24563918982E+03  0.30858310111E+03  0.17211161042E+03 0.  0.
        -24    2    3    3    0    0  0.72774917944E+02  0.42682565607E+02  0.11359403150E+03  0.16772175036E+03  0.90049938718E+02 0.  0.
          6    2    1    2  501    0 -0.72282847233E+02  0.61402176702E+01  0.15839423785E+04  0.15949617984E+04  0.17253164239E+03 0.  0.
         24    2    5    5    0    0 -0.95497656976E+02  0.40378793926E+02  0.14090154667E+04  0.14151487789E+04  0.81063133465E+02 0.  0.
          5    1    5    5  501    0  0.23214809743E+02 -0.34238576256E+02  0.17492691176E+03  0.17981301942E+03  0.47000000000E+01 0. -1.
        -13    1    6    6    0    0 -0.15542637828E+02 -0.21227507957E+02  0.16941842281E+03  0.17144906728E+03  0.00000000000E+00 0.  1.
         14    1    6    6    0    0 -0.79955019148E+02  0.61606301884E+02  0.12395970439E+04  0.12436997117E+04  0.00000000000E+00 0. -1.
         -5    1    3    3    0  503 -0.49207071034E+00 -0.48822783277E+02  0.13204515832E+03  0.14086135075E+03  0.47000000000E+01 0.  1.
         11    1    4    4    0    0  0.45673656160E+02  0.12971439350E+02  0.27731650654E+00  0.47480711981E+02  0.00000000000E+00 0. -1.
        -12    1    4    4    0    0  0.27101261784E+02  0.29711126257E+02  0.11331671499E+03  0.12024103838E+03  0.00000000000E+00 0.  1.
</event>
<event>
12    1  0.8633375E-002  0.2192475E+03  0.7818608E-02  0.1134523E+00
         21   -1    0    0  503  502  0.00000000000E+00  0.00000000000E+00  0.18862675618E+04  0.18862675618E+04  0.00000000000E+00 0. -1.
         21   -1    0    0  501  503 -0.00000000000E+00 -0.00000000000E+00 -0.34506799412E+02  0.34506799412E+02  0.00000000000E+00 0. -1.
          6    2    1    2  501    0 -0.10689137956E+02 -0.13706896930E+03  0.43412197295E+03  0.48634489340E+03  0.17078439015E+03 0.  0.
         24    2    3    3    0    0  0.70455762794E+01 -0.66956072864E+02  0.38463915692E+03  0.39858968034E+03  0.79960592793E+02 0.  0.
         -6    2    1    2    0  502  0.10689137956E+02  0.13706896930E+03  0.14176387894E+04  0.14344294678E+04  0.17025275565E+03 0.  0.
        -24    2    5    5    0    0  0.39460870251E+02  0.11824171008E+03  0.13527838558E+04  0.13608731582E+04  0.80083268330E+02 0.  0.
          5    1    3    3  501    0 -0.17734714235E+02 -0.70112896439E+02  0.49482816030E+02  0.87755213055E+02  0.47000000000E+01 0. -1.
        -11    1    4    4    0    0  0.16675182935E+02 -0.83612004457E+02  0.31756001320E+03  0.32880600816E+03  0.00000000000E+00 0.  1.
         12    1    4    4    0    0 -0.96296066558E+01  0.16655931593E+02  0.67079143719E+02  0.69783672185E+02  0.00000000000E+00 0. -1.
         -5    1    5    5    0  502 -0.28771732296E+02  0.18827259224E+02  0.64854933600E+02  0.73556309597E+02  0.47000000000E+01 0.  1.
         11    1    6    6    0    0 -0.10421976739E+01  0.72328006951E+02  0.42840883382E+03  0.43447273293E+03  0.00000000000E+00 0. -1.
        -12    1    6    6    0    0  0.40503067925E+02  0.45913703128E+02  0.92437502202E+03  0.92640042529E+03  0.00000000000E+00 0.  1.
</event>
<event>
12    1  0.8633375E-002  0.2109661E+03  0.7818608E-02  0.1143034E+00
         21   -1    0    0  503  502  0.00000000000E+00  0.00000000000E+00  0.44566653535E+03  0.44566653535E+03  0.00000000000E+00 0. -1.
         21   -1    0    0  501  503 -0.00000000000E+00 -0.00000000000E+00 -0.36864340155E+03  0.36864340155E+03  0.00000000000E+00 0. -1.
          6    2    1    2  501    0  0.11013985325E+03  0.40324437253E+02 -0.31216233664E+03  0.37676519304E+03  0.17535631940E+03 0.  0.
         24    2    3    3    0    0  0.75908435022E+02 -0.30939394319E+02 -0.11003808454E+03  0.15967851226E+03  0.81667071699E+02 0.  0.
         -6    2    1    2    0  502 -0.11013985325E+03 -0.40324437253E+02  0.38918547044E+03  0.43754474385E+03  0.16193586680E+03 0.  0.
        -24    2    5    5    0    0 -0.32039500692E+02 -0.30952959163E+02  0.92129698687E+02  0.13021477264E+03  0.80519502907E+02 0.  0.
          5    1    3    3  501    0  0.34231418229E+02  0.71263831571E+02 -0.20212425211E+03  0.21708668078E+03  0.47000000000E+01 0. -1.
        -13    1    4    4    0    0 -0.16151008387E+02 -0.13030406622E+01 -0.30189152862E+02  0.34262777725E+02  0.00000000000E+00 0.  1.
         14    1    4    4    0    0  0.92059443409E+02 -0.29636353656E+02 -0.79848931674E+02  0.12541573453E+03  0.00000000000E+00 0. -1.
         -5    1    5    5    0  502 -0.78100352560E+02 -0.93714780899E+01  0.29705577176E+03  0.30732997121E+03  0.47000000000E+01 0.  1.
         13    1    6    6    0    0  0.17822717519E+02  0.68054862137E+01  0.53263327935E+02  0.56576903460E+02  0.00000000000E+00 0. -1.
        -14    1    6    6    0    0 -0.49862218211E+02 -0.37758445376E+02  0.38866370752E+02  0.73637869182E+02  0.00000000000E+00 0.  1.
</event>
<event>
12    1  0.8633375E-002  0.2331553E+03  0.7818608E-02  0.1125379E+00
         21   -1    0    0  503  502  0.00000000000E+00  0.00000000000E+00  0.53543332616E+02  0.53543332616E+02  0.00000000000E+00 0. -1.
         21   -1    0    0  501  503 -0.00000000000E+00 -0.00000000000E+00 -0.99570938185E+03  0.99570938185E+03  0.00000000000E+00 0. -1.
          6    2    1    2  501    0 -0.18919730179E+02 -0.15678391412E+03 -0.44461833013E+03  0.50204266354E+03  0.17152907804E+03 0.  0.
         24    2    3    3    0    0  0.31854538189E+02 -0.33537934830E+02 -0.13827536623E+03  0.16792337456E+03  0.83298728331E+02 0.  0.
         -6    2    1    2    0  502  0.18919730179E+02  0.15678391412E+03 -0.49754771910E+03  0.54721005092E+03  0.16415223156E+03 0.  0.
        -24    2    5    5    0    0 -0.60015223772E+01  0.17470032173E+03 -0.46002952394E+03  0.49850921460E+03  0.79549063234E+02 0.  0.
          5    1    3    3  501    0 -0.50774268367E+02 -0.12324597929E+03 -0.30634296389E+03  0.33411928898E+03  0.47000000000E+01 0. -1.
        -13    1    4    4    0    0  0.56852058072E+02 -0.23600758580E+02 -0.63420077936E+02  0.88381324940E+02  0.00000000000E+00 0.  1.
         14    1    4    4    0    0 -0.24997519884E+02 -0.99371762499E+01 -0.74855288298E+02  0.79542049623E+02  0.00000000000E+00 0. -1.
         -5    1    5    5    0  502  0.24921252556E+02 -0.17916407601E+02 -0.37518195160E+02  0.48700836321E+02  0.47000000000E+01 0.  1.
         11    1    6    6    0    0 -0.39143836097E+02  0.79425347841E+02 -0.25648164321E+03  0.27133643155E+03  0.00000000000E+00 0. -1.
        -12    1    6    6    0    0  0.33142313719E+02  0.95274973884E+02 -0.20354788074E+03  0.22717278305E+03  0.00000000000E+00 0.  1.
</event>
<event>
12    1  0.8633375E-002  0.1943683E+03  0.7818608E-02  0.1154811E+00
         21   -1    0    0  501  502  0.00000000000E+00  0.00000000000E+00  0.94773883764E+02  0.94773883764E+02  0.00000000000E+00 0. -1.
         21   -1    0    0  502  503 -0.00000000000E+00 -0.00000000000E+00 -0.55399531616E+03  0.55399531616E+03  0.00000000000E+00 0. -1.
         -6    2    1    2    0  503 -0.84337919640E+02 -0.28624168996E+02 -0.40214213335E+03  0.44619303719E+03  0.17157419178E+03 0.  0.
        -24    2    3    3    0    0 -0.67836733044E+02 -0.84571721380E+02 -0.30045191245E+03  0.32886695824E+03  0.78281071266E+02 0.  0.
          6    2    1    2  501    0  0.84337919640E+02  0.28624168996E+02 -0.57079299043E+02  0.20257616273E+03  0.17276234424E+03 0.  0.
         24    2    5    5    0    0  0.11861669296E+03 -0.36508539076E+01 -0.23489799000E+02  0.14454982459E+03  0.79117839639E+02 0.  0.
          5    1    5    5  501    0 -0.34278773324E+02  0.32275022904E+02 -0.33589500043E+02  0.58026338133E+02  0.47000000000E+01 0. -1.
        -13    1    6    6    0    0 -0.57821621069E+01 -0.74767440793E+01 -0.17570604384E+02  0.19951472103E+02  0.00000000000E+00 0.  1.
         14    1    6    6    0    0  0.12439885507E+03  0.38258901717E+01 -0.59191946158E+01  0.12459835249E+03  0.00000000000E+00 0. -1.
         -5    1    3    3    0  503 -0.16501186596E+02  0.55947552384E+02 -0.10169022090E+03  0.11732607896E+03  0.47000000000E+01 0.  1.
         11    1    4    4    0    0 -0.20456475351E+02 -0.32439455846E+02 -0.21370374908E+03  0.21711765946E+03  0.00000000000E+00 0. -1.
        -12    1    4    4    0    0 -0.47380257693E+02 -0.52132265534E+02 -0.86748163367E+02  0.11174929877E+03  0.00000000000E+00 0.  1.
</event>
<event>
12    1  0.8633375E-002  0.2315610E+03  0.7818608E-02  0.1125568E+00
         21   -1    0    0  501  502  0.00000000000E+00  0.00000000000E+00  0.22133041038E+03  0.22133041038E+03  0.00000000000E+00 0.  1.
         21   -1    0    0  502  503 -0.00000000000E+00 -0.00000000000E+00 -0.99273443670E+03  0.99273443670E+03  0.00000000000E+00 0.  1.
         -6    2    1    2    0  503  0.10555773205E+03  0.11300639320E+03 -0.91351404989E+03  0.94237426628E+03  0.17218727795E+03 0.  0.
        -24    2    3    3    0    0 -0.62859023378E+01  0.65992571123E+02 -0.31581827226E+03  0.33247129808E+03  0.80009067858E+02 0.  0.
          6    2    1    2  501    0 -0.10555773205E+03 -0.11300639320E+03  0.14211002357E+03  0.27169058080E+03  0.17235902412E+03 0.  0.
         24    2    5    5    0    0 -0.10477463287E+03 -0.12024003781E+03  0.16758795488E+03  0.24478047410E+03  0.79977293628E+02 0.  0.
          5    1    5    5  501    0 -0.78309918425E+00  0.72336446051E+01 -0.25477931311E+02  0.26910106698E+02  0.47000000000E+01 0. -1.
        -13    1    6    6    0    0 -0.79047260108E+02 -0.54501517782E+02  0.51608444949E+02  0.10900603819E+03  0.00000000000E+00 0.  1.
         14    1    6    6    0    0 -0.25727372761E+02 -0.65738520027E+02  0.11597950993E+03  0.13577443591E+03  0.00000000000E+00 0. -1.
         -5    1    3    3    0  503  0.11184363439E+03  0.47013822081E+02 -0.59769577763E+03  0.60990296820E+03  0.47000000000E+01 0.  1.
         13    1    4    4    0    0 -0.40766550611E+02  0.20224788684E+02 -0.11627643356E+03  0.12486457756E+03  0.00000000000E+00 0. -1.
        -14    1    4    4    0    0  0.34480648273E+02  0.45767782439E+02 -0.19954183870E+03  0.20760672052E+03  0.00000000000E+00 0.  1.
</event>
<event>
12    1  0.8633375E-002  0.2314961E+03  0.7818608E-02  0.1125742E+00
         21   -1    0    0  503  502  0.00000000000E+00  0.00000000000E+00  0.38867610667E+03  0.38867610667E+03  0.00000000000E+00 0.  1.
         21   -1    0    0  501  503 -0.00000000000E+00 -0.00000000000E+00 -0.16945753163E+03  0.16945753163E+03  0.00000000000E+00 0.  1.
          6    2    1    2  501    0  0.72917325957E+02  0.13772499954E+03 -0.12000154298E+02  0.23094479624E+03  0.17001877333E+03 0.  0.
         24    2    3    3    0    0 -0.27701915091E+02  0.47882045990E+02 -0.66310946172E+01  0.95863691810E+02  0.78011470719E+02 0.  0.
         -6    2    1    2    0  502 -0.72917325957E+02 -0.13772499954E+03  0.23121872934E+03  0.32718884205E+03  0.17118798335E+03 0.  0.
        -24    2    5    5    0    0 -0.11417423085E+03 -0.12555476113E+03  0.20421324306E+03  0.27618263465E+03  0.75987143727E+02 0.  0.
          5    1    3    3  501    0  0.10061924105E+03  0.89842953555E+02 -0.53690596809E+01  0.13508110443E+03  0.47000000000E+01 0. -1.
        -11    1    4    4    0    0  0.30923918027E+01  0.61446165159E+02  0.21856490689E+00  0.61524319342E+02  0.00000000000E+00 0.  1.
         12    1    4    4    0    0 -0.30794306894E+02 -0.13564119170E+02 -0.68496595241E+01  0.34339372469E+02  0.00000000000E+00 0. -1.
         -5    1    5    5    0  502  0.41256904890E+02 -0.12170238413E+02  0.27005486279E+02  0.51006207400E+02  0.47000000000E+01 0.  1.
         13    1    6    6    0    0 -0.12762514338E+02  0.90599304240E+01  0.29697230629E+02  0.33569176614E+02  0.00000000000E+00 0. -1.
        -14    1    6    6    0    0 -0.10141171651E+03 -0.13461469156E+03  0.17451601243E+03  0.24261345804E+03  0.00000000000E+00 0.  1.
</event>
<event>
12    1  0.8633375E-002  0.1964670E+03  0.7818608E-02  0.1153095E+00
         21   -1    0    0  503  502  0.00000000000E+00  0.00000000000E+00  0.16366244769E+03  0.16366244769E+03  0.00000000000E+00 0. -1.
         21   -1    0    0  501  503 -0.00000000000E+00 -0.00000000000E+00 -0.27762349903E+03  0.27762349903E+03  0.00000000000E+00 0. -1.
          6    2    1    2  501    0  0.57381782749E+02 -0.72747406811E+02 -0.14428608345E+03  0.24249231723E+03  0.17146193703E+03 0.  0.
         24    2    3    3    0    0  0.93547572658E+02 -0.37720781904E+02 -0.53015419730E+02  0.13815031769E+03  0.78108064953E+02 0.  0.
         -6    2    1    2    0  502 -0.57381782749E+02  0.72747406811E+02  0.30325032112E+02  0.19879362949E+03  0.17324677591E+03 0.  0.
        -24    2    5    5    0    0 -0.48471057902E+02  0.92268122038E+02 -0.29925769724E+02  0.13466322748E+03  0.79848502442E+02 0.  0.
          5    1    3    3  501    0 -0.36165789909E+02 -0.35026624907E+02 -0.91270663724E+02  0.10434199954E+03  0.47000000000E+01 0. -1.
        -13    1    4    4    0    0  0.62279101310E+02 -0.18879793756E+02  0.94888536008E+01  0.65766035421E+02  0.00000000000E+00 0.  1.
         14    1    4    4    0    0  0.31268471347E+02 -0.18840988148E+02 -0.62504273331E+02  0.72384282268E+02  0.00000000000E+00 0. -1.
         -5    1    5    5    0  502 -0.89107248470E+01 -0.19520715228E+02  0.60250801836E+02  0.64130402011E+02  0.47000000000E+01 0.  1.
         13    1    6    6    0    0 -0.39447523422E+02  0.21475940204E+02  0.18333952798E+02  0.48512441054E+02  0.00000000000E+00 0. -1.
        -14    1    6    6    0    0 -0.90235344798E+01  0.70792181835E+02 -0.48259722522E+02  0.86150786423E+02  0.00000000000E+00 0.  1.
</event>
<event>
12    1  0.8633375E-002  0.1780024E+03  0.7818608E-02  0.1172694E+00
         21   -1    0    0  503  502  0.00000000000E+00  0.00000000000E+00  0.26946653050E+03  0.26946653050E+03  0.00000000000E+00 0.  1.
         21   -1    0    0  501  503 -0.00000000000E+00 -0.00000000000E+00 -0.27103799683E+03  0.27103799683E+03  0.00000000000E+00 0.  1.
          6    2    1    2  501    0  0.38883882252E+02 -0.24029186663E+02  0.20742626584E+03  0.27333223301E+03  0.17203341458E+03 0.  0.
         24    2    3    3    0    0  0.24107988890E+02  0.44185974880E+02  0.16762630186E+03  0.19284768529E+03  0.80981832173E+02 0.  0.
         -6    2    1    2    0  502 -0.38883882252E+02  0.24029186663E+02 -0.20899773216E+03  0.26717229432E+03  0.16003632304E+03 0.  0.
        -24    2    5    5    0    0  0.21610219793E+02  0.66010170174E+01 -0.17239270854E+03  0.19419767384E+03  0.86503846974E+02 0.  0.
          5    1    3    3  501    0  0.14775893362E+02 -0.68215161543E+02  0.39799963978E+02  0.80484547720E+02  0.47000000000E+01 0. -1.
        -11    1    4    4    0    0 -0.18330174928E+02  0.35083176012E+02  0.12833728798E+03  0.13430295617E+03  0.00000000000E+00 0.  1.
         12    1    4    4    0    0  0.42438163817E+02  0.91027988687E+01  0.39289013887E+02  0.58544729119E+02  0.00000000000E+00 0. -1.
         -5    1    5    5    0  502 -0.60494102045E+02  0.17428169646E+02 -0.36605023620E+02  0.72974620476E+02  0.47000000000E+01 0.  1.
         13    1    6    6    0    0  0.27202917214E+02  0.19089858661E+02 -0.15431062617E+02  0.36640675514E+02  0.00000000000E+00 0. -1.
        -14    1    6    6    0    0 -0.55926974206E+01 -0.12488841643E+02 -0.15696164593E+03  0.15755699833E+03  0.00000000000E+00 0.  1.
</event>
<event>
12    1  0.8633375E-002  0.1969205E+03  0.7818608E-02  0.1152641E+00
         21   -1    0    0  501  502  0.00000000000E+00  0.00000000000E+00  0.41131352774E+03  0.41131352774E+03  0.00000000000E+00 0.  1.
         21   -1    0    0  502  503 -0.00000000000E+00 -0.00000000000E+00 -0.12416723435E+03  0.12416723435E+03  0.00000000000E+00 0.  1.
         -6    2    1    2    0  503  0.51356935566E+02  0.79435245594E+02  0.10512925020E+02  0.19591677011E+03  0.17124650695E+03 0.  0.
        -24    2    3    3    0    0  0.99633680464E+02  0.37820347546E+02  0.68492821104E+01  0.13190148977E+03  0.77419902906E+02 0.  0.
          6    2    1    2  501    0 -0.51356935566E+02 -0.79435245594E+02  0.27663336838E+03  0.33956399198E+03  0.17271418899E+03 0.  0.
         24    2    5    5    0    0 -0.42345929914E+02 -0.97941580384E+02  0.28717337851E+03  0.31596601614E+03  0.77332031423E+02 0.  0.
          5    1    5    5  501    0 -0.90110056523E+01  0.18506334790E+02 -0.10540010133E+02  0.23597975842E+02  0.47000000000E+01 0. -1.
        -13    1    6    6    0    0 -0.62970450900E+02 -0.60995697433E+02  0.16790652822E+03  0.18941582566E+03  0.00000000000E+00 0.  1.
         14    1    6    6    0    0  0.20624520987E+02 -0.36945882952E+02  0.11926685029E+03  0.12655019048E+03  0.00000000000E+00 0. -1.
         -5    1    3    3    0  503 -0.48276744898E+02  0.41614898048E+02  0.36636429092E+01  0.64015280339E+02  0.47000000000E+01 0.  1.
         13    1    4    4    0    0  0.57561608554E+02  0.23500890827E+02  0.42175797884E+02  0.75129412191E+02  0.00000000000E+00 0. -1.
        -14    1    4    4    0    0  0.42072071910E+02  0.14319456718E+02 -0.35326515774E+02  0.56772077576E+02  0.00000000000E+00 0.  1.
</event>
<event>
12    1  0.8633375E-002  0.2058657E+03  0.7818608E-02  0.1144922E+00
         21   -1    0    0  503  502  0.00000000000E+00  0.00000000000E+00  0.55569230977E+03  0.55569230977E+03  0.00000000000E+00 0. -1.
         21   -1    0    0  501  503 -0.00000000000E+00 -0.00000000000E+00 -0.83029848311E+02  0.83029848311E+02  0.00000000000E+00 0. -1.
          6    2    1    2  501    0 -0.10939381871E+03 -0.26772039199E+02  0.32786475001E+03  0.38703371354E+03  0.17209314763E+03 0.  0.
         24    2    3    3    0    0 -0.27747333189E+02  0.27345917633E+02  0.23568773406E+03  0.25244696040E+03  0.81627483861E+02 0.  0.
         -6    2    1    2    0  502  0.10939381871E+03  0.26772039199E+02  0.14479771145E+03  0.25168844454E+03  0.17232801926E+03 0.  0.
        -24    2    5    5    0    0  0.81665347157E+02  0.76509178349E+02  0.13654561370E+03  0.19395770522E+03  0.80324364269E+02 0.  0.
          5    1    3    3  501    0 -0.81646485520E+02 -0.54117956833E+02  0.92177015949E+02  0.13458675313E+03  0.47000000000E+01 0. -1.
        -13    1    4    4    0    0 -0.46986055687E+02  0.44197891708E+02  0.17858652065E+03  0.18987966826E+03  0.00000000000E+00 0.  1.
         14    1    4    4    0    0  0.19238722498E+02 -0.16851974075E+02  0.57101213410E+02  0.62567292146E+02  0.00000000000E+00 0. -1.
         -5    1    5    5    0  502  0.27728471552E+02 -0.49737139149E+02  0.82520977457E+01  0.57730739321E+02  0.47000000000E+01 0.  1.
         13    1    6    6    0    0  0.71369991507E+02  0.77796533985E+02  0.70148546295E+02  0.12675486158E+03  0.00000000000E+00 0. -1.
        -14    1    6    6    0    0  0.10295355649E+02 -0.12873556362E+01  0.66397067409E+02  0.67202843638E+02  0.00000000000E+00 0.  1.
</event>
<event>
12    1  0.8633375E-002  0.3110095E+03  0.7818608E-02  0.1080719E+00
         21   -1    0    0  503  502  0.00000000000E+00  0.00000000000E+00  0.28042365810E+03  0.28042365810E+03  0.00000000000E+00 0. -1.
         21   -1    0    0  501  503 -0.00000000000E+00 -0.00000000000E+00 -0.55511053900E+03  0.55511053900E+03  0.00000000000E+00 0.  1.
          6    2    1    2  501    0 -0.16516456787E+03 -0.18925348736E+03 -0.39817128791E+03  0.50090706118E+03  0.17108855152E+03 0.  0.
         24    2    3    3    0    0 -0.10344648900E+03 -0.32343769968E+02 -0.15583436080E+03  0.20564606322E+03  0.79111691746E+02 0.  0.
         -6    2    1    2    0  502  0.16516456787E+03  0.18925348736E+03  0.12348440701E+03  0.33462713592E+03  0.18338676167E+03 0.  0.
        -24    2    5    5    0    0  0.14235090956E+03  0.56627138639E+02  0.10430227913E+03  0.19861149192E+03  0.71394292551E+02 0.  0.
          5    1    3    3  501    0 -0.61718078878E+02 -0.15690971739E+03 -0.24233692711E+03  0.29526099796E+03  0.47000000000E+01 0. -1.
        -11    1    4    4    0    0 -0.32219493056E+02 -0.81854702302E+01 -0.11572934119E+03  0.12040921089E+03  0.00000000000E+00 0.  1.
         12    1    4    4    0    0 -0.71226995939E+02 -0.24158299738E+02 -0.40105019611E+02  0.85236852328E+02  0.00000000000E+00 0. -1.
         -5    1    5    5    0  502  0.22813658309E+02  0.13262634872E+03  0.19182127889E+02  0.13601564399E+03  0.47000000000E+01 0.  1.
         13    1    6    6    0    0  0.18032330445E+02  0.25910705442E+02 -0.27699402896E+01  0.31689149042E+02  0.00000000000E+00 0. -1.
        -14    1    6    6    0    0  0.12431857912E+03  0.30716433197E+02  0.10707221941E+03  0.16692234288E+03  0.00000000000E+00 0.  1.
</event>
<event>
12    1  0.8633375E-002  0.1940687E+03  0.7818608E-02  0.1155256E+00
         21   -1    0    0  501  502  0.00000000000E+00  0.00000000000E+00  0.17828208785E+04  0.17828208785E+04  0.00000000000E+00 0.  1.
         21   -1    0    0  502  503 -0.00000000000E+00 -0.00000000000E+00 -0.22173006615E+02  0.22173006615E+02  0.00000000000E+00 0. -1.
         -6    2    1    2    0  503  0.82658348094E+02 -0.23522863290E+02  0.10987715500E+04  0.11157784704E+04  0.17400272526E+03 0.  0.
        -24    2    3    3    0    0  0.47430898500E+02  0.26539317755E+02  0.31289162270E+03  0.32750406054E+03  0.80023225326E+02 0.  0.
          6    2    1    2  501    0 -0.82658348094E+02  0.23522863290E+02  0.66187632186E+03  0.68921541465E+03  0.17190664544E+03 0.  0.
         24    2    5    5    0    0 -0.92426657976E+02  0.11606603338E+02  0.66269136158E+03  0.67308558456E+03  0.72159289687E+02 0.  0.
          5    1    5    5  501    0  0.97683098818E+01  0.11916259951E+02 -0.81503971258E+00  0.16129830096E+02  0.47000000000E+01 0. -1.
        -13    1    6    6    0    0 -0.10755733044E+02  0.28884504024E+02  0.11455788696E+03  0.11863182470E+03  0.00000000000E+00 0.  1.
         14    1    6    6    0    0 -0.81670924932E+02 -0.17277900686E+02  0.54813347461E+03  0.55445375986E+03  0.00000000000E+00 0. -1.
         -5    1    3    3    0  503  0.35227449595E+02 -0.50062181045E+02  0.78587992729E+03  0.78827440989E+03  0.47000000000E+01 0.  1.
         13    1    4    4    0    0 -0.18404135509E+02  0.18211911249E+02  0.13879129156E+03  0.14118572353E+03  0.00000000000E+00 0. -1.
        -14    1    4    4    0    0  0.65835034009E+02  0.83274065060E+01  0.17410033115E+03  0.18631833701E+03  0.00000000000E+00 0.  1.
</event>
<event>
12    1  0.8633375E-002  0.1823645E+03  0.7818608E-02  0.1167366E+00
         21   -1    0    0  503  502  0.00000000000E+00  0.00000000000E+00  0.60357275364E+03  0.60357275364E+03  0.00000000000E+00 0.  1.
         21   -1    0    0  501  503 -0.00000000000E+00 -0.00000000000E+00 -0.13846222491E+03  0.13846222491E+03  0.00000000000E+00 0.  1.
          6    2    1    2  501    0  0.46821426405E+02 -0.32141043662E+02 -0.57291594905E+02  0.19115217866E+03  0.17329609315E+03 0.  0.
         24    2    3    3    0    0  0.54545119093E+01 -0.65984302590E+02 -0.81911763402E+02  0.13211972583E+03  0.79764685684E+02 0.  0.
         -6    2    1    2    0  502 -0.46821426405E+02  0.32141043662E+02  0.52240212363E+03  0.55088279990E+03  0.16535594271E+03 0.  0.
        -24    2    5    5    0    0 -0.93636611395E+02  0.16479130210E+02  0.34276755435E+03  0.36452930366E+03  0.79703451527E+02 0.  0.
          5    1    3    3  501    0  0.41366914495E+02  0.33843258928E+02  0.24620168497E+02  0.59032452825E+02  0.47000000000E+01 0. -1.
        -13    1    4    4    0    0  0.17869782818E+02  0.49559174071E+01 -0.50036932533E+02  0.53362766726E+02  0.00000000000E+00 0.  1.
         14    1    4    4    0    0 -0.12415270909E+02 -0.70940219997E+02 -0.31874830869E+02  0.78756959108E+02  0.00000000000E+00 0. -1.
         -5    1    5    5    0  502  0.46815184990E+02  0.15661913452E+02  0.17963456928E+03  0.18635349623E+03  0.47000000000E+01 0.  1.
         11    1    6    6    0    0 -0.60095829823E+02  0.47082446952E+02  0.17937007366E+03  0.19494073176E+03  0.00000000000E+00 0. -1.
        -12    1    6    6    0    0 -0.33540781572E+02 -0.30603316742E+02  0.16339748069E+03  0.16958857190E+03  0.00000000000E+00 0.  1.
</event>
<event>
12    1  0.8633375E-002  0.2167518E+03  0.7818608E-02  0.1136448E+00
         21   -1    0    0  501  502  0.00000000000E+00  0.00000000000E+00  0.58763489864E+02  0.58763489864E+02  0.00000000000E+00 0.  1.
         21   -1    0    0  502  503 -0.00000000000E+00 -0.00000000000E+00 -0.92529023384E+03  0.92529023384E+03  0.00000000000E+00 0.  1.
         -6    2    1    2    0  503  0.39850014203E+02  0.12625710021E+03 -0.61688964516E+03  0.65386098938E+03  0.17161724894E+03 0.  0.
        -24    2    3    3    0    0  0.74376787161E+02  0.29119166642E+02 -0.28098190240E+03  0.30245811824E+03  0.78423539092E+02 0.  0.
          6    2    1    2  501    0 -0.39850014203E+02 -0.12625710021E+03 -0.24963709881E+03  0.33019273433E+03  0.17082061267E+03 0.  0.
         24    2    5    5    0    0 -0.26000311180E+02 -0.79667020917E+02 -0.67129558638E+02  0.14126538855E+03  0.91796960490E+02 0.  0.
          5    1    5    5  501    0 -0.13849703023E+02 -0.46590079295E+02 -0.18250754017E+03  0.18892734578E+03  0.47000000000E+01 0. -1.
        -11    1    6    6    0    0 -0.47805887344E+02 -0.86240660325E+02 -0.65614095960E+02  0.11844012811E+03  0.00000000000E+00 0.  1.
         12    1    6    6    0    0  0.21805576164E+02  0.65736394080E+01 -0.15154626782E+01  0.22825260437E+02  0.00000000000E+00 0. -1.
         -5    1    3    3    0  503 -0.34526772958E+02  0.97137933571E+02 -0.33590774277E+03  0.35140287113E+03  0.47000000000E+01 0.  1.
         11    1    4    4    0    0 -0.77651627810E+01 -0.34578535405E+01 -0.64594413277E+00  0.85247726037E+01  0.00000000000E+00 0. -1.
        -12    1    4    4    0    0  0.82141949942E+02  0.32577020182E+02 -0.28033595826E+03  0.29393334564E+03  0.00000000000E+00 0.  1.
</event>
<event>
12    1  0.8633375E-002  0.1760253E+03  0.7818608E-02  0.1171844E+00
         21   -1    0    0  501  502  0.00000000000E+00  0.00000000000E+00  0.14067777218E+03  0.14067777218E+03  0.00000000000E+00 0. -1.
         21   -1    0    0  502  503 -0.00000000000E+00 -0.00000000000E+00 -0.61781003363E+03  0.61781003363E+03  0.00000000000E+00 0. -1.
         -6    2    1    2    0  503  0.29128896792E+00  0.31178208146E+02 -0.54291888972E+03  0.57057086611E+03  0.17267897074E+03 0.  0.
        -24    2    3    3    0    0 -0.80182180647E+01  0.84945539791E+02 -0.42393108178E+03  0.43965042349E+03  0.79340382058E+02 0.  0.
          6    2    1    2  501    0 -0.29128896792E+00 -0.31178208146E+02  0.65786628271E+02  0.18791693970E+03  0.17324182594E+03 0.  0.
         24    2    5    5    0    0 -0.53824115728E+02  0.23197940598E+02  0.51336669088E+02  0.11011320963E+03  0.77809289028E+02 0.  0.
          5    1    5    5  501    0  0.53532826760E+02 -0.54376148744E+02  0.14449959183E+02  0.77803730075E+02  0.47000000000E+01 0. -1.
        -11    1    6    6    0    0  0.14030997046E+02  0.16499557329E+02 -0.43339811896E+01  0.22088179263E+02  0.00000000000E+00 0.  1.
         12    1    6    6    0    0 -0.67855112775E+02  0.66983832688E+01  0.55670650277E+02  0.88025030363E+02  0.00000000000E+00 0. -1.
         -5    1    3    3    0  503  0.83095070326E+01 -0.53767331645E+02 -0.11898780794E+03  0.13092044263E+03  0.47000000000E+01 0.  1.
         13    1    4    4    0    0 -0.30553917389E+02  0.63884988357E+01 -0.17155928431E+03  0.17437586650E+03  0.00000000000E+00 0. -1.
        -14    1    4    4    0    0  0.22535699324E+02  0.78557040955E+02 -0.25237179747E+03  0.26527455699E+03  0.00000000000E+00 0.  1.
</event>
<event>
12    1  0.8633375E-002  0.1738532E+03  0.7818608E-02  0.1173981E+00
         21   -1    0    0  503  502  0.00000000000E+00  0.00000000000E+00  0.19461247878E+03  0.19461247878E+03  0.00000000000E+00 0. -1.
         21   -1    0    0  501  503 -0.00000000000E+00 -0.00000000000E+00 -0.17405578158E+03  0.17405578158E+03  0.00000000000E+00 0. -1.
          6    2    1    2  501    0 -0.16764777834E+02  0.20322462246E+02 -0.50754141590E+02  0.18075824624E+03  0.17147448920E+03 0.  0.
         24    2    3    3    0    0 -0.24748616261E+02 -0.20114104956E+01  0.36422330146E+02  0.90290733994E+02  0.78799052868E+02 0.  0.
         -6    2    1    2    0  502  0.16764777834E+02 -0.20322462246E+02  0.71310838790E+02  0.18791001412E+03  0.17184550454E+03 0.  0.
        -24    2    5    5    0    0 -0.26808797021E+02  0.17495876071E+02  0.92814892661E+02  0.12615730186E+03  0.79222744434E+02 0.  0.
          5    1    3    3  501    0  0.79838384273E+01  0.22333872741E+02 -0.87176471737E+02  0.90467512247E+02  0.47000000000E+01 0. -1.
        -11    1    4    4    0    0  0.24886914193E+02 -0.11214834096E+02  0.28013218415E+02  0.39113570635E+02  0.00000000000E+00 0.  1.
         12    1    4    4    0    0 -0.49635530454E+02  0.92034236000E+01  0.84091117312E+01  0.51177163359E+02  0.00000000000E+00 0. -1.
         -5    1    5    5    0  502  0.43573574855E+02 -0.37818338316E+02 -0.21504053871E+02  0.61752712261E+02  0.47000000000E+01 0.  1.
         13    1    6    6    0    0  0.10256734577E+02 -0.25649892514E+02  0.39464266244E+02  0.48172044801E+02  0.00000000000E+00 0. -1.
        -14    1    6    6    0    0 -0.37065531598E+02  0.43145768584E+02  0.53350626417E+02  0.77985257059E+02  0.00000000000E+00 0.  1.
</event>
<event>
12    1  0.8633375E-002  0.1885091E+03  0.7818608E-02  0.1160038E+00
         21   -1    0    0  501  502  0.00000000000E+00  0.00000000000E+00  0.95804279051E+03  0.95804279051E+03  0.00000000000E+00 0.  1.
         21   -1    0    0  502  503 -0.00000000000E+00 -0.00000000000E+00 -0.37565203730E+02  0.37565203730E+02  0.00000000000E+00 0.  1.
         -6    2    1    2    0  503  0.36811896703E+02  0.67475285965E+02  0.39511569551E+03  0.43778085319E+03  0.17212679229E+03 0.  0.
        -24    2    3    3    0    0 -0.44816115938E+02  0.34264716792E+02  0.24906002153E+03  0.26713377805E+03  0.78402844234E+02 0.  0.
          6    2    1    2  501    0 -0.36811896703E+02 -0.67475285965E+02  0.52536189127E+03  0.55782714105E+03  0.17104962011E+03 0.  0.
         24    2    5    5    0    0  0.38406921564E+02 -0.65834965904E+02  0.34574190935E+03  0.36302983826E+03  0.80273664571E+02 0.  0.
          5    1    5    5  501    0 -0.75218818267E+02 -0.16403200609E+01  0.17961998192E+03  0.19479730279E+03  0.47000000000E+01 0. -1.
        -11    1    6    6    0    0 -0.78229169718E+01 -0.47577844201E+02  0.86176880453E+02  0.98748691198E+02  0.00000000000E+00 0.  1.
         12    1    6    6    0    0  0.46229838535E+02 -0.18257121703E+02  0.25956502890E+03  0.26428114706E+03  0.00000000000E+00 0. -1.
         -5    1    3    3    0  503  0.81628012641E+02  0.33210569174E+02  0.14605567398E+03  0.17064707514E+03  0.47000000000E+01 0.  1.
         11    1    4    4    0    0 -0.37979724233E+02  0.38061702899E-01  0.39916814582E+02  0.55098212202E+02  0.00000000000E+00 0. -1.
        -12    1    4    4    0    0 -0.68363917054E+01  0.34226655089E+02  0.20914320695E+03  0.21203556585E+03  0.00000000000E+00 0.  1.
</event>
<event>
12    1  0.8633375E-002  0.1798259E+03  0.7818608E-02  0.1168053E+00
         21   -1    0    0  503  502  0.00000000000E+00  0.00000000000E+00  0.74954808180E+03  0.74954808180E+03  0.00000000000E+00 0. -1.
         21   -1    0    0  501  503 -0.00000000000E+00 -0.00000000000E+00 -0.67787450093E+02  0.67787450093E+02  0.00000000000E+00 0. -1.
          6    2    1    2  501    0  0.33128962089E+02  0.38291296061E+02  0.93867961857E+02  0.20255497141E+03  0.17220212164E+03 0.  0.
         24    2    3    3    0    0  0.33428551602E+02 -0.38333022551E+02  0.23891967564E+02  0.98679537675E+02  0.81116806900E+02 0.  0.
         -6    2    1    2    0  502 -0.33128962089E+02 -0.38291296061E+02  0.58789266985E+03  0.61478056048E+03  0.17255026745E+03 0.  0.
        -24    2    5    5    0    0 -0.73366069946E+02  0.14545286170E+02  0.29523458239E+03  0.31464463223E+03  0.79016709521E+02 0.  0.
          5    1    3    3  501    0 -0.29958951342E+00  0.76624318612E+02  0.69975994293E+02  0.10387543374E+03  0.47000000000E+01 0. -1.
        -13    1    4    4    0    0  0.20666203700E+02 -0.21088043693E+02  0.54097332916E+02  0.61630503736E+02  0.00000000000E+00 0.  1.
         14    1    4    4    0    0  0.12762347902E+02 -0.17244978857E+02 -0.30205365352E+02  0.37049033939E+02  0.00000000000E+00 0. -1.
         -5    1    5    5    0  502  0.40237107858E+02 -0.52836582232E+02  0.29265808746E+03  0.30013592825E+03  0.47000000000E+01 0.  1.
         11    1    6    6    0    0 -0.35590731620E+02  0.36821241653E+02  0.23268225623E+03  0.23825099449E+03  0.00000000000E+00 0. -1.
        -12    1    6    6    0    0 -0.37775338327E+02 -0.22275955483E+02  0.62552326163E+02  0.76393637738E+02  0.00000000000E+00 0.  1.
</event>
<event>
12    1  0.8633375E-002  0.1901111E+03  0.7818608E-02  0.1158454E+00
         21   -1    0    0  501  502  0.00000000000E+00  0.00000000000E+00  0.12573226202E+04  0.12573226202E+04  0.00000000000E+00 0.  1.
         21   -1    0    0  502  503 -0.00000000000E+00 -0.00000000000E+00 -0.32901542427E+02  0.32901542427E+02  0.00000000000E+00 0.  1.
         -6    2    1    2    0  503  0.66556460628E+02  0.44765772994E+02  0.38064554229E+03  0.42529677106E+03  0.17190863190E+03 0.  0.
        -24    2    3    3    0    0  0.67226395918E+02  0.80760347321E+02  0.35995921628E+03  0.38351074136E+03  0.80425302887E+02 0.  0.
          6    2    1    2  501    0 -0.66556460628E+02 -0.44765772994E+02  0.84377553553E+03  0.86492739162E+03  0.17236154307E+03 0.  0.
         24    2    5    5    0    0  0.65814300040E+01 -0.56671018294E+02  0.29857812085E+03  0.31469726078E+03  0.81428202455E+02 0.  0.
          5    1    5    5  501    0 -0.73137890632E+02  0.11905245300E+02  0.54519741468E+03  0.55023013084E+03  0.47000000000E+01 0. -1.
        -13    1    6    6    0    0 -0.14305979784E+01 -0.37626577322E+01  0.21759085498E+03  0.21762808728E+03  0.00000000000E+00 0.  1.
         14    1    6    6    0    0  0.80120279824E+01 -0.52908360562E+02  0.80987265874E+02  0.97069173497E+02  0.00000000000E+00 0. -1.
         -5    1    3    3    0  503 -0.66993529003E+00 -0.35994574327E+02  0.20686326014E+02  0.41786029701E+02  0.47000000000E+01 0.  1.
         11    1    4    4    0    0  0.42356683025E+02 -0.52749270976E+01  0.12262596299E+03  0.12984236694E+03  0.00000000000E+00 0. -1.
        -12    1    4    4    0    0  0.24869712892E+02  0.86035274419E+02  0.23733325328E+03  0.25366837441E+03  0.00000000000E+00 0.  1.
</event>
<event>
12    1  0.8633375E-002  0.2009332E+03  0.7818608E-02  0.1149168E+00
         21   -1    0    0  503  502  0.00000000000E+00  0.00000000000E+00  0.68235319463E+03  0.68235319463E+03  0.00000000000E+00 0.  1.
         21   -1    0    0  501  503 -0.00000000000E+00 -0.00000000000E+00 -0.24157978433E+03  0.24157978433E+03  0.00000000000E+00 0. -1.
          6    2    1    2  501    0  0.53300877326E+02 -0.92181654997E+02 -0.18150408766E+03  0.27001904132E+03  0.16919842729E+03 0.  0.
         24    2    3    3    0    0  0.13673839226E+02 -0.64184942890E+02 -0.19432188860E+03  0.21961562816E+03  0.78506986754E+02 0.  0.
         -6    2    1    2    0  502 -0.53300877326E+02  0.92181654997E+02  0.62227749796E+03  0.65391393764E+03  0.17039868640E+03 0.  0.
        -24    2    5    5    0    0  0.20397439836E+01  0.26650456338E+02  0.48340005735E+03  0.49061679781E+03  0.79465838382E+02 0.  0.
          5    1    3    3  501    0  0.39627038100E+02 -0.27996712108E+02  0.12817800941E+02  0.50403413162E+02  0.47000000000E+01 0. -1.
        -11    1    4    4    0    0  0.29282979726E+02 -0.36924431033E+02 -0.39064617785E+02  0.61212342476E+02  0.00000000000E+00 0.  1.
         12    1    4    4    0    0 -0.15609140500E+02 -0.27260511857E+02 -0.15525727082E+03  0.15840328568E+03  0.00000000000E+00 0. -1.
         -5    1    5    5    0  502 -0.55340621310E+02  0.65531198659E+02  0.13887744061E+03  0.16329713983E+03  0.47000000000E+01 0.  1.
         11    1    6    6    0    0  0.23920959489E+02 -0.77244973015E+01  0.57281734917E+02  0.62554594687E+02  0.00000000000E+00 0. -1.
        -12    1    6    6    0    0 -0.21881215505E+02  0.34374953640E+02  0.42611832243E+03  0.42806220312E+03  0.00000000000E+00 0.  1.
</event>
<event>
12    1  0.8633375E-002  0.1981402E+03  0.7818608E-02  0.1151845E+00
         21   -1    0    0  501  502  0.00000000000E+00  0.00000000000E+00  0.73863029277E+03  0.73863029277E+03  0.00000000000E+00 0.  1.
         21   -1    0    0  502  503 -0.00000000000E+00 -0.00000000000E+00 -0.52532566154E+02  0.52532566154E+02  0.00000000000E+00 0.  1.
         -6    2    1    2    0  503  0.83229435811E+02  0.42630650302E+02  0.35569252097E+03  0.40715684231E+03  0.17468547002E+03 0.  0.
        -24    2    3    3    0    0  0.12414710729E+03  0.47772264355E+02  0.29943571720E+03  0.33724539830E+03  0.79862484609E+02 0.  0.
          6    2    1    2  501    0 -0.83229435811E+02 -0.42630650302E+02  0.33040520565E+03  0.38400601661E+03  0.17189679911E+03 0.  0.
         24    2    5    5    0    0 -0.26320850513E+02  0.29959406607E+02  0.89973678287E+02  0.12644570757E+03  0.79390811581E+02 0.  0.
          5    1    5    5  501    0 -0.56908585298E+02 -0.72590056909E+02  0.24043152736E+03  0.25756030904E+03  0.47000000000E+01 0. -1.
        -13    1    6    6    0    0  0.41714940871E+01 -0.19942045793E+02  0.54172609795E+02  0.57877095689E+02  0.00000000000E+00 0.  1.
         14    1    6    6    0    0 -0.30492344600E+02  0.49901452399E+02  0.35801068492E+02  0.68568611886E+02  0.00000000000E+00 0. -1.
         -5    1    3    3    0  503 -0.40917671475E+02 -0.51416140533E+01  0.56256803769E+02  0.69911444016E+02  0.47000000000E+01 0.  1.
         11    1    4    4    0    0  0.32589898883E+00 -0.74528448476E+01 -0.11028855671E+01  0.75410518528E+01  0.00000000000E+00 0. -1.
        -12    1    4    4    0    0  0.12382120830E+03  0.55225109203E+02  0.30053860277E+03  0.32970434644E+03  0.00000000000E+00 0.  1.
</event>
<event>
12    1  0.8633375E-002  0.1827365E+03  0.7818608E-02  0.1165612E+00
         21   -1    0    0  503  502  0.00000000000E+00  0.00000000000E+00  0.27386898915E+02  0.27386898915E+02  0.00000000000E+00 0. -1.
         21   -1    0    0  501  503 -0.00000000000E+00 -0.00000000000E+00 -0.12200418011E+04  0.12200418011E+04  0.00000000000E+00 0. -1.
          6    2    1    2  501    0  0.50076727725E+02 -0.27131180302E+02 -0.65727177188E+03  0.68171878078E+03  0.17172808260E+03 0.  0.
         24    2    3    3    0    0  0.26836305175E+02 -0.41133764871E+02 -0.16588033206E+03  0.18955638203E+03  0.77480084642E+02 0.  0.
         -6    2    1    2    0  502 -0.50076727725E+02  0.27131180302E+02 -0.53538313034E+03  0.56570991927E+03  0.17363420430E+03 0.  0.
        -24    2    5    5    0    0  0.16031362587E+02  0.66280753410E+02 -0.31184467536E+03  0.32928974345E+03  0.80836196922E+02 0.  0.
          5    1    3    3  501    0  0.23240422551E+02  0.14002584569E+02 -0.49139143981E+03  0.49216239874E+03  0.47000000000E+01 0. -1.
        -11    1    4    4    0    0  0.28202421687E+02 -0.54852743121E+02 -0.16452127291E+03  0.17570272980E+03  0.00000000000E+00 0.  1.
         12    1    4    4    0    0 -0.13661165128E+01  0.13718978250E+02 -0.13590591510E+01  0.13853652237E+02  0.00000000000E+00 0. -1.
         -5    1    5    5    0  502 -0.66108090312E+02 -0.39149573108E+02 -0.22353845498E+03  0.23642017581E+03  0.47000000000E+01 0.  1.
         11    1    6    6    0    0 -0.16095577961E+02  0.53390619962E+01 -0.17752811313E+03  0.17833621103E+03  0.00000000000E+00 0. -1.
        -12    1    6    6    0    0  0.32126940548E+02  0.60941691414E+02 -0.13431656223E+03  0.15095353242E+03  0.00000000000E+00 0.  1.
</event>
<event>
12    1  0.8633375E-002  0.1746205E+03  0.7818608E-02  0.1173350E+00
         21   -1    0    0  503  502  0.00000000000E+00  0.00000000000E+00  0.17953295546E+04  0.17953295546E+04  0.00000000000E+00 0.  1.
         21   -1    0    0  501  503 -0.00000000000E+00 -0.00000000000E+00 -0.14711447109E+03  0.14711447109E+03  0.00000000000E+00 0.  1.
          6    2    1    2  501    0  0.23919474900E+02 -0.14163080586E+02 -0.89396645347E+02  0.19617362392E+03  0.17239372492E+03 0.  0.
         24    2    3    3    0    0 -0.47300395603E+02 -0.37435522328E+02 -0.59669444331E+02  0.11542913198E+03  0.78260438066E+02 0.  0.
         -6    2    1    2    0  502 -0.23919474900E+02  0.14163080586E+02  0.17376117288E+04  0.17462704018E+04  0.17144404840E+03 0.  0.
        -24    2    5    5    0    0  0.43030177160E+02 -0.10909983336E+02  0.62703770641E+03  0.63338780968E+03  0.77673729901E+02 0.  0.
          5    1    3    3  501    0  0.71219870502E+02  0.23272441742E+02 -0.29727201016E+02  0.80744491944E+02  0.47000000000E+01 0. -1.
        -13    1    4    4    0    0 -0.43833319538E+02  0.64107175800E+01 -0.55842252057E+02  0.71279831063E+02  0.00000000000E+00 0.  1.
         14    1    4    4    0    0 -0.34670760646E+01 -0.43846239908E+02 -0.38271922736E+01  0.44149300914E+02  0.00000000000E+00 0. -1.
         -5    1    5    5    0  502 -0.66949652060E+02  0.25073063922E+02  0.11105740224E+04  0.11128825921E+04  0.47000000000E+01 0.  1.
         13    1    6    6    0    0  0.59031681137E+02 -0.19440453746E+02  0.57360116968E+03  0.57695838020E+03  0.00000000000E+00 0. -1.
        -14    1    6    6    0    0 -0.16001503977E+02  0.85304704101E+01  0.53436536724E+02  0.56429429485E+02  0.00000000000E+00 0.  1.
</event>
<event>
12    1  0.8633375E-002  0.2153270E+03  0.7818608E-02  0.1137670E+00
         21   -1    0    0  501  502  0.00000000000E+00  0.00000000000E+00  0.41772678960E+03  0.41772678960E+03  0.00000000000E+00 0. -1.
         21   -1    0    0  502  503 -0.00000000000E+00 -0.00000000000E+00 -0.13020185193E+03  0.13020185193E+03  0.00000000000E+00 0. -1.
         -6    2    1    2    0  503 -0.12302231298E+03 -0.43377331907E+02  0.25045906238E+03  0.32943468350E+03  0.16965077763E+03 0.  0.
        -24    2    3    3    0    0 -0.98734281347E+02 -0.92673273688E+02  0.17187239637E+03  0.23342451512E+03  0.81302457884E+02 0.  0.
          6    2    1    2  501    0  0.12302231298E+03  0.43377331907E+02  0.37065875296E+02  0.21849395804E+03  0.17131739016E+03 0.  0.
         24    2    5    5    0    0  0.13629384061E+03  0.24827670642E+02  0.72998800692E+02  0.17567470411E+03  0.79626330724E+02 0.  0.
          5    1    5    5  501    0 -0.13271527632E+02  0.18549661266E+02 -0.35932925397E+02  0.42819253921E+02  0.47000000000E+01 0. -1.
        -13    1    6    6    0    0 -0.59738615007E+01 -0.74329685142E+01  0.16852227059E+02  0.19363202189E+02  0.00000000000E+00 0.  1.
         14    1    6    6    0    0  0.14226770211E+03  0.32260639156E+02  0.56146573634E+02  0.15631150193E+03  0.00000000000E+00 0. -1.
         -5    1    3    3    0  503 -0.24288031635E+02  0.49295941781E+02  0.78586666007E+02  0.96010168372E+02  0.47000000000E+01 0.  1.
         11    1    4    4    0    0  0.15693455129E+01 -0.15809519020E+02 -0.44465478967E+01  0.16497743033E+02  0.00000000000E+00 0. -1.
        -12    1    4    4    0    0 -0.10030362686E+03 -0.76863754668E+02  0.17631894427E+03  0.21692677209E+03  0.00000000000E+00 0.  1.
</event>
<event>
12    1  0.8633375E-002  0.2065653E+03  0.7818608E-02  0.1145431E+00
         21   -1    0    0  501  502  0.00000000000E+00  0.00000000000E+00  0.15971384378E+03  0.15971384378E+03  0.00000000000E+00 0. -1.
         21   -1    0    0  502  503 -0.00000000000E+00 -0.00000000000E+00 -0.27689723364E+03  0.27689723364E+03  0.00000000000E+00 0. -1.
         -6    2    1    2    0  503 -0.73444044746E+02 -0.73415636050E+02 -0.11297807757E+03  0.23544274396E+03  0.17856471193E+03 0.  0.
        -24    2    3    3    0    0 -0.19462102508E+02 -0.11318420977E+03 -0.83492623359E+02  0.16204607133E+03  0.78092716080E+02 0.  0.
          6    2    1    2  501    0  0.73444044746E+02  0.73415636050E+02 -0.42053122989E+01  0.20116833346E+03  0.17224148864E+03 0.  0.
         24    2    5    5    0    0  0.16779945492E+02  0.39660274918E+02  0.60283275075E+02  0.10880431205E+03  0.79685639166E+02 0.  0.
          5    1    5    5  501    0  0.56664099253E+02  0.33755361132E+02 -0.64488587374E+02  0.92364021409E+02  0.47000000000E+01 0. -1.
        -13    1    6    6    0    0  0.20299442646E+02  0.17187628544E+02  0.76419095243E+02  0.80915759061E+02  0.00000000000E+00 0.  1.
         14    1    6    6    0    0 -0.35194971534E+01  0.22472646374E+02 -0.16135820168E+02  0.27888552988E+02  0.00000000000E+00 0. -1.
         -5    1    3    3    0  503 -0.53981942238E+02  0.39768573715E+02 -0.29485454211E+02  0.73396672630E+02  0.47000000000E+01 0.  1.
         13    1    4    4    0    0 -0.34221344159E+02 -0.51194371342E+02 -0.62263144860E+01  0.61892899796E+02  0.00000000000E+00 0. -1.
        -14    1    4    4    0    0  0.14759241651E+02 -0.61989838423E+02 -0.77266308873E+02  0.10015317154E+03  0.00000000000E+00 0.  1.
</event>
<event>
12    1  0.8633375E-002  0.1801506E+03  0.7818608E-02  0.1167735E+00
         21   -1    0    0  503  502  0.00000000000E+00  0.00000000000E+00  0.35333213349E+02  0.35333213349E+02  0.00000000000E+00 0.  1.
         21   -1    0    0  501  503 -0.00000000000E+00 -0.00000000000E+00 -0.92388305358E+03  0.92388305358E+03  0.00000000000E+00 0.  1.
          6    2    1    2  501    0 -0.25292773307E+02 -0.45641415239E+02 -0.48565194159E+03  0.51787629937E+03  0.17209064447E+03 0.  0.
         24    2    3    3    0    0 -0.72434176421E+02 -0.56170413561E+02 -0.27107562717E+03  0.29788026213E+03  0.82757656123E+02 0.  0.
         -6    2    1    2    0  502  0.25292773307E+02  0.45641415239E+02 -0.40289789864E+03  0.44133996755E+03  0.17242791847E+03 0.  0.
        -24    2    5    5    0    0  0.62864089430E+02  0.36315036012E+02 -0.11532339990E+03  0.15113354538E+03  0.65354314279E+02 0.  0.
          5    1    3    3  501    0  0.47141403114E+02  0.10528998321E+02 -0.21457631442E+03  0.21999603724E+03  0.47000000000E+01 0. -1.
        -11    1    4    4    0    0 -0.25068953178E+02 -0.50972207213E+02 -0.64798319158E+02  0.86170995626E+02  0.00000000000E+00 0.  1.
         12    1    4    4    0    0 -0.47365223243E+02 -0.51982063480E+01 -0.20627730802E+03  0.21170926651E+03  0.00000000000E+00 0. -1.
         -5    1    5    5    0  502 -0.37571316123E+02  0.93263792276E+01 -0.28757449874E+03  0.29020642218E+03  0.47000000000E+01 0.  1.
         13    1    6    6    0    0  0.43275693007E+02 -0.22796451693E+01 -0.92625568953E+02  0.10226181306E+03  0.00000000000E+00 0. -1.
        -14    1    6    6    0    0  0.19588396423E+02  0.38594681181E+02 -0.22697830942E+02  0.48871732314E+02  0.00000000000E+00 0.  1.
</event>
<event>
12    1  0.8633375E-002  0.1746922E+03  0.7818608E-02  0.1173581E+00
         21   -1    0    0  503  502  0.00000000000E+00  0.00000000000E+00  0.37101243260E+03  0.37101243260E+03  0.00000000000E+00 0.  1.
         21   -1    0    0  501  503 -0.00000000000E+00 -0.00000000000E+00 -0.18441443566E+03  0.18441443566E+03  0.00000000000E+00 0.  1.
          6    2    1    2  501    0  0.10200141956E+02 -0.12386333916E+02 -0.11415713211E+03  0.20868446743E+03  0.17395370641E+03 0.  0.
         24    2    3    3    0    0  0.71021211030E+02  0.86289541505E+01 -0.48534899323E+02  0.11665614456E+03  0.78323357593E+02 0.  0.
         -6    2    1    2    0  502 -0.10200141956E+02  0.12386333916E+02  0.30075512904E+03  0.34674240083E+03  0.17181146854E+03 0.  0.
        -24    2    5    5    0    0  0.30060668159E+02  0.65581906870E+02  0.21569205076E+03  0.23853649018E+03  0.71916382738E+02 0.  0.
          5    1    3    3  501    0 -0.60821069074E+02 -0.21015288067E+02 -0.65622232784E+02  0.92028322876E+02  0.47000000000E+01 0. -1.
        -13    1    4    4    0    0 -0.11927612140E+02 -0.86123874376E+01  0.60124835737E+01  0.15893115097E+02  0.00000000000E+00 0.  1.
         14    1    4    4    0    0  0.82948823171E+02  0.17241341588E+02 -0.54547382897E+02  0.10076302946E+03  0.00000000000E+00 0. -1.
         -5    1    5    5    0  502 -0.40260810115E+02 -0.53195572953E+02  0.85063078279E+02  0.10820591065E+03  0.47000000000E+01 0.  1.
         13    1    6    6    0    0  0.16192160923E+01  0.86367974308E+01  0.13718939378E+03  0.13747052737E+03  0.00000000000E+00 0. -1.
        -14    1    6    6    0    0  0.28441452067E+02  0.56945109439E+02  0.78502656983E+02  0.10106596281E+03  0.00000000000E+00 0.  1.
</event>
<event>
12    1  0.8633375E-002  0.1884091E+03  0.7818608E-02  0.1160883E+00
         21   -1    0    0  503  502  0.00000000000E+00  0.00000000000E+00  0.35966903987E+03  0.35966903987E+03  0.00000000000E+00 0. -1.
         21   -1    0    0  501  503 -0.00000000000E+00 -0.00000000000E+00 -0.24960337081E+03  0.24960337081E+03  0.00000000000E+00 0.  1.
          6    2    1    2  501    0  0.62991388263E+02 -0.42318888731E+02 -0.18380113279E+03  0.26019405877E+03  0.16780729562E+03 0.  0.
         24    2    3    3    0    0  0.60732983180E+02 -0.87858372702E+02 -0.10770941660E+03  0.17136284653E+03  0.79726519106E+02 0.  0.
         -6    2    1    2    0  502 -0.62991388263E+02  0.42318888731E+02  0.29386680185E+03  0.34907835191E+03  0.17245055873E+03 0.  0.
        -24    2    5    5    0    0 -0.99556454747E+02  0.42940419633E+02  0.27598894872E+03  0.30810155335E+03  0.83673771535E+02 0.  0.
          5    1    3    3  501    0  0.22584050826E+01  0.45539483971E+02 -0.76091716192E+02  0.88831212234E+02  0.47000000000E+01 0. -1.
        -13    1    4    4    0    0  0.79010239018E+02 -0.81981016856E+02 -0.95541378736E+02  0.14863263452E+03  0.00000000000E+00 0.  1.
         14    1    4    4    0    0 -0.18277255838E+02 -0.58773558460E+01 -0.12168037861E+02  0.22730212011E+02  0.00000000000E+00 0. -1.
         -5    1    5    5    0  502  0.36565066484E+02 -0.62153090160E+00  0.17877853126E+02  0.40976798557E+02  0.47000000000E+01 0.  1.
         11    1    6    6    0    0 -0.89160595430E+01  0.40948040595E+02  0.54305387788E+02  0.68595286202E+02  0.00000000000E+00 0. -1.
        -12    1    6    6    0    0 -0.90640395204E+02  0.19923790374E+01  0.22168356093E+03  0.23950626715E+03  0.00000000000E+00 0.  1.
</event>
<event>
12    1  0.8633375E-002  0.2236729E+03  0.7818608E-02  0.1131229E+00
         21   -1    0    0  503  502  0.00000000000E+00  0.00000000000E+00  0.40827856688E+02  0.40827856688E+02  0.00000000000E+00 0.  1.
         21   -1    0    0  501  503 -0.00000000000E+00 -0.00000000000E+00 -0.12485031664E+04  0.12485031664E+04  0.00000000000E+00 0.  1.
          6    2    1    2  501    0  0.11530385059E+03 -0.84200959814E+02 -0.69501901789E+03  0.73012397605E+03  0.17217666966E+03 0.  0.
         24    2    3    3    0    0  0.14062115913E+03 -0.83345720728E+02 -0.66901673559E+03  0.69351924643E+03  0.81637816722E+02 0.  0.
         -6    2    1    2    0  502 -0.11530385059E+03  0.84200959814E+02 -0.51265629183E+03  0.55920704705E+03  0.17178844059E+03 0.  0.
        -24    2    5    5    0    0 -0.28578373174E+02  0.45654965719E+02 -0.39932435222E+03  0.41131072988E+03  0.82555913998E+02 0.  0.
          5    1    3    3  501    0 -0.25317308532E+02 -0.85523908673E+00 -0.26002282302E+02  0.36604729614E+02  0.47000000000E+01 0. -1.
        -11    1    4    4    0    0  0.66040090419E+02 -0.80526823964E+02 -0.45804355677E+03  0.46973371480E+03  0.00000000000E+00 0.  1.
         12    1    4    4    0    0  0.74581068706E+02 -0.28188967632E+01 -0.21097317882E+03  0.22378553164E+03  0.00000000000E+00 0. -1.
         -5    1    5    5    0  502 -0.86725477420E+02  0.38545994095E+02 -0.11333193961E+03  0.14789631716E+03  0.47000000000E+01 0.  1.
         13    1    6    6    0    0  0.11964253103E+02 -0.18159569454E+02 -0.64887481732E+02  0.68434630126E+02  0.00000000000E+00 0. -1.
        -14    1    6    6    0    0 -0.40542626277E+02  0.63814535173E+02 -0.33443687048E+03  0.34287609976E+03  0.00000000000E+00 0.  1.
</event>
<event>
12    1  0.8633375E-002  0.1846696E+03  0.7818608E-02  0.1163440E+00
         21   -1    0    0  501  502  0.00000000000E+00  0.00000000000E+00  0.24572237064E+03  0.24572237064E+03  0.00000000000E+00 0. -1.
         21   -1    0    0  502  503 -0.00000000000E+00 -0.00000000000E+00 -0.14129583371E+03  0.14129583371E+03  0.00000000000E+00 0. -1.
         -6    2    1    2    0  503 -0.65874956799E+02  0.87530681196E+00  0.79264668379E+02  0.20064228015E+03  0.17214575462E+03 0.  0.
        -24    2    3    3    0    0  0.54485358593E+01  0.36566438961E+02  0.32604960436E+01  0.90371605301E+02  0.82399060729E+02 0.  0.
          6    2    1    2  501    0  0.65874956799E+02 -0.87530681196E+00  0.25161868546E+02  0.18637592420E+03  0.17251837409E+03 0.  0.
         24    2    5    5    0    0  0.93647139241E+02  0.33166663978E+02  0.48515903113E+02  0.13639942149E+03  0.79882382544E+02 0.  0.
          5    1    5    5  501    0 -0.27772182442E+02 -0.34041970790E+02 -0.23354034568E+02  0.49976502713E+02  0.47000000000E+01 0. -1.
        -13    1    6    6    0    0  0.36560690184E+02  0.46529539770E+02  0.50415096059E+02  0.77739076716E+02  0.00000000000E+00 0.  1.
         14    1    6    6    0    0  0.57086449056E+02 -0.13362875792E+02 -0.18991929462E+01  0.58660344775E+02  0.00000000000E+00 0. -1.
         -5    1    3    3    0  503 -0.71323492658E+02 -0.35691132149E+02  0.76004172336E+02  0.11027067485E+03  0.47000000000E+01 0.  1.
         13    1    4    4    0    0 -0.33333030613E+02  0.38057876566E+02 -0.45067113198E+01  0.50791764544E+02  0.00000000000E+00 0. -1.
        -14    1    4    4    0    0  0.38781566472E+02 -0.14914376047E+01  0.77672073635E+01  0.39579840757E+02  0.00000000000E+00 0.  1.
</event>
<event>
12    1  0.8633375E-002  0.2009315E+03  0.7818608E-02  0.1149003E+00
         21   -1    0    0  501  502  0.00000000000E+00  0.00000000000E+00  0.20616703561E+03  0.20616703561E+03  0.00000000000E+00 0.  1.
         21   -1    0    0  502  503 -0.00000000000E+00 -0.00000000000E+00 -0.21681755858E+03  0.21681755858E+03  0.00000000000E+00 0.  1.
         -6    2    1    2    0  503 -0.77835880583E+02  0.67493403179E+02 -0.71474015226E+02  0.21326510043E+03  0.17250995458E+03 0.  0.
        -24    2    3    3    0    0 -0.49287159474E+02  0.82773723358E+02  0.10770101505E+02  0.12475124616E+03  0.78524932114E+02 0.  0.
          6    2    1    2  501    0  0.77835880583E+02 -0.67493403179E+02  0.60823492261E+02  0.20971949376E+03  0.17224687246E+03 0.  0.
         24    2    5    5    0    0  0.12004538897E+03 -0.42784815799E+02  0.33387421748E+02  0.15344352327E+03  0.78668666110E+02 0.  0.
          5    1    5    5  501    0 -0.42209508388E+02 -0.24708587380E+02  0.27436070513E+02  0.56275970484E+02  0.47000000000E+01 0. -1.
        -13    1    6    6    0    0 -0.10049511780E+02 -0.11124438475E+02  0.85787822047E+01  0.17272559814E+02  0.00000000000E+00 0.  1.
         14    1    6    6    0    0  0.13009490075E+03 -0.31660377323E+02  0.24808639543E+02  0.13617096346E+03  0.00000000000E+00 0. -1.
         -5    1    3    3    0  503 -0.28548721108E+02 -0.15280320179E+02 -0.82244116731E+02  0.88513854275E+02  0.47000000000E+01 0.  1.
         13    1    4    4    0    0 -0.51278853737E+02  0.12060366892E+02  0.11880606733E+02  0.54001130604E+02  0.00000000000E+00 0. -1.
        -14    1    4    4    0    0  0.19916942629E+01  0.70713356466E+02 -0.11105052280E+01  0.70750115552E+02  0.00000000000E+00 0.  1.
</event>
<event>
12    1  0.8633375E-002  0.2375146E+03  0.7818608E-02  0.1122161E+00
         21   -1    0    0  503  502  0.00000000000E+00  0.00000000000E+00  0.30441048571E+03  0.30441048571E+03  0.00000000000E+00 0.  1.
         21   -1    0    0  501  503 -0.00000000000E+00 -0.00000000000E+00 -0.21508261547E+03  0.21508261547E+03  0.00000000000E+00 0. -1.
          6    2    1    2  501    0  0.16289501857E+03 -0.14184651278E+02 -0.56684723952E+02  0.24418507181E+03  0.17227071707E+03 0.  0.
         24    2    3    3    0    0  0.61662497996E+02 -0.59469323376E+02 -0.63542215534E+02  0.13297428124E+03  0.79408325974E+02 0.  0.
         -6    2    1    2    0  502 -0.16289501857E+03  0.14184651278E+02  0.14601259418E+03  0.27530802937E+03  0.16654981828E+03 0.  0.
        -24    2    5    5    0    0 -0.11871853453E+03  0.70152274123E+02  0.11697957538E+03  0.19817863984E+03  0.81087115050E+02 0.  0.
          5    1    3    3  501    0  0.10123252057E+03  0.45284672098E+02  0.68574915824E+01  0.11121079057E+03  0.47000000000E+01 0. -1.
        -13    1    4    4    0    0 -0.10202709150E+02  0.11061564939E+01  0.94654836817E+01  0.13961168917E+02  0.00000000000E+00 0.  1.
         14    1    4    4    0    0  0.71865207146E+02 -0.60575479870E+02 -0.73007699216E+02  0.11901311232E+03  0.00000000000E+00 0. -1.
         -5    1    5    5    0  502 -0.44176484037E+02 -0.55967622845E+02  0.29033018808E+02  0.77129389534E+02  0.47000000000E+01 0.  1.
         13    1    6    6    0    0  0.11975757118E+02  0.16293868555E+01  0.57407263971E+01  0.13380194305E+02  0.00000000000E+00 0. -1.
        -14    1    6    6    0    0 -0.13069429165E+03  0.68522887268E+02  0.11123884898E+03  0.18479844553E+03  0.00000000000E+00 0.  1.
</event>
<event>
12    1  0.8633375E-002  0.2018476E+03  0.7818608E-02  0.1150703E+00
         21   -1    0    0  501  502  0.00000000000E+00  0.00000000000E+00  0.48002849981E+03  0.48002849981E+03  0.00000000000E+00 0. -1.
         21   -1    0    0  502  503 -0.00000000000E+00 -0.00000000000E+00 -0.11351499763E+03  0.11351499763E+03  0.00000000000E+00 0. -1.
         -6    2    1    2    0  503 -0.58615940333E+02  0.62256386522E+02  0.25983141658E+02  0.20351306268E+03  0.18284079662E+03 0.  0.
        -24    2    3    3    0    0 -0.37166292801E+02 -0.23997975375E+02  0.60100079012E+02  0.10819277240E+03  0.78335307234E+02 0.  0.
          6    2    1    2  501    0  0.58615940333E+02 -0.62256386522E+02  0.34053036053E+03  0.39003043476E+03  0.16985619646E+03 0.  0.
         24    2    5    5    0    0  0.15002835851E+02 -0.10190577023E+03  0.22229517282E+03  0.25783426945E+03  0.80333651448E+02 0.  0.
          5    1    5    5  501    0  0.43613104482E+02  0.39649383707E+02  0.11823518771E+03  0.13219616531E+03  0.47000000000E+01 0. -1.
        -11    1    6    6    0    0 -0.32648984728E+02 -0.36350140208E+02  0.97034455001E+02  0.10864149462E+03  0.00000000000E+00 0.  1.
         12    1    6    6    0    0  0.47651820579E+02 -0.65555630021E+02  0.12526071781E+03  0.14919277482E+03  0.00000000000E+00 0. -1.
         -5    1    3    3    0  503 -0.21449647532E+02  0.86254361897E+02 -0.34116937354E+02  0.95320290284E+02  0.47000000000E+01 0.  1.
         13    1    4    4    0    0 -0.34346253999E+02  0.83846258037E+01  0.66266358146E+02  0.75107904614E+02  0.00000000000E+00 0. -1.
        -14    1    4    4    0    0 -0.28200388015E+01 -0.32382601179E+02 -0.61662791339E+01  0.33084867784E+02  0.00000000000E+00 0.  1.
</event>
<event>
12    1  0.8633375E-002  0.1847996E+03  0.7818608E-02  0.1163282E+00
         21   -1    0    0  501  502  0.00000000000E+00  0.00000000000E+00  0.56956078656E+02  0.56956078656E+02  0.00000000000E+00 0. -1.
         21   -1    0    0  502  503 -0.00000000000E+00 -0.00000000000E+00 -0.65748290730E+03  0.65748290730E+03  0.00000000000E+00 0. -1.
         -6    2    1    2    0  503 -0.66255197974E+02  0.86551475799E+01 -0.40668262169E+03  0.44662104274E+03  0.17208991310E+03 0.  0.
        -24    2    3    3    0    0  0.43838308684E+00  0.51266630442E+02 -0.29236368070E+03  0.30749993544E+03  0.80319542611E+02 0.  0.
          6    2    1    2  501    0  0.66255197974E+02 -0.86551475799E+01 -0.19384420696E+03  0.26781794322E+03  0.17229686969E+03 0.  0.
         24    2    5    5    0    0  0.30958321180E+02  0.27586616825E+02 -0.19790765099E+03  0.21684798564E+03  0.78333718655E+02 0.  0.
          5    1    5    5  501    0  0.35296876794E+02 -0.36241764405E+02  0.40634440339E+01  0.50969957583E+02  0.47000000000E+01 0. -1.
        -13    1    6    6    0    0  0.23683030459E+02  0.42193233003E+02 -0.56011038931E+02  0.74016155838E+02  0.00000000000E+00 0.  1.
         14    1    6    6    0    0  0.72752907213E+01 -0.14606616178E+02 -0.14189661206E+03  0.14283182980E+03  0.00000000000E+00 0. -1.
         -5    1    3    3    0  503 -0.66693581061E+02 -0.42611482862E+02 -0.11431894099E+03  0.13912110730E+03  0.47000000000E+01 0.  1.
         11    1    4    4    0    0 -0.34223090478E+02  0.47261151293E+01 -0.14646633301E+03  0.15048568966E+03  0.00000000000E+00 0. -1.
        -12    1    4    4    0    0  0.34661473564E+02  0.46540515312E+02 -0.14589734769E+03  0.15701424578E+03  0.00000000000E+00 0.  1.
</event>
<event>
12    1  0.8633375E-002  0.1828806E+03  0.7818608E-02  0.1165250E+00
         21   -1    0    0  503  502  0.00000000000E+00  0.00000000000E+00  0.37955082259E+03  0.37955082259E+03  0.00000000000E+00 0.  1.
         21   -1    0    0  501  503 -0.00000000000E+00 -0.00000000000E+00 -0.94159802181E+02  0.94159802181E+02  0.00000000000E+00 0.  1.
          6    2    1    2  501    0  0.22172306496E+02 -0.54824050936E+02  0.80349094684E+02  0.19896071729E+03  0.17213977539E+03 0.  0.
         24    2    3    3    0    0  0.79065329181E+02 -0.49704655724E+02  0.52955866231E+02  0.13543510669E+03  0.82561887548E+02 0.  0.
         -6    2    1    2    0  502 -0.22172306496E+02  0.54824050936E+02  0.20504192572E+03  0.27474990748E+03  0.17305499883E+03 0.  0.
        -24    2    5    5    0    0  0.36745976872E+02  0.39335018193E+02  0.49415793556E+02  0.10755882738E+03  0.78926992991E+02 0.  0.
          5    1    3    3  501    0 -0.56893022685E+02 -0.51193952118E+01  0.27393228453E+02  0.63525610604E+02  0.47000000000E+01 0. -1.
        -13    1    4    4    0    0  0.47752764716E+02 -0.36618158055E+02  0.74094699441E+02  0.95452818306E+02  0.00000000000E+00 0.  1.
         14    1    4    4    0    0  0.31312564465E+02 -0.13086497669E+02 -0.21138833210E+02  0.39982288380E+02  0.00000000000E+00 0. -1.
         -5    1    5    5    0  502 -0.58918283368E+02  0.15489032743E+02  0.15562613217E+03  0.16719108009E+03  0.47000000000E+01 0.  1.
         11    1    6    6    0    0  0.17410607989E+02  0.62756179077E+02  0.35096945390E+02  0.73981503490E+02  0.00000000000E+00 0. -1.
        -12    1    6    6    0    0  0.19335368883E+02 -0.23421160884E+02  0.14318848166E+02  0.33577323893E+02  0.00000000000E+00 0.  1.
</event>
<event>
12    1  0.8633375E-002  0.1788170E+03  0.7818608E-02  0.1169092E+00
         21   -1    0    0  501  502  0.00000000000E+00  0.00000000000E+00  0.21317595980E+03  0.21317595980E+03  0.00000000000E+00 0. -1.
         21   -1    0    0  502  503 -0.00000000000E+00 -0.00000000000E+00 -0.27416042278E+03  0.27416042278E+03  0.00000000000E+00 0. -1.
         -6    2    1    2    0  503  0.48597376480E+02  0.13278025119E+01 -0.19476180779E+03  0.26401617913E+03  0.17149027089E+03 0.  0.
        -24    2    3    3    0    0  0.16956369775E+02  0.11509990146E+02 -0.19469630933E+02  0.85538540426E+02  0.80732750606E+02 0.  0.
          6    2    1    2  501    0 -0.48597376480E+02 -0.13278025119E+01  0.13377734481E+03  0.22332020345E+03  0.17208157143E+03 0.  0.
         24    2    5    5    0    0  0.10747646254E+02 -0.56730210347E+02  0.77475201431E+02  0.12440973957E+03  0.78368027895E+02 0.  0.
          5    1    5    5  501    0 -0.59345022734E+02  0.55402407835E+02  0.56302143381E+02  0.98910463888E+02  0.47000000000E+01 0. -1.
        -13    1    6    6    0    0  0.62691710123E+01 -0.13765988706E+02  0.79731680788E+02  0.81153840769E+02  0.00000000000E+00 0.  1.
         14    1    6    6    0    0  0.44784752416E+01 -0.42964221641E+02 -0.22564793565E+01  0.43255898798E+02  0.00000000000E+00 0. -1.
         -5    1    3    3    0  503  0.31641006705E+02 -0.10182187634E+02 -0.17529217686E+03  0.17847763871E+03  0.47000000000E+01 0.  1.
         11    1    4    4    0    0  0.21547280732E+02 -0.32165532347E+02 -0.14500650413E+02  0.41342177500E+02  0.00000000000E+00 0. -1.
        -12    1    4    4    0    0 -0.45909109572E+01  0.43675522493E+02 -0.49689805203E+01  0.44196362926E+02  0.00000000000E+00 0.  1.
</event>
<event>
12    1  0.8633375E-002  0.2492454E+03  0.7818608E-02  0.1113936E+00
         21   -1    0    0  503  502  0.00000000000E+00  0.00000000000E+00  0.19106802819E+03  0.19106802819E+03  0.00000000000E+00 0.  1.
         21   -1    0    0  501  503 -0.00000000000E+00 -0.00000000000E+00 -0.37548309467E+03  0.37548309467E+03  0.00000000000E+00 0.  1.
          6    2    1    2  501    0 -0.56723943686E+02  0.17177570534E+03 -0.19707146937E+03  0.31698462108E+03  0.17005171927E+03 0.  0.
         24    2    3    3    0    0  0.18598704695E+02  0.13872955371E+03 -0.15237849793E+03  0.22325575043E+03  0.83857752055E+02 0.  0.
         -6    2    1    2    0  502  0.56723943686E+02 -0.17177570534E+03  0.12656402889E+02  0.24956650178E+03  0.17146065304E+03 0.  0.
        -24    2    5    5    0    0  0.67440870500E+02 -0.35533990774E+02 -0.65240428853E+01  0.11148450871E+03  0.81088205262E+02 0.  0.
          5    1    3    3  501    0 -0.75322648381E+02  0.33046151636E+02 -0.44692971439E+02  0.93728870649E+02  0.47000000000E+01 0. -1.
        -11    1    4    4    0    0 -0.12268549842E+02  0.69299604907E+02 -0.12315902069E+03  0.14184885242E+03  0.00000000000E+00 0.  1.
         12    1    4    4    0    0  0.30867254537E+02  0.69429948799E+02 -0.29219477238E+02  0.81406898006E+02  0.00000000000E+00 0. -1.
         -5    1    5    5    0  502 -0.10716926814E+02 -0.13624171457E+03  0.19180445775E+02  0.13808199307E+03  0.47000000000E+01 0.  1.
         11    1    6    6    0    0  0.97399089778E+01  0.22850621201E+02  0.11609815030E+02  0.27419053981E+02  0.00000000000E+00 0. -1.
        -12    1    6    6    0    0  0.57700961523E+02 -0.58384611974E+02 -0.18133857916E+02  0.84065454730E+02  0.00000000000E+00 0.  1.
</event>
<event>
12    1  0.8633375E-002  0.2400904E+03  0.7818608E-02  0.1119766E+00
         21   -1    0    0  501  502  0.00000000000E+00  0.00000000000E+00  0.71221958942E+03  0.71221958942E+03  0.00000000000E+00 0. -1.
         21   -1    0    0  502  503 -0.00000000000E+00 -0.00000000000E+00 -0.89799183682E+02  0.89799183682E+02  0.00000000000E+00 0. -1.
         -6    2    1    2    0  503 -0.15469681551E+03  0.62455981483E+02  0.18485839087E+03  0.30301161769E+03  0.17266024856E+03 0.  0.
        -24    2    3    3    0    0 -0.32519629872E+02  0.31702584001E+00  0.12729725545E+03  0.15427060516E+03  0.80852962465E+02 0.  0.
          6    2    1    2  501    0  0.15469681551E+03 -0.62455981483E+02  0.43756201488E+03  0.49900715541E+03  0.17238262656E+03 0.  0.
         24    2    5    5    0    0  0.11488776529E+02 -0.53209683102E+02  0.18013286836E+03  0.20424302609E+03  0.79398369498E+02 0.  0.
          5    1    5    5  501    0  0.14320803898E+03 -0.92462983810E+01  0.25742914651E+03  0.29476412933E+03  0.47000000000E+01 0. -1.
        -13    1    6    6    0    0  0.35822454395E+02 -0.60726466094E+02  0.13912162391E+03  0.15596723426E+03  0.00000000000E+00 0.  1.
         14    1    6    6    0    0 -0.24333677866E+02  0.75167829928E+01  0.41011244453E+02  0.48275791828E+02  0.00000000000E+00 0. -1.
         -5    1    3    3    0  503 -0.12217718564E+03  0.62138955643E+02  0.57561135414E+02  0.14874101253E+03  0.47000000000E+01 0.  1.
         11    1    4    4    0    0 -0.40686739560E+02  0.43637753872E+01  0.13578441934E+03  0.14181629613E+03  0.00000000000E+00 0. -1.
        -12    1    4    4    0    0  0.81671096875E+01 -0.40467495472E+01 -0.84871638918E+01  0.12454309032E+02  0.00000000000E+00 0.  1.
</event>
<event>
12    1  0.8633375E-002  0.2398078E+03  0.7818608E-02  0.1120256E+00
         21   -1    0    0  501  502  0.00000000000E+00  0.00000000000E+00  0.69645924278E+03  0.69645924278E+03  0.00000000000E+00 0. -1.
         21   -1    0    0  502  503 -0.00000000000E+00 -0.00000000000E+00 -0.19453847683E+03  0.19453847683E+03  0.00000000000E+00 0. -1.
         -6    2    1    2    0  503  0.15467495502E+03  0.65929495468E+02 -0.88493046260E+02  0.25374089983E+03  0.16817367489E+03 0.  0.
        -24    2    3    3    0    0  0.13478709404E+03  0.83261720104E+02 -0.11834846140E+03  0.21362396028E+03  0.80800763214E+02 0.  0.
          6    2    1    2  501    0 -0.15467495502E+03 -0.65929495468E+02  0.59041381221E+03  0.63725681978E+03  0.17098755694E+03 0.  0.
         24    2    5    5    0    0 -0.40013112276E+02  0.15531625811E+02  0.31765173526E+03  0.33032931518E+03  0.79828259387E+02 0.  0.
          5    1    5    5  501    0 -0.11466184274E+03 -0.81461121279E+02  0.27276207695E+03  0.30692750460E+03  0.47000000000E+01 0. -1.
        -11    1    6    6    0    0 -0.63141278616E+02  0.15481707975E+02  0.26433613831E+03  0.27221333245E+03  0.00000000000E+00 0.  1.
         12    1    6    6    0    0  0.23128166340E+02  0.49917835726E-01  0.53315596949E+02  0.58115982725E+02  0.00000000000E+00 0. -1.
         -5    1    3    3    0  503  0.19887860979E+02 -0.17332224636E+02  0.29855415141E+02  0.40116939545E+02  0.47000000000E+01 0.  1.
         13    1    4    4    0    0  0.80060735594E+02  0.23504920064E+01 -0.56277722006E+02  0.97889877877E+02  0.00000000000E+00 0. -1.
        -14    1    4    4    0    0  0.54726358444E+02  0.80911228098E+02 -0.62070739395E+02  0.11573408240E+03  0.00000000000E+00 0.  1.
</event>
<event>
12    1  0.8633375E-002  0.2209029E+03  0.7818608E-02  0.1133513E+00
         21   -1    0    0  503  502  0.00000000000E+00  0.00000000000E+00  0.64574011183E+03  0.64574011183E+03  0.00000000000E+00 0. -1.
         21   -1    0    0  501  503 -0.00000000000E+00 -0.00000000000E+00 -0.13443029876E+03  0.13443029876E+03  0.00000000000E+00 0.  1.
          6    2    1    2  501    0 -0.12571898744E+03 -0.55120894008E+02 -0.42002695790E+01  0.21932395877E+03  0.17100228030E+03 0.  0.
         24    2    3    3    0    0 -0.14915058513E+03 -0.36166681368E+02  0.27548382978E+02  0.17529704784E+03  0.80101283944E+02 0.  0.
         -6    2    1    2    0  502  0.12571898744E+03  0.55120894008E+02  0.51551008265E+03  0.56084645182E+03  0.17307374281E+03 0.  0.
        -24    2    5    5    0    0 -0.57427386111E+01  0.17291412030E+02  0.23439920185E+03  0.24818261889E+03  0.79496254707E+02 0.  0.
          5    1    3    3  501    0  0.23431597694E+02 -0.18954212641E+02 -0.31748652557E+02  0.44026910935E+02  0.47000000000E+01 0. -1.
        -11    1    4    4    0    0 -0.81072637382E+02 -0.59193891404E+02  0.73794411038E+01  0.10065359140E+03  0.00000000000E+00 0.  1.
         12    1    4    4    0    0 -0.68077947752E+02  0.23027210037E+02  0.20168941874E+02  0.74643456434E+02  0.00000000000E+00 0. -1.
         -5    1    5    5    0  502  0.13146172605E+03  0.37829481978E+02  0.28111088080E+03  0.31266383294E+03  0.47000000000E+01 0.  1.
         13    1    6    6    0    0  0.74061897293E+01 -0.30736561203E+02  0.83891062555E+02  0.89650980014E+02  0.00000000000E+00 0. -1.
        -14    1    6    6    0    0 -0.13148928340E+02  0.48027973233E+02  0.15050813929E+03  0.15853163887E+03  0.00000000000E+00 0.  1.
</event>
<event>
12    1  0.8633375E-002  0.1864630E+03  0.7818608E-02  0.1163134E+00
         21   -1    0    0  501  502  0.00000000000E+00  0.00000000000E+00  0.47576599090E+03  0.47576599090E+03  0.00000000000E+00 0. -1.
         21   -1    0    0  502  503 -0.00000000000E+00 -0.00000000000E+00 -0.70712056353E+02  0.70712056353E+02  0.00000000000E+00 0. -1.
         -6    2    1    2    0  503  0.51602536969E+02 -0.54684820889E+02  0.20347880160E+03  0.27188568387E+03  0.16390531088E+03 0.  0.
        -24    2    3    3    0    0 -0.98691370030E+01  0.55137147816E+00  0.14188139488E+03  0.16870557841E+03  0.90738845580E+02 0.  0.
          6    2    1    2  501    0 -0.51602536969E+02  0.54684820889E+02  0.20157513295E+03  0.27459236339E+03  0.17063170969E+03 0.  0.
         24    2    5    5    0    0  0.34157550515E+02  0.41668538562E+02  0.13344815966E+03  0.16419494177E+03  0.79047847677E+02 0.  0.
          5    1    5    5  501    0 -0.85760087484E+02  0.13016282327E+02  0.68126973290E+02  0.11039742162E+03  0.47000000000E+01 0. -1.
        -11    1    6    6    0    0  0.32864964766E+02  0.43816363136E+02  0.33477492701E+02  0.64192850887E+02  0.00000000000E+00 0.  1.
         12    1    6    6    0    0  0.12925857485E+01 -0.21478245733E+01  0.99970666956E+02  0.10000209088E+03  0.00000000000E+00 0. -1.
         -5    1    3    3    0  503  0.61471673972E+02 -0.55236192368E+02  0.61597406721E+02  0.10318010546E+03  0.47000000000E+01 0.  1.
         13    1    4    4    0    0 -0.11429668992E+02 -0.10292755396E+02 -0.87369294083E+01  0.17689321140E+02  0.00000000000E+00 0. -1.
        -14    1    4    4    0    0  0.15605319889E+01  0.10844126874E+02  0.15061832429E+03  0.15101625727E+03  0.00000000000E+00 0.  1.
</event>
<event>
12    1  0.8633375E-002  0.2254827E+03  0.7818608E-02  0.1129910E+00
         21   -1    0    0  503  502  0.00000000000E+00  0.00000000000E+00  0.63315704865E+02  0.63315704865E+02  0.00000000000E+00 0.  1.
         21   -1    0    0  501  503 -0.00000000000E+00 -0.00000000000E+00 -0.82356110324E+03  0.82356110324E+03  0.00000000000E+00 0.  1.
          6    2    1    2  501    0  0.12218624460E+03 -0.69523039212E+02 -0.30862320766E+03  0.38221815452E+03  0.17629379454E+03 0.  0.
         24    2    3    3    0    0  0.99039605456E+02 -0.11263959631E+03 -0.27427550656E+03  0.32224600290E+03  0.78223466933E+02 0.  0.
         -6    2    1    2    0  502 -0.12218624460E+03  0.69523039212E+02 -0.45162219072E+03  0.50465865358E+03  0.17593982532E+03 0.  0.
        -24    2    5    5    0    0 -0.37587018347E+02  0.30458387342E+02 -0.36640362797E+03  0.37829659620E+03  0.80722975656E+02 0.  0.
          5    1    3    3  501    0  0.23146639148E+02  0.43116557101E+02 -0.34347701096E+02  0.59972151626E+02  0.47000000000E+01 0. -1.
        -11    1    4    4    0    0  0.11002954863E+03 -0.99756697121E+02 -0.22038986933E+03  0.26576228982E+03  0.00000000000E+00 0.  1.
         12    1    4    4    0    0 -0.10989943171E+02 -0.12882899192E+02 -0.53885637234E+02  0.56483713074E+02  0.00000000000E+00 0. -1.
         -5    1    5    5    0  502 -0.84599226257E+02  0.39064651870E+02 -0.85218562752E+02  0.12636205739E+03  0.47000000000E+01 0.  1.
         13    1    6    6    0    0 -0.61535336011E+02  0.22525527960E+02 -0.30408058253E+03  0.31106108348E+03  0.00000000000E+00 0. -1.
        -14    1    6    6    0    0  0.23948317664E+02  0.79328593827E+01 -0.62323045442E+02  0.67235512715E+02  0.00000000000E+00 0.  1.
</event>
<event>
12    1  0.8633375E-002  0.1932921E+03  0.7818608E-02  0.1155646E+00
         21   -1    0    0  503  502  0.00000000000E+00  0.00000000000E+00  0.66432608958E+02  0.66432608958E+02  0.00000000000E+00 0. -1.
         21   -1    0    0  501  503 -0.00000000000E+00 -0.00000000000E+00 -0.63771324234E+03  0.63771324234E+03  0.00000000000E+00 0.  1.
          6    2    1    2  501    0  0.42243979682E+02  0.75819273894E+02 -0.40826227314E+03  0.45170778709E+03  0.17270994509E+03 0.  0.
         24    2    3    3    0    0  0.85706361460E+02  0.53468638214E+02 -0.36269157538E+03  0.38472041485E+03  0.79121065992E+02 0.  0.
         -6    2    1    2    0  502 -0.42243979682E+02 -0.75819273894E+02 -0.16301836024E+03  0.25243806420E+03  0.17209553850E+03 0.  0.
        -24    2    5    5    0    0 -0.68773320361E+02 -0.39791101207E+02 -0.37169157935E+02  0.11878946951E+03  0.80101750517E+02 0.  0.
          5    1    3    3  501    0 -0.43462381777E+02  0.22350635681E+02 -0.45570697761E+02  0.66987372239E+02  0.47000000000E+01 0. -1.
        -11    1    4    4    0    0  0.66642838751E+01 -0.68404039922E+01 -0.14596460850E+03  0.14627669240E+03  0.00000000000E+00 0.  1.
         12    1    4    4    0    0  0.79042077585E+02  0.60309042206E+02 -0.21672696688E+03  0.23844372245E+03  0.00000000000E+00 0. -1.
         -5    1    5    5    0  502  0.26529340679E+02 -0.36028172688E+02 -0.12584920230E+03  0.13364859469E+03  0.47000000000E+01 0.  1.
         11    1    6    6    0    0 -0.72876810884E+02 -0.46641970101E+00 -0.19234700630E+02  0.75373873593E+02  0.00000000000E+00 0. -1.
        -12    1    6    6    0    0  0.41034905232E+01 -0.39324681506E+02 -0.17934457304E+02  0.43415595917E+02  0.00000000000E+00 0.  1.
</event>
<event>
12    1  0.8633375E-002  0.2827668E+03  0.7818608E-02  0.1094292E+00
         21   -1    0    0  503  502  0.00000000000E+00  0.00000000000E+00  0.16597347789E+04  0.16597347789E+04  0.00000000000E+00 0.  1.
         21   -1    0    0  501  503 -0.00000000000E+00 -0.00000000000E+00 -0.50147800040E+02  0.50147800040E+02  0.00000000000E+00 0.  1.
          6    2    1    2  501    0  0.22192486167E+03 -0.28371661730E+02  0.63068900223E+03  0.69117702129E+03  0.17292039151E+03 0.  0.
         24    2    3    3    0    0  0.23756881797E+03 -0.47662404499E+02  0.59231225595E+03  0.64522344928E+03  0.82272977793E+02 0.  0.
         -6    2    1    2    0  502 -0.22192486167E+03  0.28371661730E+02  0.97889797667E+03  0.10187055577E+04  0.17165130100E+03 0.  0.
        -24    2    5    5    0    0 -0.88901899459E+02  0.69331323457E+02  0.58268007580E+03  0.59872518037E+03  0.79027784616E+02 0.  0.
          5    1    3    3  501    0 -0.15643956298E+02  0.19290742768E+02  0.38376746285E+02  0.45953572011E+02  0.47000000000E+01 0. -1.
        -13    1    4    4    0    0  0.74602099031E+02 -0.19549007178E+02  0.10267296879E+03  0.12841096286E+03  0.00000000000E+00 0.  1.
         14    1    4    4    0    0  0.16296671894E+03 -0.28113397320E+02  0.48963928716E+03  0.51681248642E+03  0.00000000000E+00 0. -1.
         -5    1    5    5    0  502 -0.13302296221E+03 -0.40959661727E+02  0.39621790088E+03  0.41998037733E+03  0.47000000000E+01 0.  1.
         13    1    6    6    0    0 -0.49617739036E+02  0.25805477006E+02  0.12056155558E+03  0.13290196144E+03  0.00000000000E+00 0. -1.
        -14    1    6    6    0    0 -0.39284160422E+02  0.43525846451E+02  0.46211852022E+03  0.46582321893E+03  0.00000000000E+00 0.  1.
</event>
<event>
12    1  0.8633375E-002  0.1845611E+03  0.7818608E-02  0.1164329E+00
         21   -1    0    0  501  502  0.00000000000E+00  0.00000000000E+00  0.18592786184E+03  0.18592786184E+03  0.00000000000E+00 0.  1.
         21   -1    0    0  502  503 -0.00000000000E+00 -0.00000000000E+00 -0.27500558696E+03  0.27500558696E+03  0.00000000000E+00 0.  1.
         -6    2    1    2    0  503  0.27983634828E+02 -0.50948137576E+02 -0.18000123669E+03  0.25519118102E+03  0.17129885324E+03 0.  0.
        -24    2    3    3    0    0  0.15659974808E+02  0.14988070489E+02 -0.32596889699E+02  0.93173936130E+02  0.84551452312E+02 0.  0.
          6    2    1    2  501    0 -0.27983634828E+02  0.50948137576E+02  0.90923511574E+02  0.20574226778E+03  0.17516848819E+03 0.  0.
         24    2    5    5    0    0  0.29553137120E+02  0.82832671641E+02  0.60067317627E+02  0.13293225237E+03  0.79550371899E+02 0.  0.
          5    1    5    5  501    0 -0.57536771949E+02 -0.31884534065E+02  0.30856193947E+02  0.72810015408E+02  0.47000000000E+01 0. -1.
        -11    1    6    6    0    0 -0.10593455700E+02  0.11387058042E+02  0.47550461632E+02  0.50029319364E+02  0.00000000000E+00 0.  1.
         12    1    6    6    0    0  0.40146592821E+02  0.71445613599E+02  0.12516855995E+02  0.82902933010E+02  0.00000000000E+00 0. -1.
         -5    1    3    3    0  503  0.12323660021E+02 -0.65936208065E+02 -0.14740434699E+03  0.16201724489E+03  0.47000000000E+01 0.  1.
         13    1    4    4    0    0  0.41109049459E+02 -0.17653164373E+02 -0.24470444034E+02  0.50994027014E+02  0.00000000000E+00 0. -1.
        -14    1    4    4    0    0 -0.25449074652E+02  0.32641234862E+02 -0.81264456644E+01  0.42179909117E+02  0.00000000000E+00 0.  1.
</event>
<event>
12    1  0.8633375E-002  0.1788339E+03  0.7818608E-02  0.1169033E+00
         21   -1    0    0  501  502  0.00000000000E+00  0.00000000000E+00  0.28291289541E+03  0.28291289541E+03  0.00000000000E+00 0.  1.
         21   -1    0    0  502  503 -0.00000000000E+00 -0.00000000000E+00 -0.22891411676E+03  0.22891411676E+03  0.00000000000E+00 0.  1.
         -6    2    1    2    0  503 -0.17018376131E+02  0.46625603572E+02 -0.15528286231E+03  0.23654466425E+03  0.17139731276E+03 0.  0.
        -24    2    3    3    0    0 -0.34603480236E+02  0.47941411175E+02 -0.18029719748E+03  0.20558058506E+03  0.79123433840E+02 0.  0.
          6    2    1    2  501    0  0.17018376131E+02 -0.46625603572E+02  0.20928164097E+03  0.27528234792E+03  0.17180801435E+03 0.  0.
         24    2    5    5    0    0 -0.16563847272E+02 -0.27082265584E+02  0.21669261267E+03  0.23544869017E+03  0.86444127455E+02 0.  0.
          5    1    5    5  501    0  0.33582223403E+02 -0.19543337988E+02 -0.74109716997E+01  0.39833657752E+02  0.47000000000E+01 0. -1.
        -11    1    6    6    0    0 -0.26775073623E+02 -0.52738160972E+02  0.18038205659E+03  0.18983125277E+03  0.00000000000E+00 0.  1.
         12    1    6    6    0    0  0.10211226351E+02  0.25655895388E+02  0.36310556083E+02  0.45617437398E+02  0.00000000000E+00 0. -1.
         -5    1    3    3    0  503  0.17585104105E+02 -0.13158076037E+01  0.25014335170E+02  0.30964079189E+02  0.47000000000E+01 0.  1.
         13    1    4    4    0    0 -0.36140651640E+02 -0.51198371626E+01 -0.11910289573E+03  0.12457069962E+03  0.00000000000E+00 0. -1.
        -14    1    4    4    0    0  0.15371714048E+01  0.53061248338E+02 -0.61194301757E+02  0.81009885437E+02  0.00000000000E+00 0.  1.
</event>
<event>
12    1  0.8633375E-002  0.2404698E+03  0.7818608E-02  0.1119786E+00
         21   -1    0    0  503  502  0.00000000000E+00  0.00000000000E+00  0.47372595215E+03  0.47372595215E+03  0.00000000000E+00 0.  1.
         21   -1    0    0  501  503 -0.00000000000E+00 -0.00000000000E+00 -0.39203422137E+03  0.39203422137E+03  0.00000000000E+00 0.  1.
          6    2    1    2  501    0 -0.14859926328E+03 -0.75290810575E+02 -0.31903941493E+03  0.39841536887E+03  0.17087483919E+03 0.  0.
         24    2    3    3    0    0 -0.12664014727E+03 -0.25684517019E+02 -0.30710952443E+03  0.34267131606E+03  0.80062160457E+02 0.  0.
         -6    2    1    2    0  502  0.14859926328E+03  0.75290810575E+02  0.40073114570E+03  0.46734480465E+03  0.17342222491E+03 0.  0.
        -24    2    5    5    0    0  0.17530413848E+03  0.42566322000E+02  0.34124191887E+03  0.39423460960E+03  0.80196305849E+02 0.  0.
          5    1    3    3  501    0 -0.21959116009E+02 -0.49606293556E+02 -0.11929890493E+02  0.55744052807E+02  0.47000000000E+01 0. -1.
        -13    1    4    4    0    0 -0.18184312082E+02  0.18876197735E+02 -0.11211935304E+03  0.11514221369E+03  0.00000000000E+00 0.  1.
         14    1    4    4    0    0 -0.10845583519E+03 -0.44560714754E+02 -0.19499017139E+03  0.22752910237E+03  0.00000000000E+00 0. -1.
         -5    1    5    5    0  502 -0.26704875199E+02  0.32724488574E+02  0.59489226831E+02  0.73110195054E+02  0.47000000000E+01 0.  1.
         13    1    6    6    0    0  0.49013668339E+01  0.10277704667E+02 -0.68472246958E-01  0.11386803701E+02  0.00000000000E+00 0. -1.
        -14    1    6    6    0    0  0.17040277165E+03  0.32288617333E+02  0.34131039112E+03  0.38284780589E+03  0.00000000000E+00 0.  1.
</event>
<event>
12    1  0.8633375E-002  0.1805532E+03  0.7818608E-02  0.1167914E+00
         21   -1    0    0  503  502  0.00000000000E+00  0.00000000000E+00  0.98376939709E+02  0.98376939709E+02  0.00000000000E+00 0.  1.
         21   -1    0    0  501  503 -0.00000000000E+00 -0.00000000000E+00 -0.35066108411E+03  0.35066108411E+03  0.00000000000E+00 0.  1.
          6    2    1    2  501    0  0.40041388657E+02  0.39596181595E+02 -0.18418769064E+03  0.25607018645E+03  0.16874733955E+03 0.  0.
         24    2    3    3    0    0  0.57830723472E+02  0.68471339745E+02 -0.89947192330E+02  0.15580256101E+03  0.90284127420E+02 0.  0.
         -6    2    1    2    0  502 -0.40041388657E+02 -0.39596181595E+02 -0.68096453760E+02  0.19296783736E+03  0.17154675409E+03 0.  0.
        -24    2    5    5    0    0 -0.26743286343E+02 -0.40235692210E+02 -0.11295386109E+03  0.14594097811E+03  0.78778677719E+02 0.  0.
          5    1    3    3  501    0 -0.17789334815E+02 -0.28875158150E+02 -0.94240498310E+02  0.10026762545E+03  0.47000000000E+01 0. -1.
        -13    1    4    4    0    0  0.36907810331E+02  0.33551361852E+02 -0.10183474835E+03  0.11339398713E+03  0.00000000000E+00 0.  1.
         14    1    4    4    0    0  0.20922913141E+02  0.34919977893E+02  0.11887556017E+02  0.42408573879E+02  0.00000000000E+00 0. -1.
         -5    1    5    5    0  502 -0.13298102314E+02  0.63951061477E+00  0.44857407332E+02  0.47026859257E+02  0.47000000000E+01 0.  1.
         11    1    6    6    0    0 -0.33795204253E+02 -0.31570564652E+02 -0.16898266671E+02  0.49237869566E+02  0.00000000000E+00 0. -1.
        -12    1    6    6    0    0  0.70519179101E+01 -0.86651275580E+01 -0.96055594421E+02  0.96703108541E+02  0.00000000000E+00 0.  1.
</event>
<event>
12    1  0.8633375E-002  0.1889188E+03  0.7818608E-02  0.1160032E+00
         21   -1    0    0  501  502  0.00000000000E+00  0.00000000000E+00  0.47885134248E+03  0.47885134248E+03  0.00000000000E+00 0. -1.
         21   -1    0    0  502  503 -0.00000000000E+00 -0.00000000000E+00 -0.13537553314E+03  0.13537553314E+03  0.00000000000E+00 0. -1.
         -6    2    1    2    0  503 -0.31572825799E+02 -0.57765594427E+02 -0.35218394403E+02  0.19217346063E+03  0.17707793888E+03 0.  0.
        -24    2    3    3    0    0 -0.63759522444E+02  0.46504805252E+01 -0.59405957958E+02  0.11774982135E+03  0.79050926085E+02 0.  0.
          6    2    1    2  501    0  0.31572825799E+02  0.57765594427E+02  0.37869420374E+03  0.42205341499E+03  0.17431602889E+03 0.  0.
         24    2    5    5    0    0 -0.67297845677E+01  0.33411890303E+02  0.36403238629E+03  0.37412376074E+03  0.79292910562E+02 0.  0.
          5    1    5    5  501    0  0.38302610367E+02  0.24353704124E+02  0.14661817444E+02  0.47929654247E+02  0.47000000000E+01 0. -1.
        -13    1    6    6    0    0 -0.16132254320E+02  0.30728503220E+02  0.55641781600E+02  0.65578185391E+02  0.00000000000E+00 0.  1.
         14    1    6    6    0    0  0.94024697518E+01  0.26833870827E+01  0.30839060469E+03  0.30854557535E+03  0.00000000000E+00 0. -1.
         -5    1    3    3    0  503  0.32186696645E+02 -0.62416074952E+02  0.24187563555E+02  0.74423639283E+02  0.47000000000E+01 0.  1.
         13    1    4    4    0    0 -0.11340927252E+01  0.32930110708E+02 -0.19578063840E+02  0.38327261072E+02  0.00000000000E+00 0. -1.
        -14    1    4    4    0    0 -0.62625429719E+02 -0.28279630183E+02 -0.39827894118E+02  0.79422560275E+02  0.00000000000E+00 0.  1.
</event>
<event>
12    1  0.8633375E-002  0.2205826E+03  0.7818608E-02  0.1133610E+00
         21   -1    0    0  503  502  0.00000000000E+00  0.00000000000E+00  0.72899821280E+03  0.72899821280E+03  0.00000000000E+00 0.  1.
         21   -1    0    0  501  503 -0.00000000000E+00 -0.00000000000E+00 -0.75548833258E+02  0.75548833258E+02  0.00000000000E+00 0.  1.
          6    2    1    2  501    0 -0.87301065852E+02  0.10664504586E+03  0.46550612975E+03  0.51475516255E+03  0.17112065519E+03 0.  0.
         24    2    3    3    0    0  0.21644610628E+01  0.94192700178E+02  0.32463425266E+03  0.34734513545E+03  0.79901786346E+02 0.  0.
         -6    2    1    2    0  502  0.87301065852E+02 -0.10664504586E+03  0.18794324980E+03  0.28979188351E+03  0.17222667824E+03 0.  0.
        -24    2    5    5    0    0  0.43574335571E+02 -0.72256927058E+02  0.24825654931E+02  0.11738535982E+03  0.77738171636E+02 0.  0.
          5    1    3    3  501    0 -0.89465526915E+02  0.12452345687E+02  0.14087187709E+03  0.16741002710E+03  0.47000000000E+01 0. -1.
        -11    1    4    4    0    0 -0.17753511668E+02 -0.66427936317E+01  0.32096153100E+02  0.37275688158E+02  0.00000000000E+00 0.  1.
         12    1    4    4    0    0  0.19917972731E+02  0.10083549381E+03  0.29253809956E+03  0.31006944729E+03  0.00000000000E+00 0. -1.
         -5    1    5    5    0  502  0.43726730281E+02 -0.34388118807E+02  0.16311759486E+03  0.17240652369E+03  0.47000000000E+01 0.  1.
         13    1    6    6    0    0  0.41481333168E+01 -0.60916946629E+02  0.40718465886E+02  0.73389882550E+02  0.00000000000E+00 0. -1.
        -14    1    6    6    0    0  0.39426202254E+02 -0.11339980430E+02 -0.15892810955E+02  0.43995477272E+02  0.00000000000E+00 0.  1.
</event>
<event>
12    1  0.8633375E-002  0.2544766E+03  0.7818608E-02  0.1111329E+00
         21   -1    0    0  503  502  0.00000000000E+00  0.00000000000E+00  0.30725366538E+03  0.30725366538E+03  0.00000000000E+00 0. -1.
         21   -1    0    0  501  503 -0.00000000000E+00 -0.00000000000E+00 -0.21234137951E+03  0.21234137951E+03  0.00000000000E+00 0.  1.
          6    2    1    2  501    0  0.18586911367E+03  0.22680915490E+02  0.36365221745E+01  0.24924414696E+03  0.16446175592E+03 0.  0.
         24    2    3    3    0    0  0.10817192720E+03 -0.48336255635E+02 -0.24133447210E+01  0.14370276992E+03  0.81284084578E+02 0.  0.
         -6    2    1    2    0  502 -0.18586911367E+03 -0.22680915490E+02  0.91275763700E+02  0.27035089793E+03  0.17232699042E+03 0.  0.
        -24    2    5    5    0    0 -0.13097570085E+03  0.30296060941E+02  0.11028612358E+03  0.19158967279E+03  0.80443073925E+02 0.  0.
          5    1    3    3  501    0  0.77697186464E+02  0.71017171125E+02  0.60498668956E+01  0.10554137704E+03  0.47000000000E+01 0. -1.
        -11    1    4    4    0    0  0.10028401756E+03 -0.46541053794E+02  0.26491630740E+02  0.11368711609E+03  0.00000000000E+00 0.  1.
         12    1    4    4    0    0  0.78879096442E+01 -0.17952018408E+01 -0.28904975461E+02  0.30015653826E+02  0.00000000000E+00 0. -1.
         -5    1    5    5    0  502 -0.54893412817E+02 -0.52976976431E+02 -0.19010359883E+02  0.78761225139E+02  0.47000000000E+01 0.  1.
         13    1    6    6    0    0 -0.29920687722E+02 -0.11787084799E+02 -0.50756834897E+01  0.32556803969E+02  0.00000000000E+00 0. -1.
        -14    1    6    6    0    0 -0.10105501313E+03  0.42083145740E+02  0.11536180707E+03  0.15903286882E+03  0.00000000000E+00 0.  1.
</event>
<event>
12    1  0.8633375E-002  0.1968776E+03  0.7818608E-02  0.1152871E+00
         21   -1    0    0  503  502  0.00000000000E+00  0.00000000000E+00  0.12093443212E+03  0.12093443212E+03  0.00000000000E+00 0.  1.
         21   -1    0    0  501  503 -0.00000000000E+00 -0.00000000000E+00 -0.38614649309E+03  0.38614649309E+03  0.00000000000E+00 0.  1.
          6    2    1    2  501    0 -0.14969129010E+02  0.90944708432E+02 -0.25908930114E+02  0.19857510530E+03  0.17397064399E+03 0.  0.
         24    2    3    3    0    0 -0.71078880517E+02  0.64899607573E+02  0.12136534858E+02  0.12580011717E+03  0.80088748790E+02 0.  0.
         -6    2    1    2    0  502  0.14969129010E+02 -0.90944708432E+02 -0.23930313086E+03  0.30850581990E+03  0.17150754404E+03 0.  0.
        -24    2    5    5    0    0 -0.14592562064E+02 -0.12340296937E+03 -0.16011336602E+03  0.21783862000E+03  0.79850727419E+02 0.  0.
          5    1    3    3  501    0  0.56109751507E+02  0.26045100858E+02 -0.38045464972E+02  0.72774988133E+02  0.47000000000E+01 0. -1.
        -11    1    4    4    0    0  0.52647109718E+01  0.23828863975E+02  0.28562254348E+02  0.37567729681E+02  0.00000000000E+00 0.  1.
         12    1    4    4    0    0 -0.76343591488E+02  0.41070743598E+02 -0.16425719490E+02  0.88232387488E+02  0.00000000000E+00 0. -1.
         -5    1    5    5    0  502  0.29561691074E+02  0.32458260943E+02 -0.79189764839E+02  0.90667199901E+02  0.47000000000E+01 0.  1.
         13    1    6    6    0    0  0.13950695025E+02 -0.46215650862E+01  0.20192668245E+01  0.14834358565E+02  0.00000000000E+00 0. -1.
        -14    1    6    6    0    0 -0.28543257089E+02 -0.11878140429E+03 -0.16213263284E+03  0.20300426144E+03  0.00000000000E+00 0.  1.
</event>
<event>
12    1  0.8633375E-002  0.1916912E+03  0.7818608E-02  0.1157256E+00
         21   -1    0    0  503  502  0.00000000000E+00  0.00000000000E+00  0.47085275506E+03  0.47085275506E+03  0.00000000000E+00 0. -1.
         21   -1    0    0  501  503 -0.00000000000E+00 -0.00000000000E+00 -0.95093023013E+02  0.95093023013E+02  0.00000000000E+00 0. -1.
          6    2    1    2  501    0  0.22588933998E+02 -0.78013258675E+02  0.66636718177E+02  0.20294328859E+03  0.17363524327E+03 0.  0.
         24    2    3    3    0    0  0.13481292863E+02 -0.98042530329E+02  0.10049785202E+03  0.16228880255E+03  0.80272997710E+02 0.  0.
         -6    2    1    2    0  502 -0.22588933998E+02  0.78013258675E+02  0.30912301387E+03  0.36300248949E+03  0.17209718533E+03 0.  0.
        -24    2    5    5    0    0 -0.55196963689E+02  0.17485646801E+00  0.11012741228E+03  0.14680017703E+03  0.79846788695E+02 0.  0.
          5    1    3    3  501    0  0.91076411342E+01  0.20029271654E+02 -0.33861133845E+02  0.40654486042E+02  0.47000000000E+01 0. -1.
        -13    1    4    4    0    0 -0.66224631724E+01 -0.43550310764E+02  0.94043067236E+02  0.10384885691E+03  0.00000000000E+00 0.  1.
         14    1    4    4    0    0  0.20103756036E+02 -0.54492219565E+02  0.64547847863E+01  0.58439945641E+02  0.00000000000E+00 0. -1.
         -5    1    5    5    0  502  0.32608029691E+02  0.77838402207E+02  0.19899560159E+03  0.21620231245E+03  0.47000000000E+01 0.  1.
         11    1    6    6    0    0 -0.23140655171E+02  0.20941029601E+02  0.10341296300E+03  0.10801970912E+03  0.00000000000E+00 0. -1.
        -12    1    6    6    0    0 -0.32056308517E+02 -0.20766173133E+02  0.67144492896E+01  0.38780467914E+02  0.00000000000E+00 0.  1.
</event>
<event>
12    1  0.8633375E-002  0.1899001E+03  0.7818608E-02  0.1158578E+00
         21   -1    0    0  501  502  0.00000000000E+00  0.00000000000E+00  0.17807858472E+03  0.17807858472E+03  0.00000000000E+00 0.  1.
         21   -1    0    0  502  503 -0.00000000000E+00 -0.00000000000E+00 -0.67839748165E+03  0.67839748165E+03  0.00000000000E+00 0. -1.
         -6    2    1    2    0  503 -0.72099525978E+02  0.32773355636E+02 -0.60890108127E+03  0.63782645381E+03  0.17259670893E+03 0.  0.
        -24    2    3    3    0    0 -0.38488946518E+02 -0.48433318261E+02 -0.35732488224E+03  0.37129902774E+03  0.79716442506E+02 0.  0.
          6    2    1    2  501    0  0.72099525978E+02 -0.32773355636E+02  0.10858218433E+03  0.21864961256E+03  0.17246775881E+03 0.  0.
         24    2    5    5    0    0  0.12278921799E+02  0.27430548936E+02  0.10350632133E+03  0.13349757679E+03  0.78770791019E+02 0.  0.
          5    1    5    5  501    0  0.59820604180E+02 -0.60203904572E+02  0.50758630014E+01  0.85152035767E+02  0.47000000000E+01 0. -1.
        -13    1    6    6    0    0 -0.20015027786E+02  0.94255467644E+00  0.85840198965E+02  0.88147770845E+02  0.00000000000E+00 0.  1.
         14    1    6    6    0    0  0.32293949585E+02  0.26487994259E+02  0.17666122364E+02  0.45349805943E+02  0.00000000000E+00 0. -1.
         -5    1    3    3    0  503 -0.33610579461E+02  0.81206673898E+02 -0.25157619902E+03  0.26652742608E+03  0.47000000000E+01 0.  1.
         11    1    4    4    0    0 -0.51744380776E+02 -0.65841507608E+01 -0.24923857461E+03  0.25463836917E+03  0.00000000000E+00 0. -1.
        -12    1    4    4    0    0  0.13255434258E+02 -0.41849167501E+02 -0.10808630764E+03  0.11666065857E+03  0.00000000000E+00 0.  1.
</event>
<event>
12    1  0.8633375E-002  0.1760135E+03  0.7818608E-02  0.1172904E+00
         21   -1    0    0  503  502  0.00000000000E+00  0.00000000000E+00  0.30042751858E+03  0.30042751858E+03  0.00000000000E+00 0.  1.
         21   -1    0    0  501  503 -0.00000000000E+00 -0.00000000000E+00 -0.42857084896E+03  0.42857084896E+03  0.00000000000E+00 0.  1.
          6    2    1    2  501    0  0.27778503849E+02 -0.28138493512E+02 -0.38323096945E+03  0.42171876912E+03  0.17151479291E+03 0.  0.
         24    2    3    3    0    0  0.58803276455E+02 -0.31631992004E+01 -0.36407291564E+03  0.37727303966E+03  0.79486020149E+02 0.  0.
         -6    2    1    2    0  502 -0.27778503849E+02  0.28138493512E+02  0.25508763907E+03  0.30727959841E+03  0.16669621442E+03 0.  0.
        -24    2    5    5    0    0 -0.53328853838E+02 -0.29097964262E+02  0.10856746534E+03  0.14784596397E+03  0.79880387799E+02 0.  0.
          5    1    3    3  501    0 -0.31024772605E+02 -0.24975294312E+02 -0.19158053806E+02  0.44445729455E+02  0.47000000000E+01 0. -1.
        -13    1    4    4    0    0 -0.72461801118E+01 -0.27035011533E+02 -0.12515949459E+03  0.12825091836E+03  0.00000000000E+00 0.  1.
         14    1    4    4    0    0  0.66049456566E+02  0.23871812332E+02 -0.23891342105E+03  0.24902212130E+03  0.00000000000E+00 0. -1.
         -5    1    5    5    0  502  0.25550349989E+02  0.57236457775E+02  0.14652017373E+03  0.15943363444E+03  0.47000000000E+01 0.  1.
         13    1    6    6    0    0 -0.60122233468E+02 -0.45796822579E+02  0.10515582039E+03  0.12949817944E+03  0.00000000000E+00 0. -1.
        -14    1    6    6    0    0  0.67933796303E+01  0.16698858317E+02  0.34116449503E+01  0.18347784530E+02  0.00000000000E+00 0.  1.
</event>
<event>
12    1  0.8633375E-002  0.2155730E+03  0.7818608E-02  0.1137313E+00
         21   -1    0    0  503  502  0.00000000000E+00  0.00000000000E+00  0.19056307152E+03  0.19056307152E+03  0.00000000000E+00 0. -1.
         21   -1    0    0  501  503 -0.00000000000E+00 -0.00000000000E+00 -0.25837285803E+03  0.25837285803E+03  0.00000000000E+00 0.  1.
          6    2    1    2  501    0  0.11456835619E+03  0.58435852753E+02 -0.87980544682E+02  0.23242132712E+03  0.17244836888E+03 0.  0.
         24    2    3    3    0    0  0.80688160089E+01  0.34487425312E+02 -0.84318248289E+02  0.12309986696E+03  0.82398555539E+02 0.  0.
         -6    2    1    2    0  502 -0.11456835619E+03 -0.58435852753E+02  0.20170758179E+02  0.21651460243E+03  0.17300594341E+03 0.  0.
        -24    2    5    5    0    0 -0.12345069268E+03 -0.32103713652E+02  0.64737696211E+02  0.16378340278E+03  0.79770368948E+02 0.  0.
          5    1    3    3  501    0  0.10649954018E+03  0.23948427442E+02 -0.36622963932E+01  0.10932146016E+03  0.47000000000E+01 0. -1.
        -11    1    4    4    0    0  0.38508785349E+02  0.43349503377E+02 -0.54237060068E+02  0.79396251025E+02  0.00000000000E+00 0.  1.
         12    1    4    4    0    0 -0.30439969340E+02 -0.88620780653E+01 -0.30081188221E+02  0.43703615936E+02  0.00000000000E+00 0. -1.
         -5    1    5    5    0  502  0.88823364920E+01 -0.26332139101E+02 -0.44566938031E+02  0.52731199652E+02  0.47000000000E+01 0.  1.
         11    1    6    6    0    0 -0.58189178149E+01  0.11950676713E+02  0.30986969941E+02  0.33717514507E+02  0.00000000000E+00 0. -1.
        -12    1    6    6    0    0 -0.11763177487E+03 -0.44054390365E+02  0.33750726270E+02  0.13006588827E+03  0.00000000000E+00 0.  1.
</event>
<event>
12    1  0.8633375E-002  0.2015995E+03  0.7818608E-02  0.1148612E+00
         21   -1    0    0  503  502  0.00000000000E+00  0.00000000000E+00  0.11540046888E+04  0.11540046888E+04  0.00000000000E+00 0.  1.
         21   -1    0    0  501  503 -0.00000000000E+00 -0.00000000000E+00 -0.36531282231E+02  0.36531282231E+02  0.00000000000E+00 0.  1.
          6    2    1    2  501    0  0.92336705748E+02 -0.49758215265E+02  0.68043874823E+03  0.70967546667E+03  0.17216396454E+03 0.  0.
         24    2    3    3    0    0  0.13782520329E+02  0.26735998567E+01  0.14469248870E+03  0.16564789395E+03  0.79411601668E+02 0.  0.
         -6    2    1    2    0  502 -0.92336705748E+02  0.49758215265E+02  0.43703465839E+03  0.48086050441E+03  0.17095492053E+03 0.  0.
        -24    2    5    5    0    0 -0.91303844571E+02 -0.21675485923E+02  0.32964790212E+03  0.35179522678E+03  0.79283816070E+02 0.  0.
          5    1    3    3  501    0  0.78554185420E+02 -0.52431815122E+02  0.53574625952E+03  0.54402757272E+03  0.47000000000E+01 0. -1.
        -13    1    4    4    0    0 -0.12206042756E+02 -0.30941786779E+02  0.92788111831E+02  0.98569850086E+02  0.00000000000E+00 0.  1.
         14    1    4    4    0    0  0.25988563085E+02  0.33615386635E+02  0.51904376871E+02  0.67078043861E+02  0.00000000000E+00 0. -1.
         -5    1    5    5    0  502 -0.10328611777E+01  0.71433701188E+02  0.10738675627E+03  0.12906527763E+03  0.47000000000E+01 0.  1.
         11    1    6    6    0    0  0.13895594387E+02  0.23979742670E+01  0.52983495567E+02  0.54827808878E+02  0.00000000000E+00 0. -1.
        -12    1    6    6    0    0 -0.10519943896E+03 -0.24073460190E+02  0.27666440656E+03  0.29696741791E+03  0.00000000000E+00 0.  1.
</event>
<event>
12    1  0.8633375E-002  0.2345468E+03  0.7818608E-02  0.1123632E+00
         21   -1    0    0  501  502  0.00000000000E+00  0.00000000000E+00  0.66477057956E+03  0.66477057956E+03  0.00000000000E+00 0.  1.
         21   -1    0    0  502  503 -0.00000000000E+00 -0.00000000000E+00 -0.89439023285E+02  0.89439023285E+02  0.00000000000E+00 0. -1.
         -6    2    1    2    0  503  0.53770604310E+02 -0.15128357513E+03  0.18268912939E+03  0.29730041444E+03  0.17098017557E+03 0.  0.
        -24    2    3    3    0    0  0.21855197873E+02 -0.81985769547E+02  0.36435677750E+02  0.13227635213E+03  0.94710921422E+02 0.  0.
          6    2    1    2  501    0 -0.53770604310E+02  0.15128357513E+03  0.39264242689E+03  0.45690918840E+03  0.16976434568E+03 0.  0.
         24    2    5    5    0    0 -0.33564767004E+02  0.94935928509E+01  0.18801311650E+03  0.20709341707E+03  0.79511191218E+02 0.  0.
          5    1    5    5  501    0 -0.20205837306E+02  0.14178998228E+03  0.20462931039E+03  0.24981577134E+03  0.47000000000E+01 0. -1.
        -11    1    6    6    0    0  0.90931870623E+00  0.15664168285E+02  0.16372133692E+03  0.16447148443E+03  0.00000000000E+00 0.  1.
         12    1    6    6    0    0 -0.34474085710E+02 -0.61705754339E+01  0.24291779580E+02  0.42621932639E+02  0.00000000000E+00 0. -1.
         -5    1    3    3    0  503  0.31915406436E+02 -0.69297805585E+02  0.14625345164E+03  0.16502406231E+03  0.47000000000E+01 0.  1.
         11    1    4    4    0    0  0.42157365928E+02 -0.62667116480E+02 -0.11845765865E+02  0.76450854533E+02  0.00000000000E+00 0. -1.
        -12    1    4    4    0    0 -0.20302168055E+02 -0.19318653067E+02  0.48281443615E+02  0.55825497593E+02  0.00000000000E+00 0.  1.
</event>
<event>
12    1  0.8633375E-002  0.1965593E+03  0.7818608E-02  0.1153041E+00
         21   -1    0    0  503  502  0.00000000000E+00  0.00000000000E+00  0.62072160075E+02  0.62072160075E+02  0.00000000000E+00 0. -1.
         21   -1    0    0  501  503 -0.00000000000E+00 -0.00000000000E+00 -0.62002207929E+03  0.62002207929E+03  0.00000000000E+00 0. -1.
          6    2    1    2  501    0  0.29622288113E+02 -0.89520425437E+02 -0.30122744938E+03  0.35876469313E+03  0.17053663023E+03 0.  0.
         24    2    3    3    0    0  0.68935009533E+02 -0.72662724786E+02 -0.13109447838E+03  0.18327398124E+03  0.79822821452E+02 0.  0.
         -6    2    1    2    0  502 -0.29622288113E+02  0.89520425437E+02 -0.25672246983E+03  0.32332954624E+03  0.17246501799E+03 0.  0.
        -24    2    5    5    0    0 -0.57239777542E+02  0.96050374461E+02 -0.11529964593E+03  0.17901090199E+03  0.79049529490E+02 0.  0.
          5    1    3    3  501    0 -0.39312721421E+02 -0.16857700650E+02 -0.17013297100E+03  0.17549071189E+03  0.47000000000E+01 0. -1.
        -13    1    4    4    0    0  0.27033817106E+02 -0.79603327171E+02 -0.99962014935E+02  0.13061363403E+03  0.00000000000E+00 0.  1.
         14    1    4    4    0    0  0.41901192427E+02  0.69406023841E+01 -0.31132463445E+02  0.52660347212E+02  0.00000000000E+00 0. -1.
         -5    1    5    5    0  502  0.27617489429E+02 -0.65299490244E+01 -0.14142282391E+03  0.14431864425E+03  0.47000000000E+01 0.  1.
         11    1    6    6    0    0 -0.66205325136E+02  0.69940106727E+02 -0.11677562374E+03  0.15136482387E+03  0.00000000000E+00 0. -1.
        -12    1    6    6    0    0  0.89655475943E+01  0.26110267735E+02  0.14759778129E+01  0.27646078119E+02  0.00000000000E+00 0.  1.
</event>
<event>
12    1  0.8633375E-002  0.1830605E+03  0.7818608E-02  0.1165012E+00
         21   -1    0    0  503  502  0.00000000000E+00  0.00000000000E+00  0.20043195489E+03  0.20043195489E+03  0.00000000000E+00 0. -1.
         21   -1    0    0  501  503 -0.00000000000E+00 -0.00000000000E+00 -0.16690026965E+03  0.16690026965E+03  0.00000000000E+00 0.  1.
          6    2    1    2  501    0 -0.48385958719E+02  0.31770376384E+02  0.97683115887E+01  0.18273579989E+03  0.17305026678E+03 0.  0.
         24    2    3    3    0    0 -0.84558632218E+02  0.64652237479E+02  0.13465809571E+02  0.13348703758E+03  0.79419059941E+02 0.  0.
         -6    2    1    2    0  502  0.48385958719E+02 -0.31770376384E+02  0.23763373652E+02  0.18459642466E+03  0.17366802887E+03 0.  0.
        -24    2    5    5    0    0  0.52174105201E+02  0.73187081875E+00  0.77000167693E+02  0.12193070543E+03  0.78837796853E+02 0.  0.
          5    1    3    3  501    0  0.36172673499E+02 -0.32881861095E+02 -0.36974979826E+01  0.49248762304E+02  0.47000000000E+01 0. -1.
        -11    1    4    4    0    0 -0.53697467011E+02  0.11837910009E+02 -0.25862278917E+02  0.60765216593E+02  0.00000000000E+00 0.  1.
         12    1    4    4    0    0 -0.30861165207E+02  0.52814327470E+02  0.39328088489E+02  0.72721820991E+02  0.00000000000E+00 0. -1.
         -5    1    5    5    0  502 -0.37881464814E+01 -0.32502247203E+02 -0.53236794041E+02  0.62665719231E+02  0.47000000000E+01 0.  1.
         11    1    6    6    0    0  0.25971110655E+02 -0.35925991525E+02  0.18370596284E+02  0.47985979864E+02  0.00000000000E+00 0. -1.
        -12    1    6    6    0    0  0.26202994546E+02  0.36657862344E+02  0.58629571409E+02  0.73944725562E+02  0.00000000000E+00 0.  1.
</event>
<event>
12    1  0.8633375E-002  0.2103867E+03  0.7818608E-02  0.1141266E+00
         21   -1    0    0  501  502  0.00000000000E+00  0.00000000000E+00  0.18415595850E+03  0.18415595850E+03  0.00000000000E+00 0.  1.
         21   -1    0    0  502  503 -0.00000000000E+00 -0.00000000000E+00 -0.25643941656E+03  0.25643941656E+03  0.00000000000E+00 0.  1.
         -6    2    1    2    0  503  0.59311730266E+02 -0.10609528639E+03 -0.91374507330E+02  0.22934424181E+03  0.17168398154E+03 0.  0.
        -24    2    3    3    0    0  0.74379676235E+02 -0.11496979567E+03 -0.26171362325E+02  0.16167342070E+03  0.81871634905E+02 0.  0.
          6    2    1    2  501    0 -0.59311730266E+02  0.10609528639E+03  0.19091049272E+02  0.21125113326E+03  0.17172210690E+03 0.  0.
         24    2    5    5    0    0 -0.33227736640E+02  0.36869240020E+02  0.73685738211E+02  0.11918979349E+03  0.79455619773E+02 0.  0.
          5    1    5    5  501    0 -0.26083993626E+02  0.69226046375E+02 -0.54594688939E+02  0.92061339771E+02  0.47000000000E+01 0. -1.
        -13    1    6    6    0    0  0.20597016163E+01  0.41899476188E+02  0.55788342734E+01  0.42319402966E+02  0.00000000000E+00 0.  1.
         14    1    6    6    0    0 -0.35287438257E+02 -0.50302361679E+01  0.68106903937E+02  0.76870390519E+02  0.00000000000E+00 0. -1.
         -5    1    3    3    0  503 -0.15067945969E+02  0.88745092763E+01 -0.65203145005E+02  0.67670821106E+02  0.47000000000E+01 0.  1.
         11    1    4    4    0    0  0.29141999609E+02 -0.44711818653E+02  0.29772700713E+02  0.61113145691E+02  0.00000000000E+00 0. -1.
        -12    1    4    4    0    0  0.45237676626E+02 -0.70257977018E+02 -0.55944063038E+02  0.10056027501E+03  0.00000000000E+00 0.  1.
</event>
<event>
12    1  0.8633375E-002  0.2880700E+03  0.7818608E-02  0.1091831E+00
         21   -1    0    0  503  502  0.00000000000E+00  0.00000000000E+00  0.16584904477E+03  0.16584904477E+03  0.00000000000E+00 0. -1.
         21   -1    0    0  501  503 -0.00000000000E+00 -0.00000000000E+00 -0.52725434918E+03  0.52725434918E+03  0.00000000000E+00 0. -1.
          6    2    1    2  501    0  0.21586059474E+03  0.83388762631E+02 -0.26638907898E+03  0.38976793232E+03  0.16554883741E+03 0.  0.
         24    2    3    3    0    0  0.22617588742E+03  0.46671354576E+02 -0.24402582969E+03  0.34530695801E+03  0.79715383132E+02 0.  0.
         -6    2    1    2    0  502 -0.21586059474E+03 -0.83388762631E+02 -0.95016225428E+02  0.30333546163E+03  0.17156583894E+03 0.  0.
        -24    2    5    5    0    0 -0.24187757345E+02 -0.33993523623E+02 -0.23812493688E+02  0.92930072806E+02  0.79550966823E+02 0.  0.
          5    1    3    3  501    0 -0.10315292680E+02  0.36717408055E+02 -0.22363249294E+02  0.44460974307E+02  0.47000000000E+01 0. -1.
        -11    1    4    4    0    0  0.31482768802E+02  0.43042366651E+00 -0.81966436168E+02  0.87805732467E+02  0.00000000000E+00 0.  1.
         12    1    4    4    0    0  0.19469311862E+03  0.46240930909E+02 -0.16205939352E+03  0.25750122555E+03  0.00000000000E+00 0. -1.
         -5    1    5    5    0  502 -0.19167283740E+03 -0.49395239008E+02 -0.71203731740E+02  0.21040538883E+03  0.47000000000E+01 0.  1.
         11    1    6    6    0    0 -0.17865583456E+02  0.11615134183E+02 -0.39002722113E+02  0.44444378120E+02  0.00000000000E+00 0. -1.
        -12    1    6    6    0    0 -0.63221738898E+01 -0.45608657806E+02  0.15190228425E+02  0.48485694686E+02  0.00000000000E+00 0.  1.
</event>
<event>
12    1  0.8633375E-002  0.1810083E+03  0.7818608E-02  0.1167551E+00
         21   -1    0    0  501  502  0.00000000000E+00  0.00000000000E+00  0.60869164786E+03  0.60869164786E+03  0.00000000000E+00 0.  1.
         21   -1    0    0  502  503 -0.00000000000E+00 -0.00000000000E+00 -0.56951526481E+02  0.56951526481E+02  0.00000000000E+00 0.  1.
         -6    2    1    2    0  503 -0.34995801417E+02 -0.29062395546E+02  0.18974341232E+03  0.26223378353E+03  0.17519893194E+03 0.  0.
        -24    2    3    3    0    0  0.47199625109E+02 -0.31222850832E+02  0.10978319388E+03  0.14744492413E+03  0.80529404370E+02 0.  0.
          6    2    1    2  501    0  0.34995801417E+02  0.29062395546E+02  0.36199670905E+03  0.40340939081E+03  0.17212841217E+03 0.  0.
         24    2    5    5    0    0 -0.43167883812E+02 -0.48866016296E+00  0.15022712874E+03  0.17570064761E+03  0.80242273026E+02 0.  0.
          5    1    5    5  501    0  0.78163685229E+02  0.29551055709E+02  0.21176958031E+03  0.22770874320E+03  0.47000000000E+01 0. -1.
        -13    1    6    6    0    0  0.30323912740E+00 -0.67986449870E+01 -0.85680225563E+01  0.10941870871E+02  0.00000000000E+00 0.  1.
         14    1    6    6    0    0 -0.43471122940E+02  0.63099848240E+01  0.15879515130E+03  0.16475877674E+03  0.00000000000E+00 0. -1.
         -5    1    3    3    0  503 -0.82195426526E+02  0.21604552856E+01  0.79960218436E+02  0.11478885939E+03  0.47000000000E+01 0.  1.
         11    1    4    4    0    0  0.42542708094E+01 -0.45072718895E+02  0.25803434945E+02  0.52110133982E+02  0.00000000000E+00 0. -1.
        -12    1    4    4    0    0  0.42945354299E+02  0.13849868063E+02  0.83979758939E+02  0.95334790149E+02  0.00000000000E+00 0.  1.
</event>
<event>
12    1  0.8633375E-002  0.1743183E+03  0.7818608E-02  0.1173981E+00
         21   -1    0    0  503  502  0.00000000000E+00  0.00000000000E+00  0.20923360326E+03  0.20923360326E+03  0.00000000000E+00 0. -1.
         21   -1    0    0  501  503 -0.00000000000E+00 -0.00000000000E+00 -0.25167170048E+03  0.25167170048E+03  0.00000000000E+00 0. -1.
          6    2    1    2  501    0 -0.10796257962E+02  0.10467018495E+02 -0.17230166409E+03  0.24353139032E+03  0.17144549268E+03 0.  0.
         24    2    3    3    0    0  0.11579499739E+01  0.69279523129E+02 -0.88592844336E+02  0.14042430864E+03  0.84079136627E+02 0.  0.
         -6    2    1    2    0  502  0.10796257962E+02 -0.10467018495E+02  0.12986356687E+03  0.21737391342E+03  0.17366851923E+03 0.  0.
        -24    2    5    5    0    0  0.18521918806E+02  0.61420604045E+02  0.72351763977E+02  0.12486870501E+03  0.79005466030E+02 0.  0.
          5    1    3    3  501    0 -0.11954207935E+02 -0.58812504634E+02 -0.83708819756E+02  0.10310708168E+03  0.47000000000E+01 0. -1.
        -11    1    4    4    0    0 -0.38418499154E+02  0.39601413829E+02 -0.27002963987E+02  0.61428113422E+02  0.00000000000E+00 0.  1.
         12    1    4    4    0    0  0.39576449128E+02  0.29678109300E+02 -0.61589880349E+02  0.78996195216E+02  0.00000000000E+00 0. -1.
         -5    1    5    5    0  502 -0.77256608442E+01 -0.71887622540E+02  0.57511802895E+02  0.92505208406E+02  0.47000000000E+01 0.  1.
         11    1    6    6    0    0 -0.50940607846E+01  0.33349382229E+02  0.80506519282E+02  0.87289348704E+02  0.00000000000E+00 0. -1.
        -12    1    6    6    0    0  0.23615979590E+02  0.28071221816E+02 -0.81547553046E+01  0.37579356306E+02  0.00000000000E+00 0.  1.
</event>
<event>
12    1  0.8633375E-002  0.1801107E+03  0.7818608E-02  0.1167807E+00
         21   -1    0    0  501  502  0.00000000000E+00  0.00000000000E+00  0.62546799727E+02  0.62546799727E+02  0.00000000000E+00 0. -1.
         21   -1    0    0  502  503 -0.00000000000E+00 -0.00000000000E+00 -0.55441798730E+03  0.55441798730E+03  0.00000000000E+00 0. -1.
         -6    2    1    2    0  503  0.25166723506E+02  0.44022198746E+02 -0.32542643288E+03  0.37172263538E+03  0.17234859003E+03 0.  0.
        -24    2    3    3    0    0  0.60592433749E+02  0.78179763933E+02 -0.19427889716E+03  0.23156741311E+03  0.78074697665E+02 0.  0.
          6    2    1    2  501    0 -0.25166723506E+02 -0.44022198746E+02 -0.16644475469E+03  0.24524215164E+03  0.17282516779E+03 0.  0.
         24    2    5    5    0    0 -0.20049423419E+02  0.42692723316E+02 -0.91913713628E+02  0.13068810086E+03  0.80041245305E+02 0.  0.
          5    1    5    5  501    0 -0.51173000866E+01 -0.86714922062E+02 -0.74531041062E+02  0.11455405078E+03  0.47000000000E+01 0. -1.
        -13    1    6    6    0    0  0.14925471629E+02  0.48365917102E+02 -0.28608933774E+02  0.58142090882E+02  0.00000000000E+00 0.  1.
         14    1    6    6    0    0 -0.34974895048E+02 -0.56731937858E+01 -0.63304779854E+02  0.72546009978E+02  0.00000000000E+00 0. -1.
         -5    1    3    3    0  503 -0.35425710244E+02 -0.34157565187E+02 -0.13114753572E+03  0.14015522227E+03  0.47000000000E+01 0.  1.
         13    1    4    4    0    0  0.96937407628E+01  0.17966228217E+02 -0.12486108920E+03  0.12651895337E+03  0.00000000000E+00 0. -1.
        -14    1    4    4    0    0  0.50898692986E+02  0.60213535716E+02 -0.69417807968E+02  0.10504845974E+03  0.00000000000E+00 0.  1.
</event>
<event>
12    1  0.8633375E-002  0.2007234E+03  0.7818608E-02  0.1149244E+00
         21   -1    0    0  503  502  0.00000000000E+00  0.00000000000E+00  0.14218871192E+03  0.14218871192E+03  0.00000000000E+00 0. -1.
         21   -1    0    0  501  503 -0.00000000000E+00 -0.00000000000E+00 -0.92795125797E+03  0.92795125797E+03  0.00000000000E+00 0. -1.
          6    2    1    2  501    0  0.31333845460E+02  0.98676415178E+02 -0.83893922181E+03  0.86249212525E+03  0.17133243548E+03 0.  0.
         24    2    3    3    0    0 -0.16321626396E+02  0.10779195404E+02 -0.56240304623E+03  0.56839807287E+03  0.79978723994E+02 0.  0.
         -6    2    1    2    0  502 -0.31333845460E+02 -0.98676415178E+02  0.53176675764E+02  0.20764784464E+03  0.17196227422E+03 0.  0.
        -24    2    5    5    0    0  0.18510924536E+02 -0.85003206613E+02 -0.17025182343E+02  0.12034464533E+03  0.81392735324E+02 0.  0.
          5    1    3    3  501    0  0.47655471855E+02  0.87897219775E+02 -0.27653617558E+03  0.29409405239E+03  0.47000000000E+01 0. -1.
        -13    1    4    4    0    0 -0.13590921939E+02 -0.31962375925E+02 -0.16023687144E+03  0.16395780434E+03  0.00000000000E+00 0.  1.
         14    1    4    4    0    0 -0.27307044569E+01  0.42741571328E+02 -0.40216617478E+03  0.40444026853E+03  0.00000000000E+00 0. -1.
         -5    1    5    5    0  502 -0.49844769996E+02 -0.13673208566E+02  0.70201858107E+02  0.87303199312E+02  0.47000000000E+01 0.  1.
         11    1    6    6    0    0 -0.19779800663E+02 -0.62809512743E+02  0.12656164358E+02  0.67055603059E+02  0.00000000000E+00 0. -1.
        -12    1    6    6    0    0  0.38290725200E+02 -0.22193693869E+02 -0.29681346701E+02  0.53289042268E+02  0.00000000000E+00 0.  1.
</event>
<event>
12    1  0.8633375E-002  0.1739448E+03  0.7818608E-02  0.1173800E+00
         21   -1    0    0  503  502  0.00000000000E+00  0.00000000000E+00  0.91329314773E+03  0.91329314773E+03  0.00000000000E+00 0. -1.
         21   -1    0    0  501  503 -0.00000000000E+00 -0.00000000000E+00 -0.34039087450E+02  0.34039087450E+02  0.00000000000E+00 0. -1.
          6    2    1    2  501    0  0.18583284849E+02 -0.20065708443E+02  0.36206095733E+03  0.40167766587E+03  0.17178137065E+03 0.  0.
         24    2    3    3    0    0 -0.32189473553E+02  0.34009100698E+02  0.22096156188E+03  0.24220012082E+03  0.87430575640E+02 0.  0.
         -6    2    1    2    0  502 -0.18583284849E+02  0.20065708443E+02  0.51719310295E+03  0.54565456931E+03  0.17176213827E+03 0.  0.
        -24    2    5    5    0    0 -0.73298033638E+02 -0.47245944444E+01  0.26173276011E+03  0.28318487656E+03  0.79339227793E+02 0.  0.
          5    1    3    3  501    0  0.50772758401E+02 -0.54074809141E+02  0.14109939545E+03  0.15947754505E+03  0.47000000000E+01 0. -1.
        -11    1    4    4    0    0 -0.40124135351E+02 -0.63658056423E+01  0.17852994783E+03  0.18309399769E+03  0.00000000000E+00 0.  1.
         12    1    4    4    0    0  0.79346617984E+01  0.40374906340E+02  0.42431614057E+02  0.59106123129E+02  0.00000000000E+00 0. -1.
         -5    1    5    5    0  502  0.54714748789E+02  0.24790302888E+02  0.25546034284E+03  0.26246969276E+03  0.47000000000E+01 0.  1.
         11    1    6    6    0    0 -0.62414005362E+02 -0.34757233218E+02  0.21515818541E+03  0.22670822233E+03  0.00000000000E+00 0. -1.
        -12    1    6    6    0    0 -0.10884028276E+02  0.30032638774E+02  0.46574574704E+02  0.56476654222E+02  0.00000000000E+00 0.  1.
</event>
<event>
12    1  0.8633375E-002  0.1808179E+03  0.7818608E-02  0.1167149E+00
         21   -1    0    0  501  502  0.00000000000E+00  0.00000000000E+00  0.59225368599E+03  0.59225368599E+03  0.00000000000E+00 0. -1.
         21   -1    0    0  502  503 -0.00000000000E+00 -0.00000000000E+00 -0.11248564985E+03  0.11248564985E+03  0.00000000000E+00 0.  1.
         -6    2    1    2    0  503 -0.56935888002E+02 -0.75893283635E+00 -0.11761515200E+02  0.18120005993E+03  0.17161834738E+03 0.  0.
        -24    2    3    3    0    0 -0.23273363475E+02 -0.65768384952E+02 -0.17891649777E+02  0.10758577482E+03  0.79921573471E+02 0.  0.
          6    2    1    2  501    0  0.56935888002E+02  0.75893283635E+00  0.49152955134E+03  0.52353927591E+03  0.17102573566E+03 0.  0.
         24    2    5    5    0    0  0.77014566628E+02 -0.34763453493E+02  0.21989831169E+03  0.24882012182E+03  0.80102711384E+02 0.  0.
          5    1    5    5  501    0 -0.20078678625E+02  0.35522386330E+02  0.27163123966E+03  0.27471915409E+03  0.47000000000E+01 0. -1.
        -11    1    6    6    0    0  0.45600678679E+02 -0.40363795682E+02  0.59012716189E+02  0.84800699112E+02  0.00000000000E+00 0.  1.
         12    1    6    6    0    0  0.31413887948E+02  0.56003421890E+01  0.16088559550E+03  0.16401942271E+03  0.00000000000E+00 0. -1.
         -5    1    3    3    0  503 -0.33662524527E+02  0.65009452116E+02  0.61301345776E+01  0.73614285107E+02  0.47000000000E+01 0.  1.
         11    1    4    4    0    0 -0.61085714073E+01 -0.58384728794E+02  0.22668757895E+02  0.62928243146E+02  0.00000000000E+00 0. -1.
        -12    1    4    4    0    0 -0.17164792068E+02 -0.73836561582E+01 -0.40560407672E+02  0.44657531677E+02  0.00000000000E+00 0.  1.
</event>
