<event>
12    1  0.8113184E-002  0.2166805E+03  0.7818608E-02  0.1136460E+00
         21   -1    0    0  501  502  0.00000000000E+00  0.00000000000E+00  0.13183320800E+04  0.13183320800E+04  0.00000000000E+00 0. -1.
         21   -1    0    0  502  503 -0.00000000000E+00 -0.00000000000E+00 -0.37623467887E+02  0.37623467887E+02  0.00000000000E+00 0. -1.
         -6    2    1    2    0  503  0.96393874380E+02  0.89673361759E+02  0.48163509431E+03  0.52813142145E+03  0.17209690126E+03 0.  0.
        -24    2    3    3    0    0  0.23846636657E+00  0.77684465463E+02  0.32944509579E+03  0.34765017097E+03  0.79319841128E+02 0.  0.
          6    2    1    2  501    0 -0.96393874380E+02 -0.89673361759E+02  0.79907351784E+03  0.82782412647E+03  0.17158440090E+03 0.  0.
         24    2    5    5    0    0 -0.86481669761E+02 -0.12325769144E+02  0.63647237081E+03  0.64742976709E+03  0.80232292213E+02 0.  0.
          5    1    5    5  501    0 -0.99122046188E+01 -0.77347592614E+02  0.16260114703E+03  0.18039435939E+03  0.47000000000E+01 0. -1.
        -11    1    6    6    0    0 -0.59322931254E+02 -0.36265336946E+02  0.53872350189E+03  0.54319185959E+03  0.00000000000E+00 0.  1.
         12    1    6    6    0    0 -0.27158738506E+02  0.23939567802E+02  0.97748868925E+02  0.10423790750E+03  0.00000000000E+00 0. -1.
         -5    1    3    3    0  503  0.96155408013E+02  0.11988896295E+02  0.15218999852E+03  0.18048125048E+03  0.47000000000E+01 0.  1.
         13    1    4    4    0    0 -0.14857710375E+02  0.86199122459E+02  0.21847237099E+03  0.23533214221E+03  0.00000000000E+00 0. -1.
        -14    1    4    4    0    0  0.15096176742E+02 -0.85146569960E+01  0.11097272480E+03  0.11231802876E+03  0.00000000000E+00 0.  1.
</event>
<event>
12    1  0.8113184E-002  0.2059786E+03  0.7818608E-02  0.1145430E+00
         21   -1    0    0  503  502  0.00000000000E+00  0.00000000000E+00  0.31604603696E+03  0.31604603696E+03  0.00000000000E+00 0.  1.
         21   -1    0    0  501  503 -0.00000000000E+00 -0.00000000000E+00 -0.13318729626E+03  0.13318729626E+03  0.00000000000E+00 0. -1.
          6    2    1    2  501    0 -0.62132632489E+01  0.10686015356E+03  0.72939491003E+02  0.21851167578E+03  0.17598149348E+03 0.  0.
         24    2    3    3    0    0 -0.51166275319E+02  0.10543051634E+03  0.90875499268E+02  0.16986388499E+03  0.82835991878E+02 0.  0.
         -6    2    1    2    0  502  0.62132632489E+01 -0.10686015356E+03  0.10991924971E+03  0.23072165744E+03  0.17231524800E+03 0.  0.
        -24    2    5    5    0    0 -0.19124249755E+02 -0.13114704119E+03  0.52505179685E+02  0.16326568726E+03  0.79583964473E+02 0.  0.
          5    1    3    3  501    0  0.44953012070E+02  0.14296372223E+01 -0.17936008264E+02  0.48647790794E+02  0.47000000000E+01 0. -1.
        -13    1    4    4    0    0 -0.41969242080E+02  0.48821083093E+01  0.31813702151E+02  0.52890111617E+02  0.00000000000E+00 0.  1.
         14    1    4    4    0    0 -0.91970332387E+01  0.10054840803E+03  0.59061797117E+02  0.11697377337E+03  0.00000000000E+00 0. -1.
         -5    1    5    5    0  502  0.25337513004E+02  0.24286887628E+02  0.57414070020E+02  0.67455970174E+02  0.47000000000E+01 0.  1.
         11    1    6    6    0    0 -0.50514007288E+00 -0.12227607473E+03  0.18747023022E+02  0.12370587896E+03  0.00000000000E+00 0. -1.
        -12    1    6    6    0    0 -0.18619109682E+02 -0.88709664620E+01  0.33758156663E+02  0.39559808298E+02  0.00000000000E+00 0.  1.
</event>
<event>
12    1  0.8113184E-002  0.1772886E+03  0.7818608E-02  0.1170934E+00
         21   -1    0    0  503  502  0.00000000000E+00  0.00000000000E+00  0.44906261458E+02  0.44906261458E+02  0.00000000000E+00 0.  1.
         21   -1    0    0  501  503 -0.00000000000E+00 -0.00000000000E+00 -0.81611313519E+03  0.81611313519E+03  0.00000000000E+00 0.  1.
          6    2    1    2  501    0  0.27270556301E+02  0.21490152247E+02 -0.21972104982E+03  0.28232709210E+03  0.17385550700E+03 0.  0.
         24    2    3    3    0    0  0.46068248752E+02  0.11423600462E+02 -0.39469732236E+02  0.10075805235E+03  0.79633806636E+02 0.  0.
         -6    2    1    2    0  502 -0.27270556301E+02 -0.21490152247E+02 -0.55148582391E+03  0.57869230454E+03  0.17187978206E+03 0.  0.
        -24    2    5    5    0    0 -0.24389743074E+02 -0.44965148344E+02 -0.15493262018E+03  0.18140662910E+03  0.79293909932E+02 0.  0.
          5    1    3    3  501    0 -0.18797692451E+02  0.10066551785E+02 -0.18025131758E+03  0.18156903975E+03  0.47000000000E+01 0. -1.
        -13    1    4    4    0    0 -0.15143574782E+01  0.34550205358E+02 -0.32387607947E+02  0.47381083961E+02  0.00000000000E+00 0.  1.
         14    1    4    4    0    0  0.47582606230E+02 -0.23126604895E+02 -0.70821242897E+01  0.53376968386E+02  0.00000000000E+00 0. -1.
         -5    1    5    5    0  502 -0.28808132272E+01  0.23474996097E+02 -0.39655320373E+03  0.39728567544E+03  0.47000000000E+01 0.  1.
         11    1    6    6    0    0 -0.31027879266E+02 -0.57178253719E+02 -0.15434388822E+03  0.16749363516E+03  0.00000000000E+00 0. -1.
        -12    1    6    6    0    0  0.66381361924E+01  0.12213105375E+02 -0.58873196643E+00  0.13912993939E+02  0.00000000000E+00 0.  1.
</event>
<event>
12    1  0.8113184E-002  0.1998407E+03  0.7818608E-02  0.1149989E+00
         21   -1    0    0  503  502  0.00000000000E+00  0.00000000000E+00  0.17031751813E+03  0.17031751813E+03  0.00000000000E+00 0.  1.
         21   -1    0    0  501  503 -0.00000000000E+00 -0.00000000000E+00 -0.39909263220E+03  0.39909263220E+03  0.00000000000E+00 0.  1.
          6    2    1    2  501    0  0.29501550368E+02  0.97082989993E+02 -0.29768276076E+03  0.35854057856E+03  0.17216524620E+03 0.  0.
         24    2    3    3    0    0  0.16797983401E+02  0.74877782823E+02 -0.31039789793E+03  0.32958860881E+03  0.79955871618E+02 0.  0.
         -6    2    1    2    0  502 -0.29501550368E+02 -0.97082989993E+02  0.68907646691E+02  0.21086957177E+03  0.17152919316E+03 0.  0.
        -24    2    5    5    0    0 -0.72912893741E+02 -0.10677956212E+03  0.39578861173E+02  0.15738278925E+03  0.80527580005E+02 0.  0.
          5    1    3    3  501    0  0.12703566967E+02  0.22205207170E+02  0.12715137173E+02  0.28951969751E+02  0.47000000000E+01 0. -1.
        -13    1    4    4    0    0  0.51367715053E+01 -0.55345232608E+01 -0.14611665205E+03  0.14631163103E+03  0.00000000000E+00 0.  1.
         14    1    4    4    0    0  0.11661211896E+02  0.80412306084E+02 -0.16428124588E+03  0.18327697777E+03  0.00000000000E+00 0. -1.
         -5    1    5    5    0  502  0.43411343373E+02  0.96965721246E+01  0.29328785518E+02  0.53486782520E+02  0.47000000000E+01 0.  1.
         11    1    6    6    0    0 -0.31725406690E+02 -0.74402489152E+01 -0.16031014220E+02  0.36316004054E+02  0.00000000000E+00 0. -1.
        -12    1    6    6    0    0 -0.41187487052E+02 -0.99339313202E+02  0.55609875393E+02  0.12106678520E+03  0.00000000000E+00 0.  1.
</event>
<event>
12    1  0.8113184E-002  0.1854391E+03  0.7818608E-02  0.1162783E+00
         21   -1    0    0  501  502  0.00000000000E+00  0.00000000000E+00  0.17918927200E+03  0.17918927200E+03  0.00000000000E+00 0. -1.
         21   -1    0    0  502  503 -0.00000000000E+00 -0.00000000000E+00 -0.19619689786E+03  0.19619689786E+03  0.00000000000E+00 0. -1.
         -6    2    1    2    0  503  0.66860971756E+02 -0.56390045954E-01 -0.38246977956E+02  0.18934225290E+03  0.17296607959E+03 0.  0.
        -24    2    3    3    0    0  0.53064544753E+02 -0.58253946673E+02  0.16696895544E+02  0.10798983296E+03  0.71928085541E+02 0.  0.
          6    2    1    2  501    0 -0.66860971756E+02  0.56390045954E-01  0.21239352091E+02  0.18604391696E+03  0.17231029057E+03 0.  0.
         24    2    5    5    0    0 -0.12473740785E+02  0.59336676242E+02  0.20684775368E+02  0.10545532732E+03  0.83764734658E+02 0.  0.
          5    1    5    5  501    0 -0.54387230971E+02 -0.59280286196E+02  0.55457672387E+00  0.80588589636E+02  0.47000000000E+01 0. -1.
        -13    1    6    6    0    0  0.19495500809E+02 -0.10877249138E+02  0.17279790247E+02  0.28230838662E+02  0.00000000000E+00 0.  1.
         14    1    6    6    0    0 -0.31969241594E+02  0.70213925380E+02  0.34049851208E+01  0.77224488661E+02  0.00000000000E+00 0. -1.
         -5    1    3    3    0  503  0.13796427004E+02  0.58197556627E+02 -0.54943873499E+02  0.81352419943E+02  0.47000000000E+01 0.  1.
         13    1    4    4    0    0  0.57172866104E+02 -0.34972663419E+02 -0.14772402934E+02  0.68629787218E+02  0.00000000000E+00 0. -1.
        -14    1    4    4    0    0 -0.41083213507E+01 -0.23281283254E+02  0.31469298478E+02  0.39360045744E+02  0.00000000000E+00 0.  1.
</event>
<event>
12    1  0.8113184E-002  0.2199914E+03  0.7818608E-02  0.1134537E+00
         21   -1    0    0  501  502  0.00000000000E+00  0.00000000000E+00  0.12373528416E+04  0.12373528416E+04  0.00000000000E+00 0.  1.
         21   -1    0    0  502  503 -0.00000000000E+00 -0.00000000000E+00 -0.16570062932E+03  0.16570062932E+03  0.00000000000E+00 0.  1.
         -6    2    1    2    0  503  0.10541138546E+03 -0.87200123461E+02 -0.79794917484E+02  0.23077930382E+03  0.16785838228E+03 0.  0.
        -24    2    3    3    0    0  0.19911267592E+02 -0.71177234263E+01  0.91852884850E+01  0.83595649822E+02  0.80353858530E+02 0.  0.
          6    2    1    2  501    0 -0.10541138546E+03  0.87200123461E+02  0.11514471297E+04  0.11722741671E+04  0.17228119017E+03 0.  0.
         24    2    5    5    0    0 -0.11197299616E+03  0.98035917454E+02  0.11451221886E+04  0.11573555865E+04  0.77576631589E+02 0.  0.
          5    1    5    5  501    0  0.65616107018E+01 -0.10835793993E+02  0.63249411494E+01  0.14918580596E+02  0.47000000000E+01 0. -1.
        -11    1    6    6    0    0 -0.89933133879E+02  0.80625644353E+02  0.63033023432E+03  0.64179799578E+03  0.00000000000E+00 0.  1.
         12    1    6    6    0    0 -0.22039862283E+02  0.17410273102E+02  0.51479195425E+03  0.51555759067E+03  0.00000000000E+00 0. -1.
         -5    1    3    3    0  503  0.85500117867E+02 -0.80082400035E+02 -0.88980205969E+02  0.14718365400E+03  0.47000000000E+01 0.  1.
         13    1    4    4    0    0  0.17682539091E+02  0.25046605484E+02 -0.22778635621E+02  0.38195168225E+02  0.00000000000E+00 0. -1.
        -14    1    4    4    0    0  0.22287285017E+01 -0.32164328910E+02  0.31963924106E+02  0.45400481597E+02  0.00000000000E+00 0.  1.
</event>
<event>
12    1  0.8113184E-002  0.2576602E+03  0.7818608E-02  0.1108868E+00
         21   -1    0    0  503  502  0.00000000000E+00  0.00000000000E+00  0.89661625980E+03  0.89661625980E+03  0.00000000000E+00 0. -1.
         21   -1    0    0  501  503 -0.00000000000E+00 -0.00000000000E+00 -0.48432025081E+03  0.48432025081E+03  0.00000000000E+00 0. -1.
          6    2    1    2  501    0  0.19172945679E+03 -0.57005596806E+01 -0.42967967587E+03  0.50101240269E+03  0.17203523714E+03 0.  0.
         24    2    3    3    0    0  0.91497645413E+02  0.28198526928E+02 -0.33884385430E+03  0.36148175888E+03  0.81773641013E+02 0.  0.
         -6    2    1    2    0  502 -0.19172945679E+03  0.57005596806E+01  0.84197568486E+03  0.87992410793E+03  0.16896952635E+03 0.  0.
        -24    2    5    5    0    0 -0.42482069349E+02 -0.52587408762E+01  0.47582426686E+03  0.48434372440E+03  0.79672641874E+02 0.  0.
          5    1    3    3  501    0  0.10023181138E+03 -0.33899086609E+02 -0.90835821564E+02  0.13953064382E+03  0.47000000000E+01 0. -1.
        -13    1    4    4    0    0 -0.14372750294E+02 -0.40916970929E+01 -0.48757068298E+02  0.50995780660E+02  0.00000000000E+00 0.  1.
         14    1    4    4    0    0  0.10587039571E+03  0.32290224021E+02 -0.29008678601E+03  0.31048597822E+03  0.00000000000E+00 0. -1.
         -5    1    5    5    0  502 -0.14924738744E+03  0.10959300557E+02  0.36615141800E+03  0.39558038352E+03  0.47000000000E+01 0.  1.
         11    1    6    6    0    0 -0.45922406141E+02  0.29339973887E+02  0.25107623010E+03  0.25692211811E+03  0.00000000000E+00 0. -1.
        -12    1    6    6    0    0  0.34403367924E+01 -0.34598714763E+02  0.22474803676E+03  0.22742160630E+03  0.00000000000E+00 0.  1.
</event>
<event>
12    1  0.8113184E-002  0.2520746E+03  0.7818608E-02  0.1112026E+00
         21   -1    0    0  501  502  0.00000000000E+00  0.00000000000E+00  0.64458384142E+03  0.64458384142E+03  0.00000000000E+00 0. -1.
         21   -1    0    0  502  503 -0.00000000000E+00 -0.00000000000E+00 -0.98528926279E+02  0.98528926279E+02  0.00000000000E+00 0.  1.
         -6    2    1    2    0  503 -0.14353353917E+03  0.11517643836E+03  0.26843721034E+03  0.36812849290E+03  0.17202488939E+03 0.  0.
        -24    2    3    3    0    0 -0.43986263660E+01  0.29277468715E+02  0.12260508130E+03  0.14897955540E+03  0.79286719431E+02 0.  0.
          6    2    1    2  501    0  0.14353353917E+03 -0.11517643836E+03  0.27761770480E+03  0.37498427480E+03  0.17226179932E+03 0.  0.
         24    2    5    5    0    0  0.15400694172E+03 -0.10140961827E+03  0.16156847621E+03  0.25755884760E+03  0.78931227633E+02 0.  0.
          5    1    5    5  501    0 -0.10473402551E+02 -0.13766820096E+02  0.11604922859E+03  0.11742542720E+03  0.47000000000E+01 0. -1.
        -13    1    6    6    0    0  0.58664445787E+02  0.31327445989E+01  0.54364542201E+02  0.80042705707E+02  0.00000000000E+00 0.  1.
         14    1    6    6    0    0  0.95342495933E+02 -0.10454236287E+03  0.10720393401E+03  0.17751614189E+03  0.00000000000E+00 0. -1.
         -5    1    3    3    0  503 -0.13913491280E+03  0.85898969648E+02  0.14583212904E+03  0.21914893750E+03  0.47000000000E+01 0.  1.
         11    1    4    4    0    0  0.99330770589E+01 -0.90184296995E+00  0.11405922750E+03  0.11449448335E+03  0.00000000000E+00 0. -1.
        -12    1    4    4    0    0 -0.14331703425E+02  0.30179311685E+02  0.85458538010E+01  0.34485072046E+02  0.00000000000E+00 0.  1.
</event>
<event>
12    1  0.8113184E-002  0.1875732E+03  0.7818608E-02  0.1160911E+00
         21   -1    0    0  503  502  0.00000000000E+00  0.00000000000E+00  0.42973232283E+02  0.42973232283E+02  0.00000000000E+00 0.  1.
         21   -1    0    0  501  503 -0.00000000000E+00 -0.00000000000E+00 -0.11585288593E+04  0.11585288593E+04  0.00000000000E+00 0. -1.
          6    2    1    2  501    0  0.68850928331E+02 -0.21727632426E+02 -0.23134433516E+03  0.29783198515E+03  0.17312177688E+03 0.  0.
         24    2    3    3    0    0  0.37599898902E+02  0.51107266568E+02 -0.16076905209E+03  0.19160341116E+03  0.82701112245E+02 0.  0.
         -6    2    1    2    0  502 -0.68850928331E+02  0.21727632426E+02 -0.88421129183E+03  0.90367010640E+03  0.17198113925E+03 0.  0.
        -24    2    5    5    0    0 -0.76013710942E+02  0.17643881142E+02 -0.88683201345E+03  0.89382426154E+03  0.79758382870E+02 0.  0.
          5    1    3    3  501    0  0.31251029429E+02 -0.72834898995E+02 -0.70575283070E+02  0.10622857399E+03  0.47000000000E+01 0. -1.
        -13    1    4    4    0    0  0.29007933351E+02 -0.11633367352E+02 -0.19625627835E+02  0.36904751743E+02  0.00000000000E+00 0.  1.
         14    1    4    4    0    0  0.85919655509E+01  0.62740633920E+02 -0.14114342425E+03  0.15469865942E+03  0.00000000000E+00 0. -1.
         -5    1    5    5    0  502  0.71627826108E+01  0.40837512848E+01  0.26207216189E+01  0.98458448642E+01  0.47000000000E+01 0.  1.
         13    1    6    6    0    0 -0.38861415897E+02 -0.31458192542E+02 -0.39111087247E+03  0.39429372565E+03  0.00000000000E+00 0. -1.
        -14    1    6    6    0    0 -0.37152295045E+02  0.49102073684E+02 -0.49572114098E+03  0.49953053589E+03  0.00000000000E+00 0.  1.
</event>
<event>
12    1  0.8113184E-002  0.2087939E+03  0.7818608E-02  0.1142968E+00
         21   -1    0    0  503  502  0.00000000000E+00  0.00000000000E+00  0.65241853519E+02  0.65241853519E+02  0.00000000000E+00 0.  1.
         21   -1    0    0  501  503 -0.00000000000E+00 -0.00000000000E+00 -0.12944261232E+04  0.12944261232E+04  0.00000000000E+00 0.  1.
          6    2    1    2  501    0  0.10128086929E+03 -0.48319840399E+02 -0.10884300155E+04  0.11078612360E+04  0.17344739325E+03 0.  0.
         24    2    3    3    0    0  0.11421816891E+03 -0.83828326918E+02 -0.96702416488E+03  0.98062249626E+03  0.80073505043E+02 0.  0.
         -6    2    1    2    0  502 -0.10128086929E+03  0.48319840399E+02 -0.14075425420E+03  0.25180674069E+03  0.17607456694E+03 0.  0.
        -24    2    5    5    0    0 -0.49032536694E+02  0.87044863314E+02 -0.52258492110E+02  0.14188356040E+03  0.86133598725E+02 0.  0.
          5    1    3    3  501    0 -0.12937299617E+02  0.35508486519E+02 -0.12140585062E+03  0.12723873978E+03  0.47000000000E+01 0. -1.
        -11    1    4    4    0    0  0.53906111285E+02 -0.55765422818E-01 -0.46366360214E+03  0.46678668350E+03  0.00000000000E+00 0.  1.
         12    1    4    4    0    0  0.60312057623E+02 -0.83772561496E+02 -0.50336056274E+03  0.51383581276E+03  0.00000000000E+00 0. -1.
         -5    1    5    5    0  502 -0.52248332596E+02 -0.38725022914E+02 -0.88495762086E+02  0.10992318029E+03  0.47000000000E+01 0.  1.
         11    1    6    6    0    0 -0.28138196628E+02  0.11150960945E+02  0.18972402723E+02  0.35721899509E+02  0.00000000000E+00 0. -1.
        -12    1    6    6    0    0 -0.20894340066E+02  0.75893902369E+02 -0.71230894833E+02  0.10616166089E+03  0.00000000000E+00 0.  1.
</event>
<event>
12    1  0.8113184E-002  0.2083708E+03  0.7818608E-02  0.1143104E+00
         21   -1    0    0  503  502  0.00000000000E+00  0.00000000000E+00  0.20581525934E+03  0.20581525934E+03  0.00000000000E+00 0. -1.
         21   -1    0    0  501  503 -0.00000000000E+00 -0.00000000000E+00 -0.95545920100E+03  0.95545920100E+03  0.00000000000E+00 0.  1.
          6    2    1    2  501    0 -0.31977186908E+02  0.11241265025E+03 -0.88754651102E+03  0.91140347368E+03  0.17105068898E+03 0.  0.
         24    2    3    3    0    0 -0.27400873715E+01  0.13722284428E+03 -0.77643491455E+03  0.79376746479E+03  0.91531385672E+02 0.  0.
         -6    2    1    2    0  502  0.31977186908E+02 -0.11241265025E+03  0.13790256937E+03  0.24987098666E+03  0.17250868649E+03 0.  0.
        -24    2    5    5    0    0  0.67262577374E+02 -0.10240202574E+03  0.53278206972E+02  0.15752032832E+03  0.83448530889E+02 0.  0.
          5    1    3    3  501    0 -0.29237099536E+02 -0.24810194031E+02 -0.11111159647E+03  0.11763600889E+03  0.47000000000E+01 0. -1.
        -13    1    4    4    0    0 -0.40658289407E+02  0.10772927726E+03 -0.59764925163E+03  0.60864055209E+03  0.00000000000E+00 0.  1.
         14    1    4    4    0    0  0.37918202036E+02  0.29493567019E+02 -0.17878566292E+03  0.18512691270E+03  0.00000000000E+00 0. -1.
         -5    1    5    5    0  502 -0.35285390466E+02 -0.10010624515E+02  0.84624362394E+02  0.92350658331E+02  0.47000000000E+01 0.  1.
         11    1    6    6    0    0  0.19278284232E+02 -0.72530283333E+02  0.65591303715E+02  0.99672029007E+02  0.00000000000E+00 0. -1.
        -12    1    6    6    0    0  0.47984293142E+02 -0.29871742402E+02 -0.12313096743E+02  0.57848299317E+02  0.00000000000E+00 0.  1.
</event>
<event>
12    1  0.8113184E-002  0.1824631E+03  0.7818608E-02  0.1165607E+00
         21   -1    0    0  503  502  0.00000000000E+00  0.00000000000E+00  0.48903632891E+03  0.48903632891E+03  0.00000000000E+00 0.  1.
         21   -1    0    0  501  503 -0.00000000000E+00 -0.00000000000E+00 -0.94097792940E+02  0.94097792940E+02  0.00000000000E+00 0.  1.
          6    2    1    2  501    0  0.37607009189E+02  0.40162657540E+02  0.43656184074E+02  0.18761306264E+03  0.17396974640E+03 0.  0.
         24    2    3    3    0    0  0.16129136825E+02  0.68998981114E+02 -0.24572161239E+02  0.11034709560E+03  0.80942460730E+02 0.  0.
         -6    2    1    2    0  502 -0.37607009189E+02 -0.40162657540E+02  0.35128235190E+03  0.39552105921E+03  0.17323478671E+03 0.  0.
        -24    2    5    5    0    0 -0.90896374637E+02 -0.27518101098E+02  0.27746212895E+03  0.30348217290E+03  0.78082004698E+02 0.  0.
          5    1    3    3  501    0  0.21477872363E+02 -0.28836323574E+02  0.68228345314E+02  0.77265967041E+02  0.47000000000E+01 0. -1.
        -11    1    4    4    0    0  0.43580108640E+02  0.29700525340E+02  0.66247549072E+01  0.53152934558E+02  0.00000000000E+00 0.  1.
         12    1    4    4    0    0 -0.27450971815E+02  0.39298455774E+02 -0.31196916146E+02  0.57194161038E+02  0.00000000000E+00 0. -1.
         -5    1    5    5    0  502  0.53289365449E+02 -0.12644556442E+02  0.73820222949E+02  0.92038886313E+02  0.47000000000E+01 0.  1.
         13    1    6    6    0    0  0.37934679926E+01 -0.48679637945E+00  0.10359570937E+03  0.10366628367E+03  0.00000000000E+00 0. -1.
        -14    1    6    6    0    0 -0.94689842630E+02 -0.27031304719E+02  0.17386641958E+03  0.19981588923E+03  0.00000000000E+00 0.  1.
</event>
<event>
12    1  0.8113184E-002  0.2080404E+03  0.7818608E-02  0.1143825E+00
         21   -1    0    0  501  502  0.00000000000E+00  0.00000000000E+00  0.81889246798E+02  0.81889246798E+02  0.00000000000E+00 0.  1.
         21   -1    0    0  502  503 -0.00000000000E+00 -0.00000000000E+00 -0.54321922271E+03  0.54321922271E+03  0.00000000000E+00 0.  1.
         -6    2    1    2    0  503 -0.11191590014E+03 -0.68011158239E+01 -0.16761774833E+03  0.26716381475E+03  0.17524089271E+03 0.  0.
        -24    2    3    3    0    0  0.10522758458E+02  0.53590079768E+00 -0.98061255696E+02  0.12607783884E+03  0.78540409612E+02 0.  0.
          6    2    1    2  501    0  0.11191590014E+03  0.68011158239E+01 -0.29371222759E+03  0.35794465477E+03  0.17113176023E+03 0.  0.
         24    2    5    5    0    0  0.17109642920E+02  0.52398138670E+02 -0.16302592333E+03  0.19011046570E+03  0.80785101798E+02 0.  0.
          5    1    5    5  501    0  0.94806257215E+02 -0.45597022846E+02 -0.13068630426E+03  0.16783418907E+03  0.47000000000E+01 0. -1.
        -13    1    6    6    0    0  0.26562047434E+02  0.70088664737E+02 -0.10731344683E+03  0.13089743756E+03  0.00000000000E+00 0.  1.
         14    1    6    6    0    0 -0.94524045141E+01 -0.17690526067E+02 -0.55712476497E+02  0.59213028136E+02  0.00000000000E+00 0. -1.
         -5    1    3    3    0  503 -0.12243865859E+03 -0.73370166216E+01 -0.69556492629E+02  0.14108597591E+03  0.47000000000E+01 0.  1.
         11    1    4    4    0    0 -0.14958521288E+02  0.33896809052E+02 -0.41366218686E+02  0.55533008845E+02  0.00000000000E+00 0. -1.
        -12    1    4    4    0    0  0.25481279746E+02 -0.33360908255E+02 -0.56695037011E+02  0.70544829993E+02  0.00000000000E+00 0.  1.
</event>
<event>
12    1  0.8113184E-002  0.2239197E+03  0.7818608E-02  0.1131096E+00
         21   -1    0    0  501  502  0.00000000000E+00  0.00000000000E+00  0.59208719415E+03  0.59208719415E+03  0.00000000000E+00 0. -1.
         21   -1    0    0  502  503 -0.00000000000E+00 -0.00000000000E+00 -0.15148732786E+03  0.15148732786E+03  0.00000000000E+00 0.  1.
         -6    2    1    2    0  503 -0.14362920275E+03 -0.10380525628E+02 -0.27135921975E+02  0.22500262518E+03  0.17074167588E+03 0.  0.
        -24    2    3    3    0    0 -0.11762733677E+03 -0.46529851540E+02  0.29610072064E+02  0.15271798893E+03  0.80279576081E+02 0.  0.
          6    2    1    2  501    0  0.14362920275E+03  0.10380525628E+02  0.46773578826E+03  0.51857189683E+03  0.17147285897E+03 0.  0.
         24    2    5    5    0    0  0.60026353439E+02  0.66437350228E+02  0.26634125066E+03  0.29337497462E+03  0.84345298123E+02 0.  0.
          5    1    5    5  501    0  0.83602849313E+02 -0.56056824600E+02  0.20139453760E+03  0.22519692221E+03  0.47000000000E+01 0. -1.
        -11    1    6    6    0    0  0.56329890231E+02  0.20250357209E+02  0.72228517728E+02  0.93808807015E+02  0.00000000000E+00 0.  1.
         12    1    6    6    0    0  0.36964632081E+01  0.46186993020E+02  0.19411273294E+03  0.19956616760E+03  0.00000000000E+00 0. -1.
         -5    1    3    3    0  503 -0.26001865983E+02  0.36149325912E+02 -0.56745994039E+02  0.72284636251E+02  0.47000000000E+01 0.  1.
         13    1    4    4    0    0 -0.61220826257E+02  0.92100159547E+01  0.38524847625E+02  0.72917609986E+02  0.00000000000E+00 0. -1.
        -14    1    4    4    0    0 -0.56406510511E+02 -0.55739867495E+02 -0.89147755610E+01  0.79800378944E+02  0.00000000000E+00 0.  1.
</event>
<event>
12    1  0.8113184E-002  0.1846547E+03  0.7818608E-02  0.1164142E+00
         21   -1    0    0  503  502  0.00000000000E+00  0.00000000000E+00  0.55225805990E+03  0.55225805990E+03  0.00000000000E+00 0.  1.
         21   -1    0    0  501  503 -0.00000000000E+00 -0.00000000000E+00 -0.92510953531E+02  0.92510953531E+02  0.00000000000E+00 0.  1.
          6    2    1    2  501    0  0.32294467487E+02  0.45372384280E+02  0.39368408831E+02  0.18562242355E+03  0.17263900668E+03 0.  0.
         24    2    3    3    0    0 -0.43094892370E+01  0.73706740598E+02  0.69501561909E+02  0.13018974086E+03  0.81655656334E+02 0.  0.
         -6    2    1    2    0  502 -0.32294467487E+02 -0.45372384280E+02  0.42037869754E+03  0.45914658987E+03  0.17605611539E+03 0.  0.
        -24    2    5    5    0    0  0.27512002355E+02  0.28649533616E+02  0.18215686485E+03  0.20257732100E+03  0.79238510337E+02 0.  0.
          5    1    3    3  501    0  0.36603956724E+02 -0.28334356318E+02 -0.30133153078E+02  0.55432682690E+02  0.47000000000E+01 0. -1.
        -13    1    4    4    0    0  0.23855302341E+02  0.77339437904E+02  0.44543084570E+02  0.92382630879E+02  0.00000000000E+00 0.  1.
         14    1    4    4    0    0 -0.28164791578E+02 -0.36326973057E+01  0.24958477340E+02  0.37807109986E+02  0.00000000000E+00 0. -1.
         -5    1    5    5    0  502 -0.59806469842E+02 -0.74021917896E+02  0.23822183269E+03  0.25656926888E+03  0.47000000000E+01 0.  1.
         13    1    6    6    0    0  0.53216459720E+00  0.44219829382E+02  0.49786529724E+02  0.66591103397E+02  0.00000000000E+00 0. -1.
        -14    1    6    6    0    0  0.26979837758E+02 -0.15570295766E+02  0.13237033512E+03  0.13598621760E+03  0.00000000000E+00 0.  1.
</event>
<event>
12    1  0.8113184E-002  0.1873256E+03  0.7818608E-02  0.1161207E+00
         21   -1    0    0  503  502  0.00000000000E+00  0.00000000000E+00  0.25223733124E+03  0.25223733124E+03  0.00000000000E+00 0. -1.
         21   -1    0    0  501  503 -0.00000000000E+00 -0.00000000000E+00 -0.75424817619E+03  0.75424817619E+03  0.00000000000E+00 0. -1.
          6    2    1    2  501    0 -0.68419644346E+02 -0.23578846035E+02 -0.70567665565E+03  0.72977147136E+03  0.17131739075E+03 0.  0.
         24    2    3    3    0    0 -0.30342673611E+02 -0.42042918104E+02 -0.66235947109E+03  0.66903230661E+03  0.78713871256E+02 0.  0.
         -6    2    1    2    0  502  0.68419644346E+02  0.23578846035E+02  0.20366581070E+03  0.27671403607E+03  0.17278219120E+03 0.  0.
        -24    2    5    5    0    0 -0.45874503424E+01  0.65281534681E+02  0.10617787195E+03  0.14789191717E+03  0.79470467480E+02 0.  0.
          5    1    3    3  501    0 -0.38076970735E+02  0.18464072069E+02 -0.43317184557E+02  0.60739164759E+02  0.47000000000E+01 0. -1.
        -11    1    4    4    0    0 -0.38430031301E+02 -0.59478734598E+02 -0.42149260810E+03  0.42739981968E+03  0.00000000000E+00 0.  1.
         12    1    4    4    0    0  0.80873576895E+01  0.17435816495E+02 -0.24086686299E+03  0.24163248693E+03  0.00000000000E+00 0. -1.
         -5    1    5    5    0  502  0.73007094689E+02 -0.41702688646E+02  0.97487938755E+02  0.12882211890E+03  0.47000000000E+01 0.  1.
         11    1    6    6    0    0 -0.37577670727E+02  0.15407323090E+02  0.59466949342E+02  0.72012394809E+02  0.00000000000E+00 0. -1.
        -12    1    6    6    0    0  0.32990220384E+02  0.49874211591E+02  0.46710922605E+02  0.75879522359E+02  0.00000000000E+00 0.  1.
</event>
<event>
12    1  0.8113184E-002  0.1996453E+03  0.7818608E-02  0.1150764E+00
         21   -1    0    0  501  502  0.00000000000E+00  0.00000000000E+00  0.40961044467E+03  0.40961044467E+03  0.00000000000E+00 0.  1.
         21   -1    0    0  502  503 -0.00000000000E+00 -0.00000000000E+00 -0.13196821940E+03  0.13196821940E+03  0.00000000000E+00 0. -1.
         -6    2    1    2    0  503  0.75252718050E+02 -0.57130007176E+02 -0.40824214000E+01  0.19628597598E+03  0.17200206077E+03 0.  0.
        -24    2    3    3    0    0 -0.17391632554E+02 -0.53142962917E+00 -0.25856274041E+02  0.85459240315E+02  0.79573761678E+02 0.  0.
          6    2    1    2  501    0 -0.75252718050E+02  0.57130007176E+02  0.28172464667E+03  0.34529268809E+03  0.17587340507E+03 0.  0.
         24    2    5    5    0    0  0.21820929709E+02  0.17625437075E+02  0.72366198328E+02  0.11111977326E+03  0.79523130865E+02 0.  0.
          5    1    5    5  501    0 -0.97073647759E+02  0.39504570101E+02  0.20935844834E+03  0.23417291483E+03  0.47000000000E+01 0. -1.
        -11    1    6    6    0    0  0.21110252722E+01 -0.98566547237E+01  0.76398764587E+02  0.77060893457E+02  0.00000000000E+00 0.  1.
         12    1    6    6    0    0  0.19709904437E+02  0.27482091799E+02 -0.40325662586E+01  0.34058879799E+02  0.00000000000E+00 0. -1.
         -5    1    3    3    0  503  0.92644350604E+02 -0.56598577547E+02  0.21773852641E+02  0.11082673566E+03  0.47000000000E+01 0.  1.
         13    1    4    4    0    0 -0.33747326192E+01 -0.39673565384E+02 -0.14299995101E+02  0.42306860796E+02  0.00000000000E+00 0. -1.
        -14    1    4    4    0    0 -0.14016899935E+02  0.39142135755E+02 -0.11556278940E+02  0.43152379519E+02  0.00000000000E+00 0.  1.
</event>
<event>
12    1  0.8113184E-002  0.2929104E+03  0.7818608E-02  0.1088946E+00
         21   -1    0    0  501  502  0.00000000000E+00  0.00000000000E+00  0.14433815100E+04  0.14433815100E+04  0.00000000000E+00 0. -1.
         21   -1    0    0  502  503 -0.00000000000E+00 -0.00000000000E+00 -0.65775284595E+02  0.65775284595E+02  0.00000000000E+00 0.  1.
         -6    2    1    2    0  503  0.21908932343E+03  0.89317042744E+02  0.45244719096E+03  0.53898514422E+03  0.17268138092E+03 0.  0.
        -24    2    3    3    0    0  0.20507199171E+03  0.93352059108E+02  0.28963619505E+03  0.37545448246E+03  0.79421748878E+02 0.  0.
          6    2    1    2  501    0 -0.21908932343E+03 -0.89317042744E+02  0.92515903449E+03  0.97017165042E+03  0.17127792158E+03 0.  0.
         24    2    5    5    0    0 -0.21284419111E+03 -0.36738420241E+02  0.64300428938E+03  0.68305337617E+03  0.80343246907E+02 0.  0.
          5    1    5    5  501    0 -0.62451323146E+01 -0.52578622502E+02  0.28215474511E+03  0.28711827425E+03  0.47000000000E+01 0. -1.
        -11    1    6    6    0    0 -0.50923720286E+02  0.21745162418E+02  0.20735558839E+03  0.21462156791E+03  0.00000000000E+00 0.  1.
         12    1    6    6    0    0 -0.16192047082E+03 -0.58483582660E+02  0.43564870099E+03  0.46843180826E+03  0.00000000000E+00 0. -1.
         -5    1    3    3    0  503  0.14017331720E+02 -0.40350163639E+01  0.16281099592E+03  0.16353066176E+03  0.47000000000E+01 0.  1.
         11    1    4    4    0    0  0.11803717111E+03  0.95482350627E+02  0.18141368636E+03  0.23655988385E+03  0.00000000000E+00 0. -1.
        -12    1    4    4    0    0  0.87034820596E+02 -0.21302915191E+01  0.10822250868E+03  0.13889459861E+03  0.00000000000E+00 0.  1.
</event>
<event>
12    1  0.8113184E-002  0.1944877E+03  0.7818608E-02  0.1155180E+00
         21   -1    0    0  503  502  0.00000000000E+00  0.00000000000E+00  0.67342259131E+02  0.67342259131E+02  0.00000000000E+00 0.  1.
         21   -1    0    0  501  503 -0.00000000000E+00 -0.00000000000E+00 -0.55543171499E+03  0.55543171499E+03  0.00000000000E+00 0.  1.
          6    2    1    2  501    0 -0.86884876411E+02  0.17729897554E+02 -0.22342797846E+03  0.29621870750E+03  0.17309572525E+03 0.  0.
         24    2    3    3    0    0 -0.11951522426E+03  0.63868833631E+00 -0.21364150180E+03  0.25781670028E+03  0.80885492520E+02 0.  0.
         -6    2    1    2    0  502  0.86884876411E+02 -0.17729897554E+02 -0.26466147740E+03  0.32655526662E+03  0.16949723750E+03 0.  0.
        -24    2    5    5    0    0  0.58543341505E+02  0.50492771014E+02 -0.11645911277E+03  0.16089414871E+03  0.79670316807E+02 0.  0.
          5    1    3    3  501    0  0.32630347848E+02  0.17091209218E+02 -0.97864766608E+01  0.38402007222E+02  0.47000000000E+01 0. -1.
        -13    1    4    4    0    0 -0.22391608289E+02  0.30941034163E+02 -0.89510196920E+02  0.97318071649E+02  0.00000000000E+00 0.  1.
         14    1    4    4    0    0 -0.97123615971E+02 -0.30302345827E+02 -0.12413130488E+03  0.16049862863E+03  0.00000000000E+00 0. -1.
         -5    1    5    5    0  502  0.28341534906E+02 -0.68222668568E+02 -0.14820236463E+03  0.16566111791E+03  0.47000000000E+01 0.  1.
         11    1    6    6    0    0 -0.44739545411E+01  0.73434318951E+01 -0.72020840591E+02  0.72532363402E+02  0.00000000000E+00 0. -1.
        -12    1    6    6    0    0  0.63017296046E+02  0.43149339119E+02 -0.44438272183E+02  0.88361785303E+02  0.00000000000E+00 0.  1.
</event>
<event>
12    1  0.8113184E-002  0.2136912E+03  0.7818608E-02  0.1138854E+00
         21   -1    0    0  503  502  0.00000000000E+00  0.00000000000E+00  0.19146304009E+03  0.19146304009E+03  0.00000000000E+00 0.  1.
         21   -1    0    0  501  503 -0.00000000000E+00 -0.00000000000E+00 -0.31132424928E+03  0.31132424928E+03  0.00000000000E+00 0.  1.
          6    2    1    2  501    0  0.24463473599E+02  0.12153748713E+03 -0.18246444651E+03  0.28099320704E+03  0.17405196305E+03 0.  0.
         24    2    3    3    0    0 -0.46573410117E+02  0.10356206686E+03 -0.11022752892E+03  0.17799021269E+03  0.81463018970E+02 0.  0.
         -6    2    1    2    0  502 -0.24463473599E+02 -0.12153748713E+03  0.62603237321E+02  0.22179408233E+03  0.17292665299E+03 0.  0.
        -24    2    5    5    0    0 -0.39628132925E+02 -0.23247759129E+02 -0.18229496601E+02  0.93548776775E+02  0.79424252380E+02 0.  0.
          5    1    3    3  501    0  0.71036883716E+02  0.17975420275E+02 -0.72236917587E+02  0.10300299435E+03  0.47000000000E+01 0. -1.
        -11    1    4    4    0    0 -0.29752087402E+02  0.11443085371E+03 -0.84214629492E+02  0.14516098239E+03  0.00000000000E+00 0.  1.
         12    1    4    4    0    0 -0.16821322715E+02 -0.10868786858E+02 -0.26012899428E+02  0.32829230303E+02  0.00000000000E+00 0. -1.
         -5    1    5    5    0  502  0.15164659327E+02 -0.98289728002E+02  0.80832733922E+02  0.12824530555E+03  0.47000000000E+01 0.  1.
         11    1    6    6    0    0  0.16796702632E+02  0.11880490427E+02  0.80273706388E+01  0.22084246680E+02  0.00000000000E+00 0. -1.
        -12    1    6    6    0    0 -0.56424835557E+02 -0.35128249555E+02 -0.26256867240E+02  0.71464530095E+02  0.00000000000E+00 0.  1.
</event>
<event>
12    1  0.8113184E-002  0.1773310E+03  0.7818608E-02  0.1170518E+00
         21   -1    0    0  501  502  0.00000000000E+00  0.00000000000E+00  0.47812492537E+03  0.47812492537E+03  0.00000000000E+00 0.  1.
         21   -1    0    0  502  503 -0.00000000000E+00 -0.00000000000E+00 -0.68313592844E+02  0.68313592844E+02  0.00000000000E+00 0. -1.
         -6    2    1    2    0  503 -0.39348790619E+01  0.43670900986E+02  0.15031696529E+03  0.23213993334E+03  0.17138006807E+03 0.  0.
        -24    2    3    3    0    0 -0.34297461432E+02  0.37751754064E+02  0.17019421794E+03  0.19507083730E+03  0.80529801625E+02 0.  0.
          6    2    1    2  501    0  0.39348790619E+01 -0.43670900986E+02  0.25949436723E+03  0.31429858487E+03  0.17182445391E+03 0.  0.
         24    2    5    5    0    0 -0.39934909837E+01 -0.84327776274E+02  0.24481926058E+03  0.27010255207E+03  0.76758038434E+02 0.  0.
          5    1    5    5  501    0  0.79283700456E+01  0.40656875288E+02  0.14675106653E+02  0.44196032797E+02  0.47000000000E+01 0. -1.
        -11    1    6    6    0    0 -0.21561343714E+02 -0.55485482275E+02  0.69267296147E+02  0.91331750238E+02  0.00000000000E+00 0.  1.
         12    1    6    6    0    0  0.17567852730E+02 -0.28842293999E+02  0.17555196443E+03  0.17877080184E+03  0.00000000000E+00 0. -1.
         -5    1    3    3    0  503  0.30362582370E+02  0.59191469229E+01 -0.19877252647E+02  0.37069096041E+02  0.47000000000E+01 0.  1.
         11    1    4    4    0    0 -0.37103142649E+02  0.11429822350E+02  0.22189479425E+02  0.44717524870E+02  0.00000000000E+00 0. -1.
        -12    1    4    4    0    0  0.28056812164E+01  0.26321931714E+02  0.14800473852E+03  0.15035331243E+03  0.00000000000E+00 0.  1.
</event>
<event>
12    1  0.8113184E-002  0.1795115E+03  0.7818608E-02  0.1168545E+00
         21   -1    0    0  503  502  0.00000000000E+00  0.00000000000E+00  0.20813397887E+03  0.20813397887E+03  0.00000000000E+00 0.  1.
         21   -1    0    0  501  503 -0.00000000000E+00 -0.00000000000E+00 -0.48772099012E+03  0.48772099012E+03  0.00000000000E+00 0.  1.
          6    2    1    2  501    0 -0.49135556437E+02 -0.10087199278E+02 -0.42751300276E+03  0.46324696253E+03  0.17121427006E+03 0.  0.
         24    2    3    3    0    0 -0.37447390276E+02  0.43290379244E+02 -0.37496912214E+03  0.38729481636E+03  0.78224473477E+02 0.  0.
         -6    2    1    2    0  502  0.49135556437E+02  0.10087199278E+02  0.14792599150E+03  0.23260800645E+03  0.17236104899E+03 0.  0.
        -24    2    5    5    0    0  0.34349733285E+02  0.62110232502E+02  0.81082122777E+02  0.14649639668E+03  0.99243631774E+02 0.  0.
          5    1    3    3  501    0 -0.11688166161E+02 -0.53377578522E+02 -0.52543880619E+02  0.75952146168E+02  0.47000000000E+01 0. -1.
        -13    1    4    4    0    0 -0.58172721248E+02  0.23256063085E+02 -0.18920196797E+03  0.19930452742E+03  0.00000000000E+00 0.  1.
         14    1    4    4    0    0  0.20725330972E+02  0.20034316159E+02 -0.18576715417E+03  0.18799028894E+03  0.00000000000E+00 0. -1.
         -5    1    5    5    0  502  0.14785823153E+02 -0.52023033224E+02  0.66843868725E+02  0.86111609776E+02  0.47000000000E+01 0.  1.
         11    1    6    6    0    0 -0.24953880643E+02  0.32994584088E+02 -0.68629378097E+00  0.41374022495E+02  0.00000000000E+00 0. -1.
        -12    1    6    6    0    0  0.59303613928E+02  0.29115648414E+02  0.81768416558E+02  0.10512237418E+03  0.00000000000E+00 0.  1.
</event>
<event>
12    1  0.8113184E-002  0.2782442E+03  0.7818608E-02  0.1096726E+00
         21   -1    0    0  503  502  0.00000000000E+00  0.00000000000E+00  0.26809025872E+03  0.26809025872E+03  0.00000000000E+00 0. -1.
         21   -1    0    0  501  503 -0.00000000000E+00 -0.00000000000E+00 -0.92384441829E+03  0.92384441829E+03  0.00000000000E+00 0.  1.
          6    2    1    2  501    0  0.66771408602E+02 -0.20825408314E+03 -0.82211409114E+03  0.86775039893E+03  0.17114611256E+03 0.  0.
         24    2    3    3    0    0  0.54673871353E+02 -0.22878895116E+03 -0.78470563020E+03  0.82314642869E+03  0.80458067361E+02 0.  0.
         -6    2    1    2    0  502 -0.66771408602E+02  0.20825408314E+03  0.16635993156E+03  0.32418427808E+03  0.17202219384E+03 0.  0.
        -24    2    5    5    0    0 -0.11207458400E+03  0.15772964922E+03  0.13836461521E+03  0.25062529589E+03  0.78923491908E+02 0.  0.
          5    1    3    3  501    0  0.12097537249E+02  0.20534868019E+02 -0.37408460933E+02  0.44603970243E+02  0.47000000000E+01 0. -1.
        -13    1    4    4    0    0 -0.58525409109E+01 -0.92405546377E+02 -0.39859214324E+03  0.40920500228E+03  0.00000000000E+00 0.  1.
         14    1    4    4    0    0  0.60526412264E+02 -0.13638340478E+03 -0.38611348696E+03  0.41394142641E+03  0.00000000000E+00 0. -1.
         -5    1    5    5    0  502  0.45303175393E+02  0.50524433923E+02  0.27995316349E+02  0.73558982194E+02  0.47000000000E+01 0.  1.
         13    1    6    6    0    0 -0.51188999407E+02  0.10676524859E+03  0.12111005787E+03  0.16937171571E+03  0.00000000000E+00 0. -1.
        -14    1    6    6    0    0 -0.60885584589E+02  0.50964400627E+02  0.17254557347E+02  0.81253580175E+02  0.00000000000E+00 0.  1.
</event>
<event>
12    1  0.8113184E-002  0.1986846E+03  0.7818608E-02  0.1150872E+00
         21   -1    0    0  503  502  0.00000000000E+00  0.00000000000E+00  0.14194955165E+03  0.14194955165E+03  0.00000000000E+00 0.  1.
         21   -1    0    0  501  503 -0.00000000000E+00 -0.00000000000E+00 -0.46250404189E+03  0.46250404189E+03  0.00000000000E+00 0.  1.
          6    2    1    2  501    0 -0.26541000931E+02  0.96498626287E+02 -0.35120132474E+03  0.40350707548E+03  0.17163676719E+03 0.  0.
         24    2    3    3    0    0  0.25579710731E+02  0.24159644439E+02 -0.27119796621E+03  0.28362328068E+03  0.75205175649E+02 0.  0.
         -6    2    1    2    0  502  0.26541000931E+02 -0.96498626287E+02  0.30646834507E+02  0.20094651806E+03  0.17153385977E+03 0.  0.
        -24    2    5    5    0    0  0.49053052139E+02 -0.11925467989E+03  0.33247458515E+01  0.15860012561E+03  0.92277111502E+02 0.  0.
          5    1    3    3  501    0 -0.52120711662E+02  0.72338981849E+02 -0.80003358534E+02  0.11988379480E+03  0.47000000000E+01 0. -1.
        -13    1    4    4    0    0 -0.22763155022E+02 -0.74920315205E+01 -0.10389091972E+03  0.10661901783E+03  0.00000000000E+00 0.  1.
         14    1    4    4    0    0  0.48342865753E+02  0.31651675959E+02 -0.16730704649E+03  0.17700426285E+03  0.00000000000E+00 0. -1.
         -5    1    5    5    0  502 -0.22512051208E+02  0.22756053605E+02  0.27322088655E+02  0.42346392453E+02  0.47000000000E+01 0.  1.
         13    1    6    6    0    0  0.48822047718E+02 -0.70811789552E+02 -0.38842663444E+02  0.94375072907E+02  0.00000000000E+00 0. -1.
        -14    1    6    6    0    0  0.23100442114E+00 -0.48442890341E+02  0.42167409295E+02  0.64225052700E+02  0.00000000000E+00 0.  1.
</event>
<event>
12    1  0.8113184E-002  0.1909268E+03  0.7818608E-02  0.1158607E+00
         21   -1    0    0  501  502  0.00000000000E+00  0.00000000000E+00  0.13004270742E+04  0.13004270742E+04  0.00000000000E+00 0. -1.
         21   -1    0    0  502  503 -0.00000000000E+00 -0.00000000000E+00 -0.11627464788E+03  0.11627464788E+03  0.00000000000E+00 0.  1.
         -6    2    1    2    0  503  0.78126357940E+02  0.21496762958E+02 -0.25604844175E+02  0.19263608557E+03  0.17287919133E+03 0.  0.
        -24    2    3    3    0    0 -0.22535737788E+02  0.31714656289E+02  0.69007378756E-01  0.88144461433E+02  0.79093377839E+02 0.  0.
          6    2    1    2  501    0 -0.78126357940E+02 -0.21496762958E+02  0.12097572705E+04  0.12240656366E+04  0.16810172615E+03 0.  0.
         24    2    5    5    0    0 -0.29509057331E+02 -0.74193351529E+02  0.88519918681E+03  0.89164931313E+03  0.71312406978E+02 0.  0.
          5    1    5    5  501    0 -0.48617300609E+02  0.52696588571E+02  0.32455808373E+03  0.33241632343E+03  0.47000000000E+01 0. -1.
        -11    1    6    6    0    0 -0.67119471816E+01 -0.51004032297E+02  0.23173150003E+03  0.23737301795E+03  0.00000000000E+00 0.  1.
         12    1    6    6    0    0 -0.22797110150E+02 -0.23189319231E+02  0.65346768678E+03  0.65427629518E+03  0.00000000000E+00 0. -1.
         -5    1    3    3    0  503  0.10066209573E+03 -0.10217893332E+02 -0.25673851554E+02  0.10449162413E+03  0.47000000000E+01 0.  1.
         13    1    4    4    0    0  0.13921273795E+02  0.28293881583E+02  0.27937138951E+02  0.42128723359E+02  0.00000000000E+00 0. -1.
        -14    1    4    4    0    0 -0.36457011583E+02  0.34207747064E+01 -0.27868131572E+02  0.46015738074E+02  0.00000000000E+00 0.  1.
</event>
<event>
12    1  0.8113184E-002  0.1760004E+03  0.7818608E-02  0.1172024E+00
         21   -1    0    0  503  502  0.00000000000E+00  0.00000000000E+00  0.93198278461E+02  0.93198278461E+02  0.00000000000E+00 0. -1.
         21   -1    0    0  501  503 -0.00000000000E+00 -0.00000000000E+00 -0.84019426742E+03  0.84019426742E+03  0.00000000000E+00 0. -1.
          6    2    1    2  501    0  0.18722761935E+02  0.24624151487E+02 -0.73662387528E+03  0.75708678990E+03  0.17207202896E+03 0.  0.
         24    2    3    3    0    0 -0.27247998095E+02  0.43451191295E+02 -0.23646769777E+03  0.25444769462E+03  0.78715930917E+02 0.  0.
         -6    2    1    2    0  502 -0.18722761935E+02 -0.24624151487E+02 -0.10372113676E+02  0.17630575598E+03  0.17326063661E+03 0.  0.
        -24    2    5    5    0    0  0.43283137598E+02 -0.40502259801E+01 -0.49151507215E+02  0.10018775975E+03  0.75709195021E+02 0.  0.
          5    1    3    3  501    0  0.45970760029E+02 -0.18827039808E+02 -0.50015617751E+03  0.50263909528E+03  0.47000000000E+01 0. -1.
        -11    1    4    4    0    0  0.14830151349E+02  0.30273923187E+02 -0.36539594993E+02  0.49715046178E+02  0.00000000000E+00 0.  1.
         12    1    4    4    0    0 -0.42078149444E+02  0.13177268108E+02 -0.19992810278E+03  0.20473264844E+03  0.00000000000E+00 0. -1.
         -5    1    5    5    0  502 -0.62005899533E+02 -0.20573925507E+02  0.38779393539E+02  0.76117996235E+02  0.47000000000E+01 0.  1.
         11    1    6    6    0    0  0.22645041455E+02  0.11309818367E+02  0.16133448908E+02  0.30016629852E+02  0.00000000000E+00 0. -1.
        -12    1    6    6    0    0  0.20638096143E+02 -0.15360044348E+02 -0.65284956123E+02  0.70171129895E+02  0.00000000000E+00 0.  1.
</event>
<event>
12    1  0.8113184E-002  0.2112717E+03  0.7818608E-02  0.1140993E+00
         21   -1    0    0  501  502  0.00000000000E+00  0.00000000000E+00  0.47876675236E+02  0.47876675236E+02  0.00000000000E+00 0. -1.
         21   -1    0    0  502  503 -0.00000000000E+00 -0.00000000000E+00 -0.10131482130E+04  0.10131482130E+04  0.00000000000E+00 0.  1.
         -6    2    1    2    0  503  0.82178717782E+02  0.89399369341E+02 -0.64341367860E+03  0.67721260560E+03  0.17288771638E+03 0.  0.
        -24    2    3    3    0    0 -0.58118586221E+01  0.64653977864E+02 -0.20596705901E+03  0.23029392069E+03  0.79993411926E+02 0.  0.
          6    2    1    2  501    0 -0.82178717782E+02 -0.89399369341E+02 -0.32185785912E+03  0.38381228260E+03  0.17021691426E+03 0.  0.
         24    2    5    5    0    0 -0.11117031329E+03 -0.59581795400E+02 -0.30318044301E+03  0.33798067562E+03  0.80023291405E+02 0.  0.
          5    1    5    5  501    0  0.28991595507E+02 -0.29817573942E+02 -0.18677416112E+02  0.45831606980E+02  0.47000000000E+01 0. -1.
        -13    1    6    6    0    0 -0.34408982754E+02 -0.58788723172E+02 -0.18413259842E+03  0.19632856610E+03  0.00000000000E+00 0.  1.
         14    1    6    6    0    0 -0.76761330535E+02 -0.79307222751E+00 -0.11904784459E+03  0.14165210952E+03  0.00000000000E+00 0. -1.
         -5    1    3    3    0  503  0.87990576404E+02  0.24745391477E+02 -0.43744661959E+03  0.44691868491E+03  0.47000000000E+01 0.  1.
         11    1    4    4    0    0 -0.17057313416E+02 -0.14914509139E+02 -0.44822504272E+02  0.50224012315E+02  0.00000000000E+00 0. -1.
        -12    1    4    4    0    0  0.11245454794E+02  0.79568487003E+02 -0.16114455474E+03  0.18006990837E+03  0.00000000000E+00 0.  1.
</event>
<event>
12    1  0.8113184E-002  0.1859713E+03  0.7818608E-02  0.1163102E+00
         21   -1    0    0  501  502  0.00000000000E+00  0.00000000000E+00  0.36817238449E+03  0.36817238449E+03  0.00000000000E+00 0. -1.
         21   -1    0    0  502  503 -0.00000000000E+00 -0.00000000000E+00 -0.30229654966E+03  0.30229654966E+03  0.00000000000E+00 0. -1.
         -6    2    1    2    0  503  0.61452537844E+02  0.33414671360E+02 -0.24662583922E+03  0.30888451189E+03  0.17231477722E+03 0.  0.
        -24    2    3    3    0    0  0.22236097183E+02 -0.34668852504E+02 -0.62392211216E+02  0.10854126862E+03  0.78689552168E+02 0.  0.
          6    2    1    2  501    0 -0.61452537844E+02 -0.33414671360E+02  0.31250167404E+03  0.36158442225E+03  0.16790784218E+03 0.  0.
         24    2    5    5    0    0  0.18942457770E+02  0.12204369623E+01  0.84712826479E+02  0.11750903406E+03  0.79194721679E+02 0.  0.
          5    1    5    5  501    0 -0.80394995613E+02 -0.34635108322E+02  0.22778884757E+03  0.24407538820E+03  0.47000000000E+01 0. -1.
        -13    1    6    6    0    0  0.18780790296E+01 -0.38297506958E+02  0.41954791301E+02  0.56836878285E+02  0.00000000000E+00 0.  1.
         14    1    6    6    0    0  0.17064378740E+02  0.39517943921E+02  0.42758035178E+02  0.60672155770E+02  0.00000000000E+00 0. -1.
         -5    1    3    3    0  503  0.39216440660E+02  0.68083523864E+02 -0.18423362800E+03  0.20034324328E+03  0.47000000000E+01 0.  1.
         13    1    4    4    0    0 -0.23647442446E+02 -0.23036015065E+02 -0.49470082441E+02  0.59473931946E+02  0.00000000000E+00 0. -1.
        -14    1    4    4    0    0  0.45883539629E+02 -0.11632837438E+02 -0.12922128776E+02  0.49067336670E+02  0.00000000000E+00 0.  1.
</event>
<event>
12    1  0.8113184E-002  0.2591093E+03  0.7818608E-02  0.1108009E+00
         21   -1    0    0  501  502  0.00000000000E+00  0.00000000000E+00  0.10689703475E+03  0.10689703475E+03  0.00000000000E+00 0. -1.
         21   -1    0    0  502  503 -0.00000000000E+00 -0.00000000000E+00 -0.69889459305E+03  0.69889459305E+03  0.00000000000E+00 0.  1.
         -6    2    1    2    0  503  0.92313989654E+01 -0.19151669655E+03 -0.42782455858E+03  0.49905003341E+03  0.17103572476E+03 0.  0.
        -24    2    3    3    0    0  0.42193757113E+02 -0.13403414387E+03 -0.17445699017E+03  0.23711879121E+03  0.77747121280E+02 0.  0.
          6    2    1    2  501    0 -0.92313989654E+01  0.19151669655E+03 -0.16417299972E+03  0.30674159439E+03  0.17428071639E+03 0.  0.
         24    2    5    5    0    0 -0.55715826724E+02  0.14809746597E+03 -0.16646165149E+03  0.24291871812E+03  0.79138545737E+02 0.  0.
          5    1    5    5  501    0  0.46484427759E+02  0.43419230579E+02  0.22886517705E+01  0.63822876268E+02  0.47000000000E+01 0. -1.
        -13    1    6    6    0    0 -0.17784922973E+02 -0.42845278464E+01 -0.84597234382E+01  0.20155088307E+02  0.00000000000E+00 0.  1.
         14    1    6    6    0    0 -0.37930903752E+02  0.15238199381E+03 -0.15800192805E+03  0.22276362981E+03  0.00000000000E+00 0. -1.
         -5    1    3    3    0  503 -0.32962358147E+02 -0.57482552677E+02 -0.25336756841E+03  0.26193124220E+03  0.47000000000E+01 0.  1.
         13    1    4    4    0    0 -0.15692411517E+02 -0.65432184991E+02 -0.50763921734E+02  0.84288779572E+02  0.00000000000E+00 0. -1.
        -14    1    4    4    0    0  0.57886168630E+02 -0.68601958878E+02 -0.12369306843E+03  0.15283001164E+03  0.00000000000E+00 0.  1.
</event>
<event>
12    1  0.8113184E-002  0.1749634E+03  0.7818608E-02  0.1172925E+00
         21   -1    0    0  503  502  0.00000000000E+00  0.00000000000E+00  0.16632394068E+03  0.16632394068E+03  0.00000000000E+00 0. -1.
         21   -1    0    0  501  503 -0.00000000000E+00 -0.00000000000E+00 -0.52783910245E+03  0.52783910245E+03  0.00000000000E+00 0. -1.
          6    2    1    2  501    0 -0.10285805493E+02  0.24206548310E+02 -0.46102013029E+03  0.49288353068E+03  0.17234517545E+03 0.  0.
         24    2    3    3    0    0 -0.13589838141E+02  0.82056634286E+01 -0.90420882000E+02  0.12189453113E+03  0.80189302309E+02 0.  0.
         -6    2    1    2    0  502  0.10285805493E+02 -0.24206548310E+02  0.99504968523E+02  0.20127951246E+03  0.17297528320E+03 0.  0.
        -24    2    5    5    0    0 -0.28240755034E+02  0.31251896444E+02  0.10111785446E+02  0.89149382070E+02  0.77917538734E+02 0.  0.
          5    1    3    3  501    0  0.33040326480E+01  0.16000884881E+02 -0.37059924829E+03  0.37098899955E+03  0.47000000000E+01 0. -1.
        -11    1    4    4    0    0 -0.42299565442E+01 -0.35229850432E+02 -0.53118831507E+02  0.63879927634E+02  0.00000000000E+00 0.  1.
         12    1    4    4    0    0 -0.93598815966E+01  0.43435513861E+02 -0.37302050493E+02  0.58014603496E+02  0.00000000000E+00 0. -1.
         -5    1    5    5    0  502  0.38526560527E+02 -0.55458444754E+02  0.89393183077E+02  0.11213013039E+03  0.47000000000E+01 0.  1.
         13    1    6    6    0    0 -0.44827719776E+02  0.16038934039E+02  0.32308868388E+02  0.57538116426E+02  0.00000000000E+00 0. -1.
        -14    1    6    6    0    0  0.16586964742E+02  0.15212962405E+02 -0.22197082942E+02  0.31611265644E+02  0.00000000000E+00 0.  1.
</event>
<event>
12    1  0.8113184E-002  0.1750515E+03  0.7818608E-02  0.1172698E+00
         21   -1    0    0  503  502  0.00000000000E+00  0.00000000000E+00  0.68882527906E+03  0.68882527906E+03  0.00000000000E+00 0.  1.
         21   -1    0    0  501  503 -0.00000000000E+00 -0.00000000000E+00 -0.70079079517E+02  0.70079079517E+02  0.00000000000E+00 0.  1.
          6    2    1    2  501    0  0.74531576663E+01 -0.36440100082E+02  0.79936875538E+02  0.19237233863E+03  0.17097889386E+03 0.  0.
         24    2    3    3    0    0 -0.91416705413E+01  0.42553616529E+02  0.51913842157E+02  0.10679911860E+03  0.82562850638E+02 0.  0.
         -6    2    1    2    0  502 -0.74531576663E+01  0.36440100082E+02  0.53880932401E+03  0.56653201995E+03  0.17105441104E+03 0.  0.
        -24    2    5    5    0    0  0.42038728167E+02  0.30920091360E+02  0.19848162336E+03  0.22254807979E+03  0.86077792084E+02 0.  0.
          5    1    3    3  501    0  0.16594828208E+02 -0.78993716611E+02  0.28023033381E+02  0.85573220035E+02  0.47000000000E+01 0. -1.
        -11    1    4    4    0    0 -0.28674461614E+02  0.60473260735E+01 -0.11153184102E+02  0.31355835456E+02  0.00000000000E+00 0.  1.
         12    1    4    4    0    0  0.19532791073E+02  0.36506290456E+02  0.63067026259E+02  0.75443283141E+02  0.00000000000E+00 0. -1.
         -5    1    5    5    0  502 -0.49491885834E+02  0.55200087221E+01  0.34032770065E+03  0.34398394016E+03  0.47000000000E+01 0.  1.
         11    1    6    6    0    0  0.27579832597E+02  0.50026109880E+02  0.63323653434E+02  0.85282729319E+02  0.00000000000E+00 0. -1.
        -12    1    6    6    0    0  0.14458895570E+02 -0.19106018520E+02  0.13515796993E+03  0.13726535047E+03  0.00000000000E+00 0.  1.
</event>
<event>
12    1  0.8113184E-002  0.2233950E+03  0.7818608E-02  0.1131573E+00
         21   -1    0    0  501  502  0.00000000000E+00  0.00000000000E+00  0.19837693099E+04  0.19837693099E+04  0.00000000000E+00 0. -1.
         21   -1    0    0  502  503 -0.00000000000E+00 -0.00000000000E+00 -0.27363295393E+02  0.27363295393E+02  0.00000000000E+00 0. -1.
         -6    2    1    2    0  503 -0.10095499372E+03 -0.10027351950E+03  0.68711498261E+03  0.72251805419E+03  0.17221686861E+03 0.  0.
        -24    2    3    3    0    0 -0.81494083658E+02 -0.10184753551E+03  0.35300309669E+03  0.38780318021E+03  0.93626460747E+02 0.  0.
          6    2    1    2  501    0  0.10095499372E+03  0.10027351950E+03  0.12692910319E+04  0.12886145511E+04  0.17082461236E+03 0.  0.
         24    2    5    5    0    0  0.12195045037E+03  0.12291424493E+03  0.10628150417E+04  0.10797896575E+04  0.79937898979E+02 0.  0.
          5    1    5    5  501    0 -0.20995456646E+02 -0.22640725429E+02  0.20647599022E+03  0.20882489360E+03  0.47000000000E+01 0. -1.
        -11    1    6    6    0    0 -0.93988752600E+01  0.99730749646E+01  0.15427349775E+03  0.15488096457E+03  0.00000000000E+00 0.  1.
         12    1    6    6    0    0  0.13134932563E+03  0.11294116996E+03  0.90854154394E+03  0.92490869294E+03  0.00000000000E+00 0. -1.
         -5    1    3    3    0  503 -0.19460910067E+02  0.15740160163E+01  0.33411188592E+03  0.33471487397E+03  0.47000000000E+01 0.  1.
         11    1    4    4    0    0 -0.29640964903E+02  0.14499444994E+02  0.80414203346E+02  0.86921026256E+02  0.00000000000E+00 0. -1.
        -12    1    4    4    0    0 -0.51853118755E+02 -0.11634698051E+03  0.27258889334E+03  0.30088215396E+03  0.00000000000E+00 0.  1.
</event>
<event>
12    1  0.8113184E-002  0.1938873E+03  0.7818608E-02  0.1155442E+00
         21   -1    0    0  503  502  0.00000000000E+00  0.00000000000E+00  0.35909189523E+03  0.35909189523E+03  0.00000000000E+00 0. -1.
         21   -1    0    0  501  503 -0.00000000000E+00 -0.00000000000E+00 -0.17669965800E+03  0.17669965800E+03  0.00000000000E+00 0. -1.
          6    2    1    2  501    0 -0.83828878157E+02  0.29096410611E+02 -0.80819084969E+02  0.21005713044E+03  0.17239023066E+03 0.  0.
         24    2    3    3    0    0 -0.13362207598E+02  0.70607774277E+02 -0.24019273631E+02  0.11037235958E+03  0.80256625101E+02 0.  0.
         -6    2    1    2    0  502  0.83828878157E+02 -0.29096410611E+02  0.26321132220E+03  0.32573442279E+03  0.17014356330E+03 0.  0.
        -24    2    5    5    0    0  0.13478661736E+01 -0.64334190558E+02  0.13369100386E+03  0.16811963498E+03  0.79058347660E+02 0.  0.
          5    1    3    3  501    0 -0.70466670560E+02 -0.41511363665E+02 -0.56799811338E+02  0.99684770859E+02  0.47000000000E+01 0. -1.
        -11    1    4    4    0    0  0.21137389342E+02 -0.56777360648E+00 -0.23037282774E+02  0.31270241327E+02  0.00000000000E+00 0.  1.
         12    1    4    4    0    0 -0.34499596940E+02  0.71175547883E+02 -0.98199085743E+00  0.79102118249E+02  0.00000000000E+00 0. -1.
         -5    1    5    5    0  502  0.82481011984E+02  0.35237779947E+02  0.12952031834E+03  0.15761478781E+03  0.47000000000E+01 0.  1.
         11    1    6    6    0    0  0.51270571988E+01 -0.95264735292E+01  0.10608611961E+03  0.10663632208E+03  0.00000000000E+00 0. -1.
        -12    1    6    6    0    0 -0.37791910252E+01 -0.54807717029E+02  0.27604884257E+02  0.61483312904E+02  0.00000000000E+00 0.  1.
</event>
<event>
12    1  0.8113184E-002  0.3054792E+03  0.7818608E-02  0.1082578E+00
         21   -1    0    0  503  502  0.00000000000E+00  0.00000000000E+00  0.88718184456E+03  0.88718184456E+03  0.00000000000E+00 0. -1.
         21   -1    0    0  501  503 -0.00000000000E+00 -0.00000000000E+00 -0.11402708833E+03  0.11402708833E+03  0.00000000000E+00 0. -1.
          6    2    1    2  501    0 -0.19114923992E+03  0.16437485306E+03  0.52719535291E+03  0.60930493690E+03  0.17251214959E+03 0.  0.
         24    2    3    3    0    0 -0.99596765777E+02  0.39252043200E+02  0.34397745521E+03  0.36924565025E+03  0.81003838707E+02 0.  0.
         -6    2    1    2    0  502  0.19114923992E+03 -0.16437485306E+03  0.24595940333E+03  0.39190399600E+03  0.17185921492E+03 0.  0.
        -24    2    5    5    0    0  0.40715745571E+02 -0.12571545599E+02  0.39594375193E+02  0.94779282760E+02  0.74830356123E+02 0.  0.
          5    1    3    3  501    0 -0.91552474142E+02  0.12512280986E+03  0.18321789770E+03  0.24005928665E+03  0.47000000000E+01 0. -1.
        -13    1    4    4    0    0  0.13431941402E+02  0.86770118720E+01  0.27629081299E+02  0.31922934049E+02  0.00000000000E+00 0.  1.
         14    1    4    4    0    0 -0.11302870718E+03  0.30575031328E+02  0.31634837391E+03  0.33732271620E+03  0.00000000000E+00 0. -1.
         -5    1    5    5    0  502  0.15043349435E+03 -0.15180330746E+03  0.20636502813E+03  0.29712471324E+03  0.47000000000E+01 0.  1.
         11    1    6    6    0    0 -0.22217973811E+02 -0.21503649135E+01  0.10354614410E+02  0.24606512737E+02  0.00000000000E+00 0. -1.
        -12    1    6    6    0    0  0.62933719382E+02 -0.10421180686E+02  0.29239760783E+02  0.70172770023E+02  0.00000000000E+00 0.  1.
</event>
<event>
12    1  0.8113184E-002  0.2118183E+03  0.7818608E-02  0.1140254E+00
         21   -1    0    0  501  502  0.00000000000E+00  0.00000000000E+00  0.45161610017E+03  0.45161610017E+03  0.00000000000E+00 0. -1.
         21   -1    0    0  502  503 -0.00000000000E+00 -0.00000000000E+00 -0.14417727554E+03  0.14417727554E+03  0.00000000000E+00 0.  1.
         -6    2    1    2    0  503 -0.10333375133E+03  0.68831871829E+02 -0.13074038623E+02  0.21161178429E+03  0.17085937499E+03 0.  0.
        -24    2    3    3    0    0 -0.58730569509E+01  0.36609920476E+02  0.45972682143E+02  0.93098298428E+02  0.71965454154E+02 0.  0.
          6    2    1    2  501    0  0.10333375133E+03 -0.68831871829E+02  0.32051286325E+03  0.38418159142E+03  0.17161383666E+03 0.  0.
         24    2    5    5    0    0  0.98332184082E+02 -0.11067786284E+03  0.26100459469E+03  0.31111021080E+03  0.82142297665E+02 0.  0.
          5    1    5    5  501    0  0.50015672525E+01  0.41845991011E+02  0.59508268567E+02  0.73071380626E+02  0.47000000000E+01 0. -1.
        -11    1    6    6    0    0  0.82933252085E+02 -0.10539849212E+03  0.15987435240E+03  0.20867816129E+03  0.00000000000E+00 0.  1.
         12    1    6    6    0    0  0.15398931997E+02 -0.52793707163E+01  0.10113024228E+03  0.10243204951E+03  0.00000000000E+00 0. -1.
         -5    1    3    3    0  503 -0.97460694384E+02  0.32221951353E+02 -0.59046720766E+02  0.11851348587E+03  0.47000000000E+01 0.  1.
         13    1    4    4    0    0  0.11707594839E+02 -0.17307091632E+02  0.25121707878E+02  0.32675731122E+02  0.00000000000E+00 0. -1.
        -14    1    4    4    0    0 -0.17580651790E+02  0.53917012108E+02  0.20850974265E+02  0.60422567306E+02  0.00000000000E+00 0.  1.
</event>
<event>
12    1  0.8113184E-002  0.2445754E+03  0.7818608E-02  0.1117228E+00
         21   -1    0    0  501  502  0.00000000000E+00  0.00000000000E+00  0.77966118045E+02  0.77966118045E+02  0.00000000000E+00 0. -1.
         21   -1    0    0  502  503 -0.00000000000E+00 -0.00000000000E+00 -0.10773374792E+04  0.10773374792E+04  0.00000000000E+00 0. -1.
         -6    2    1    2    0  503  0.16767723664E+03  0.26183491756E+02 -0.81186870089E+03  0.84712445732E+03  0.17230156054E+03 0.  0.
        -24    2    3    3    0    0  0.15652802567E+03 -0.27339887397E+02 -0.49775230679E+03  0.52825104032E+03  0.77738731804E+02 0.  0.
          6    2    1    2  501    0 -0.16767723664E+03 -0.26183491756E+02 -0.18750266025E+03  0.30817913991E+03  0.17611332644E+03 0.  0.
         24    2    5    5    0    0 -0.66899198286E+02 -0.70919041758E+02 -0.49432665555E+02  0.13142253924E+03  0.72960826339E+02 0.  0.
          5    1    5    5  501    0 -0.10077803836E+03  0.44735550002E+02 -0.13806999469E+03  0.17675660068E+03  0.47000000000E+01 0. -1.
        -13    1    6    6    0    0 -0.52316994554E+02 -0.60226150518E+02 -0.10629995849E+01  0.79783376047E+02  0.00000000000E+00 0.  1.
         14    1    6    6    0    0 -0.14582203733E+02 -0.10692891240E+02 -0.48369665970E+02  0.51639163189E+02  0.00000000000E+00 0. -1.
         -5    1    3    3    0  503  0.11149210972E+02  0.53523379153E+02 -0.31411639410E+03  0.31887341699E+03  0.47000000000E+01 0.  1.
         11    1    4    4    0    0  0.74192155641E+02 -0.35904002619E+02 -0.15397757641E+03  0.17465012854E+03  0.00000000000E+00 0. -1.
        -12    1    4    4    0    0  0.82335870032E+02  0.85641152216E+01 -0.34377473038E+03  0.35360091178E+03  0.00000000000E+00 0.  1.
</event>
<event>
12    1  0.8113184E-002  0.2132336E+03  0.7818608E-02  0.1141572E+00
         21   -1    0    0  501  502  0.00000000000E+00  0.00000000000E+00  0.30473717227E+02  0.30473717227E+02  0.00000000000E+00 0.  1.
         21   -1    0    0  502  503 -0.00000000000E+00 -0.00000000000E+00 -0.18615776023E+04  0.18615776023E+04  0.00000000000E+00 0.  1.
         -6    2    1    2    0  503  0.65493054783E+02 -0.81089749773E+02 -0.14052060677E+04  0.14212926034E+04  0.18602065540E+03 0.  0.
        -24    2    3    3    0    0 -0.12361424737E+02 -0.10118135997E+02 -0.96857409792E+03  0.97210683235E+03  0.81244869627E+02 0.  0.
          6    2    1    2  501    0 -0.65493054783E+02  0.81089749773E+02 -0.42589781742E+03  0.47075871610E+03  0.17134739613E+03 0.  0.
         24    2    5    5    0    0 -0.25814812783E+02  0.10691021215E+03 -0.21280105961E+03  0.25241637629E+03  0.79583528627E+02 0.  0.
          5    1    5    5  501    0 -0.39678242001E+02 -0.25820462374E+02 -0.21309675780E+03  0.21834233980E+03  0.47000000000E+01 0. -1.
        -11    1    6    6    0    0 -0.27061714586E+02 -0.10667785656E+01 -0.33115180579E+02  0.42779546487E+02  0.00000000000E+00 0.  1.
         12    1    6    6    0    0  0.12469018034E+01  0.10797699071E+03 -0.17968587903E+03  0.20963682981E+03  0.00000000000E+00 0. -1.
         -5    1    3    3    0  503  0.77854479520E+02 -0.70971613777E+02 -0.43663196974E+03  0.44918577108E+03  0.47000000000E+01 0.  1.
         13    1    4    4    0    0 -0.21221872248E+02 -0.30621714239E+01 -0.64672242328E+02  0.68134012675E+02  0.00000000000E+00 0. -1.
        -14    1    4    4    0    0  0.88604475107E+01 -0.70559645728E+01 -0.90390185559E+03  0.90397281967E+03  0.00000000000E+00 0.  1.
</event>
<event>
12    1  0.8113184E-002  0.1800928E+03  0.7818608E-02  0.1167725E+00
         21   -1    0    0  503  502  0.00000000000E+00  0.00000000000E+00  0.71152950361E+02  0.71152950361E+02  0.00000000000E+00 0.  1.
         21   -1    0    0  501  503 -0.00000000000E+00 -0.00000000000E+00 -0.81014388478E+03  0.81014388478E+03  0.00000000000E+00 0.  1.
          6    2    1    2  501    0  0.49299360183E+02  0.15729183517E+02 -0.66098388981E+03  0.68507890440E+03  0.17249802474E+03 0.  0.
         24    2    3    3    0    0  0.21736086948E+02 -0.47893336151E+02 -0.23952610027E+03  0.25792984681E+03  0.79930119729E+02 0.  0.
         -6    2    1    2    0  502 -0.49299360183E+02 -0.15729183517E+02 -0.78007044610E+02  0.19621793074E+03  0.17244866832E+03 0.  0.
        -24    2    5    5    0    0 -0.48475326440E+02 -0.42982818122E+02 -0.11288481057E+03  0.15169840481E+03  0.77923331801E+02 0.  0.
          5    1    3    3  501    0  0.27563273234E+02  0.63622519667E+02 -0.42145778954E+03  0.42714905760E+03  0.47000000000E+01 0. -1.
        -11    1    4    4    0    0  0.49408453140E+02 -0.33265156066E+02 -0.19196227277E+03  0.20099074609E+03  0.00000000000E+00 0.  1.
         12    1    4    4    0    0 -0.27672366191E+02 -0.14628180084E+02 -0.47563827503E+02  0.56939100713E+02  0.00000000000E+00 0. -1.
         -5    1    5    5    0  502 -0.82403374271E+00  0.27253634605E+02  0.34877765956E+02  0.44519525928E+02  0.47000000000E+01 0.  1.
         11    1    6    6    0    0 -0.33937382175E+02 -0.14017343392E+02 -0.26675944377E+01  0.36815049705E+02  0.00000000000E+00 0. -1.
        -12    1    6    6    0    0 -0.14537944265E+02 -0.28965474730E+02 -0.11021721613E+03  0.11488335511E+03  0.00000000000E+00 0.  1.
</event>
<event>
12    1  0.8113184E-002  0.1920005E+03  0.7818608E-02  0.1157215E+00
         21   -1    0    0  501  502  0.00000000000E+00  0.00000000000E+00  0.36793724047E+02  0.36793724047E+02  0.00000000000E+00 0.  1.
         21   -1    0    0  502  503 -0.00000000000E+00 -0.00000000000E+00 -0.10641975225E+04  0.10641975225E+04  0.00000000000E+00 0.  1.
         -6    2    1    2    0  503 -0.40094637994E+02  0.76499431807E+02 -0.66286113709E+03  0.69010801106E+03  0.17147721945E+03 0.  0.
        -24    2    3    3    0    0  0.33260048635E+02  0.51504931748E+02 -0.28329494640E+03  0.30268289803E+03  0.87188997444E+02 0.  0.
          6    2    1    2  501    0  0.40094637994E+02 -0.76499431807E+02 -0.36454266131E+03  0.41088323545E+03  0.16874222409E+03 0.  0.
         24    2    5    5    0    0  0.85627083992E+02 -0.71493356727E+02 -0.22337159945E+03  0.26239208038E+03  0.80693462156E+02 0.  0.
          5    1    5    5  501    0 -0.45532445998E+02 -0.50060750798E+01 -0.14117106186E+03  0.14849115507E+03  0.47000000000E+01 0. -1.
        -11    1    6    6    0    0  0.14543028232E+02  0.92140492206E+01 -0.34170317901E+01  0.17552050577E+02  0.00000000000E+00 0.  1.
         12    1    6    6    0    0  0.71084055760E+02 -0.80707405947E+02 -0.21995456766E+03  0.24484002980E+03  0.00000000000E+00 0. -1.
         -5    1    3    3    0  503 -0.73354686629E+02  0.24994500059E+02 -0.37956619069E+03  0.38742511302E+03  0.47000000000E+01 0.  1.
         11    1    4    4    0    0  0.41919149400E+02  0.66403569925E+02 -0.16045958622E+03  0.17864469764E+03  0.00000000000E+00 0. -1.
        -12    1    4    4    0    0 -0.86591007647E+01 -0.14898638177E+02 -0.12283536018E+03  0.12403820039E+03  0.00000000000E+00 0.  1.
</event>
<event>
12    1  0.8113184E-002  0.1786465E+03  0.7818608E-02  0.1171435E+00
         21   -1    0    0  503  502  0.00000000000E+00  0.00000000000E+00  0.25876819065E+03  0.25876819065E+03  0.00000000000E+00 0. -1.
         21   -1    0    0  501  503 -0.00000000000E+00 -0.00000000000E+00 -0.14940192077E+03  0.14940192077E+03  0.00000000000E+00 0. -1.
          6    2    1    2  501    0 -0.23111061274E+01  0.45588732043E+02 -0.41384585811E+02  0.17441727635E+03  0.16317177649E+03 0.  0.
         24    2    3    3    0    0  0.53414402326E+02 -0.10799673049E+01 -0.86582629182E+01  0.94564900043E+02  0.77545406686E+02 0.  0.
         -6    2    1    2    0  502  0.23111061274E+01 -0.45588732043E+02  0.15075085569E+03  0.23375283507E+03  0.17271622307E+03 0.  0.
        -24    2    5    5    0    0 -0.36989477288E+02 -0.29803863096E+02  0.21431673632E+02  0.97593961717E+02  0.82515289755E+02 0.  0.
          5    1    3    3  501    0 -0.55725508453E+02  0.46668699348E+02 -0.32726322893E+02  0.79852376303E+02  0.47000000000E+01 0. -1.
        -11    1    4    4    0    0  0.84424762902E+01 -0.94161299764E-01 -0.39261452082E+02  0.40159007606E+02  0.00000000000E+00 0.  1.
         12    1    4    4    0    0  0.44971926036E+02 -0.98580600515E+00  0.30603189164E+02  0.54405892437E+02  0.00000000000E+00 0. -1.
         -5    1    5    5    0  502  0.39300583416E+02 -0.15784868947E+02  0.12931918206E+03  0.13615887336E+03  0.47000000000E+01 0.  1.
         11    1    6    6    0    0 -0.43640362208E+02 -0.51095957607E+02  0.78757153059E+00  0.67200434272E+02  0.00000000000E+00 0. -1.
        -12    1    6    6    0    0  0.66508849200E+01  0.21292094512E+02  0.20644102102E+02  0.30393527444E+02  0.00000000000E+00 0.  1.
</event>
<event>
12    1  0.8113184E-002  0.2369282E+03  0.7818608E-02  0.1122019E+00
         21   -1    0    0  503  502  0.00000000000E+00  0.00000000000E+00  0.11020312056E+04  0.11020312056E+04  0.00000000000E+00 0.  1.
         21   -1    0    0  501  503 -0.00000000000E+00 -0.00000000000E+00 -0.12258587705E+03  0.12258587705E+03  0.00000000000E+00 0. -1.
          6    2    1    2  501    0 -0.57066816215E+02 -0.15085356106E+03  0.21346260823E+02  0.23788785488E+03  0.17355561141E+03 0.  0.
         24    2    3    3    0    0 -0.37534415946E+02 -0.14528537627E+02  0.32384283887E+01  0.98905804715E+02  0.90288205221E+02 0.  0.
         -6    2    1    2    0  502  0.57066816215E+02  0.15085356106E+03  0.95809906770E+03  0.98672922775E+03  0.17224205924E+03 0.  0.
        -24    2    5    5    0    0  0.49404044021E+02  0.38713334742E+02  0.66968077179E+03  0.67714668327E+03  0.78203661653E+02 0.  0.
          5    1    3    3  501    0 -0.19532400269E+02 -0.13632502343E+03  0.18107832435E+02  0.13898205017E+03  0.47000000000E+01 0. -1.
        -13    1    4    4    0    0 -0.34470822624E+02  0.67276398123E+01  0.41904382489E+02  0.54676101010E+02  0.00000000000E+00 0.  1.
         14    1    4    4    0    0 -0.30635933216E+01 -0.21256177440E+02 -0.38665954101E+02  0.44229703706E+02  0.00000000000E+00 0. -1.
         -5    1    5    5    0  502  0.76627721937E+01  0.11214022631E+03  0.28841829590E+03  0.30958254448E+03  0.47000000000E+01 0.  1.
         11    1    6    6    0    0 -0.21821031823E+01  0.11341695573E+02  0.11223152507E+02  0.16104495800E+02  0.00000000000E+00 0. -1.
        -12    1    6    6    0    0  0.51586147203E+02  0.27371639169E+02  0.65845761929E+03  0.66104218747E+03  0.00000000000E+00 0.  1.
</event>
<event>
12    1  0.8113184E-002  0.3029684E+03  0.7818608E-02  0.1083871E+00
         21   -1    0    0  503  502  0.00000000000E+00  0.00000000000E+00  0.79264180718E+03  0.79264180718E+03  0.00000000000E+00 0. -1.
         21   -1    0    0  501  503 -0.00000000000E+00 -0.00000000000E+00 -0.12193561748E+03  0.12193561748E+03  0.00000000000E+00 0.  1.
          6    2    1    2  501    0 -0.10419364121E+03  0.22474611189E+03  0.22967505487E+03  0.37950891685E+03  0.17294293122E+03 0.  0.
         24    2    3    3    0    0 -0.11563180830E+02  0.18264173141E+03  0.16093056262E+03  0.25662248041E+03  0.80403620971E+02 0.  0.
         -6    2    1    2    0  502  0.10419364121E+03 -0.22474611189E+03  0.44103113484E+03  0.53506850781E+03  0.17442108954E+03 0.  0.
        -24    2    5    5    0    0  0.44275493015E+02 -0.22395937173E+03  0.36816823393E+03  0.44061272042E+03  0.80458694091E+02 0.  0.
          5    1    3    3  501    0 -0.92630460375E+02  0.42104380489E+02  0.68744492251E+02  0.12288643644E+03  0.47000000000E+01 0. -1.
        -13    1    4    4    0    0  0.31644461970E+02  0.59815004963E+02  0.38279381728E+02  0.77746497397E+02  0.00000000000E+00 0.  1.
         14    1    4    4    0    0 -0.43207642800E+02  0.12282672644E+03  0.12265118089E+03  0.17887598301E+03  0.00000000000E+00 0. -1.
         -5    1    5    5    0  502  0.59918148190E+02 -0.78674016521E+00  0.72862900906E+02  0.94455787388E+02  0.47000000000E+01 0.  1.
         13    1    6    6    0    0  0.37194786416E+02 -0.22944407402E+03  0.35983060169E+03  0.42837611646E+03  0.00000000000E+00 0. -1.
        -14    1    6    6    0    0  0.70807065984E+01  0.54847022921E+01  0.83376322431E+01  0.12236603965E+02  0.00000000000E+00 0.  1.
</event>
<event>
12    1  0.8113184E-002  0.2017661E+03  0.7818608E-02  0.1148892E+00
         21   -1    0    0  503  502  0.00000000000E+00  0.00000000000E+00  0.36057109462E+03  0.36057109462E+03  0.00000000000E+00 0. -1.
         21   -1    0    0  501  503 -0.00000000000E+00 -0.00000000000E+00 -0.16527508806E+03  0.16527508806E+03  0.00000000000E+00 0. -1.
          6    2    1    2  501    0  0.94742794973E+02 -0.41801053970E+02 -0.52217524411E+02  0.20841359026E+03  0.17316474652E+03 0.  0.
         24    2    3    3    0    0  0.89300668536E+02  0.34611968496E+02 -0.29988152849E+02  0.12850863608E+03  0.80265699226E+02 0.  0.
         -6    2    1    2    0  502 -0.94742794973E+02  0.41801053970E+02  0.24751353097E+03  0.31743259242E+03  0.16963778295E+03 0.  0.
        -24    2    5    5    0    0 -0.67012993789E+02 -0.15028607947E+02  0.22741867715E+03  0.25091608697E+03  0.80765262273E+02 0.  0.
          5    1    3    3  501    0  0.54421264368E+01 -0.76413022465E+02 -0.22229371562E+02  0.79904954180E+02  0.47000000000E+01 0. -1.
        -13    1    4    4    0    0  0.25057076059E+02  0.30570050507E+02 -0.47503300533E+02  0.61797642432E+02  0.00000000000E+00 0.  1.
         14    1    4    4    0    0  0.64243592477E+02  0.40419179882E+01  0.17515147684E+02  0.66710993650E+02  0.00000000000E+00 0. -1.
         -5    1    5    5    0  502 -0.27729801184E+02  0.56829661917E+02  0.20094853825E+02  0.66516505452E+02  0.47000000000E+01 0.  1.
         13    1    6    6    0    0 -0.43775909850E+02  0.21096910177E+02  0.55753077033E+02  0.73958201039E+02  0.00000000000E+00 0. -1.
        -14    1    6    6    0    0 -0.23237083939E+02 -0.36125518124E+02  0.17166560011E+03  0.17695788593E+03  0.00000000000E+00 0.  1.
</event>
<event>
12    1  0.8113184E-002  0.2129549E+03  0.7818608E-02  0.1139686E+00
         21   -1    0    0  501  502  0.00000000000E+00  0.00000000000E+00  0.94776294592E+02  0.94776294592E+02  0.00000000000E+00 0.  1.
         21   -1    0    0  502  503 -0.00000000000E+00 -0.00000000000E+00 -0.72372465678E+03  0.72372465678E+03  0.00000000000E+00 0. -1.
         -6    2    1    2    0  503  0.12290650894E+03 -0.97338364132E+01 -0.55622154265E+03  0.59559397989E+03  0.17363475133E+03 0.  0.
        -24    2    3    3    0    0  0.79329649650E+02 -0.73331611334E+02 -0.38382489720E+03  0.40668576673E+03  0.80006516069E+02 0.  0.
          6    2    1    2  501    0 -0.12290650894E+03  0.97338364132E+01 -0.72726819540E+02  0.22290697148E+03  0.17087296492E+03 0.  0.
         24    2    5    5    0    0 -0.12460606445E+03 -0.41287898619E+02 -0.32827452160E+02  0.15794424792E+03  0.81470129287E+02 0.  0.
          5    1    5    5  501    0  0.16995555100E+01  0.51021735032E+02 -0.39899367380E+02  0.64962723557E+02  0.47000000000E+01 0. -1.
        -13    1    6    6    0    0 -0.25508215817E+02 -0.48672972604E+02 -0.81478139492E+01  0.55552805586E+02  0.00000000000E+00 0.  1.
         14    1    6    6    0    0 -0.99097848631E+02  0.73850739847E+01 -0.24679638211E+02  0.10239144233E+03  0.00000000000E+00 0. -1.
         -5    1    3    3    0  503  0.43576859288E+02  0.63597774921E+02 -0.17239664544E+03  0.18890821316E+03  0.47000000000E+01 0.  1.
         11    1    4    4    0    0 -0.12212502314E+02 -0.17017171994E+02 -0.11990717464E+03  0.12172288152E+03  0.00000000000E+00 0. -1.
        -12    1    4    4    0    0  0.91542151964E+02 -0.56314439340E+02 -0.26391772257E+03  0.28496288521E+03  0.00000000000E+00 0.  1.
</event>
<event>
12    1  0.8113184E-002  0.2009314E+03  0.7818608E-02  0.1149632E+00
         21   -1    0    0  503  502  0.00000000000E+00  0.00000000000E+00  0.33444133031E+03  0.33444133031E+03  0.00000000000E+00 0.  1.
         21   -1    0    0  501  503 -0.00000000000E+00 -0.00000000000E+00 -0.12563508287E+03  0.12563508287E+03  0.00000000000E+00 0.  1.
          6    2    1    2  501    0  0.10084857144E+03  0.20951917526E+02  0.15883346642E+03  0.25612789504E+03  0.17252249520E+03 0.  0.
         24    2    3    3    0    0  0.30620349831E+02 -0.30738172166E+02  0.23514570871E+02  0.95077710385E+02  0.81267428389E+02 0.  0.
         -6    2    1    2    0  502 -0.10084857144E+03 -0.20951917526E+02  0.49972781017E+02  0.20394851815E+03  0.16878478012E+03 0.  0.
        -24    2    5    5    0    0  0.11790174206E+02 -0.26560231537E+02  0.15483205061E+02  0.85920720332E+02  0.79361114133E+02 0.  0.
          5    1    3    3  501    0  0.70228221611E+02  0.51690089692E+02  0.13531889555E+03  0.16105018465E+03  0.47000000000E+01 0. -1.
        -13    1    4    4    0    0  0.35173916937E+02 -0.55748675043E+02  0.11319653794E+02  0.66882387545E+02  0.00000000000E+00 0.  1.
         14    1    4    4    0    0 -0.45535671061E+01  0.25010502877E+02  0.12194917077E+02  0.28195322840E+02  0.00000000000E+00 0. -1.
         -5    1    5    5    0  502 -0.11263874565E+03  0.56083140103E+01  0.34489575957E+02  0.11802779781E+03  0.47000000000E+01 0.  1.
         11    1    6    6    0    0  0.20691349350E+02  0.24849770396E+02  0.62673412517E+01  0.32938163170E+02  0.00000000000E+00 0. -1.
        -12    1    6    6    0    0 -0.89011751445E+01 -0.51410001933E+02  0.92158638088E+01  0.52982557162E+02  0.00000000000E+00 0.  1.
</event>
<event>
12    1  0.8113184E-002  0.2204717E+03  0.7818608E-02  0.1134484E+00
         21   -1    0    0  501  502  0.00000000000E+00  0.00000000000E+00  0.87129279545E+03  0.87129279545E+03  0.00000000000E+00 0.  1.
         21   -1    0    0  502  503 -0.00000000000E+00 -0.00000000000E+00 -0.60119239821E+02  0.60119239821E+02  0.00000000000E+00 0.  1.
         -6    2    1    2    0  503  0.91417081924E+01  0.12872930573E+03  0.26768384921E+03  0.34678872947E+03  0.17875395039E+03 0.  0.
        -24    2    3    3    0    0 -0.37889035278E+02  0.13118436096E+03  0.14308602738E+03  0.21350472694E+03  0.80409835458E+02 0.  0.
          6    2    1    2  501    0 -0.91417081924E+01 -0.12872930573E+03  0.54348970642E+03  0.58462330580E+03  0.17247766149E+03 0.  0.
         24    2    5    5    0    0  0.10107153719E+02 -0.15133206633E+03  0.36847637722E+03  0.40704752234E+03  0.83122175272E+02 0.  0.
          5    1    5    5  501    0 -0.19248861911E+02  0.22602760596E+02  0.17501332920E+03  0.17757578345E+03  0.47000000000E+01 0. -1.
        -11    1    6    6    0    0  0.36787699184E+02 -0.12775086035E+03  0.24756385398E+03  0.28100085218E+03  0.00000000000E+00 0.  1.
         12    1    6    6    0    0 -0.26680545465E+02 -0.23581205975E+02  0.12091252324E+03  0.12604667016E+03  0.00000000000E+00 0. -1.
         -5    1    3    3    0  503  0.47030743471E+02 -0.24550552299E+01  0.12459782183E+03  0.13328400254E+03  0.47000000000E+01 0.  1.
         11    1    4    4    0    0 -0.14734316149E+02  0.70290885231E+02  0.20506800838E+02  0.74688938268E+02  0.00000000000E+00 0. -1.
        -12    1    4    4    0    0 -0.23154719130E+02  0.60893475728E+02  0.12257922654E+03  0.13881578867E+03  0.00000000000E+00 0.  1.
</event>
<event>
12    1  0.8113184E-002  0.2036454E+03  0.7818608E-02  0.1146990E+00
         21   -1    0    0  501  502  0.00000000000E+00  0.00000000000E+00  0.53776976992E+03  0.53776976992E+03  0.00000000000E+00 0.  1.
         21   -1    0    0  502  503 -0.00000000000E+00 -0.00000000000E+00 -0.12010940977E+03  0.12010940977E+03  0.00000000000E+00 0. -1.
         -6    2    1    2    0  503 -0.98884668587E+02 -0.39447206422E+02  0.11280503894E+02  0.20395757216E+03  0.17360063852E+03 0.  0.
        -24    2    3    3    0    0 -0.10045159106E+03  0.31181755474E+02 -0.21414298089E+01  0.13189410146E+03  0.79552776551E+02 0.  0.
          6    2    1    2  501    0  0.98884668587E+02  0.39447206422E+02  0.40637985626E+03  0.45392160753E+03  0.17194760375E+03 0.  0.
         24    2    5    5    0    0 -0.12311937175E+02 -0.53667261101E+00  0.17184534277E+03  0.19125847016E+03  0.83048833602E+02 0.  0.
          5    1    5    5  501    0  0.11119660576E+03  0.39983879033E+02  0.23453451349E+03  0.26266313737E+03  0.47000000000E+01 0. -1.
        -11    1    6    6    0    0  0.27785997132E+02  0.22393133978E+02  0.54446692674E+02  0.65099588548E+02  0.00000000000E+00 0.  1.
         12    1    6    6    0    0 -0.40097934307E+02 -0.22929806589E+02  0.11739865009E+03  0.12615888161E+03  0.00000000000E+00 0. -1.
         -5    1    3    3    0  503  0.15669224762E+01 -0.70628961896E+02  0.13421933702E+02  0.72063470697E+02  0.47000000000E+01 0.  1.
         13    1    4    4    0    0  0.16686277058E+01 -0.11248674780E+02 -0.16857962526E+02  0.20334893736E+02  0.00000000000E+00 0. -1.
        -14    1    4    4    0    0 -0.10212021877E+03  0.42430430254E+02  0.14716532717E+02  0.11155920773E+03  0.00000000000E+00 0.  1.
</event>
<event>
12    1  0.8113184E-002  0.2062580E+03  0.7818608E-02  0.1144587E+00
         21   -1    0    0  501  502  0.00000000000E+00  0.00000000000E+00  0.32321751296E+03  0.32321751296E+03  0.00000000000E+00 0.  1.
         21   -1    0    0  502  503 -0.00000000000E+00 -0.00000000000E+00 -0.21183807518E+03  0.21183807518E+03  0.00000000000E+00 0.  1.
         -6    2    1    2    0  503 -0.46140718813E+02 -0.10355716084E+03 -0.10900267247E+03  0.23328941669E+03  0.17230588453E+03 0.  0.
        -24    2    3    3    0    0  0.16038180475E+02 -0.10253075335E+03 -0.32452052712E+02  0.13455058738E+03  0.79252420937E+02 0.  0.
          6    2    1    2  501    0  0.46140718813E+02  0.10355716084E+03  0.22038211024E+03  0.30176617145E+03  0.17216705905E+03 0.  0.
         24    2    5    5    0    0  0.44263036182E+02  0.11585016817E+03  0.23786793052E+03  0.27980057033E+03  0.79540737675E+02 0.  0.
          5    1    5    5  501    0  0.18776826310E+01 -0.12293007334E+02 -0.17485820282E+02  0.21965601114E+02  0.47000000000E+01 0. -1.
        -13    1    6    6    0    0  0.67143997804E+02  0.76257924330E+02  0.16426758329E+03  0.19315130438E+03  0.00000000000E+00 0.  1.
         14    1    6    6    0    0 -0.22880961622E+02  0.39592243842E+02  0.73600347231E+02  0.86649265950E+02  0.00000000000E+00 0. -1.
         -5    1    3    3    0  503 -0.62178899288E+02 -0.10264074891E+01 -0.76550619756E+02  0.98738829312E+02  0.47000000000E+01 0.  1.
         11    1    4    4    0    0  0.24442725489E+02  0.53396733910E+00  0.42665667367E+01  0.24818048718E+02  0.00000000000E+00 0. -1.
        -12    1    4    4    0    0 -0.84045450144E+01 -0.10306472069E+03 -0.36718619448E+02  0.10973253866E+03  0.00000000000E+00 0.  1.
</event>
<event>
12    1  0.8113184E-002  0.2193553E+03  0.7818608E-02  0.1134787E+00
         21   -1    0    0  503  502  0.00000000000E+00  0.00000000000E+00  0.44613336326E+03  0.44613336326E+03  0.00000000000E+00 0.  1.
         21   -1    0    0  501  503 -0.00000000000E+00 -0.00000000000E+00 -0.10844853582E+03  0.10844853582E+03  0.00000000000E+00 0. -1.
          6    2    1    2  501    0 -0.12374443162E+03 -0.45976501431E+02  0.20267793447E+03  0.29700938656E+03  0.17236504154E+03 0.  0.
         24    2    3    3    0    0 -0.98761156932E+02 -0.35056567513E+02  0.22557852270E+03  0.26109370876E+03  0.79382150405E+02 0.  0.
         -6    2    1    2    0  502  0.12374443162E+03  0.45976501431E+02  0.13500689297E+03  0.25757251252E+03  0.17518622953E+03 0.  0.
        -24    2    5    5    0    0  0.13323635982E+03  0.85555953715E+02  0.11713964574E+03  0.21287398606E+03  0.80758210377E+02 0.  0.
          5    1    3    3  501    0 -0.24983274686E+02 -0.10919933918E+02 -0.22900588236E+02  0.35915677807E+02  0.47000000000E+01 0. -1.
        -13    1    4    4    0    0 -0.17012291937E+02 -0.92732169339E+01  0.13500842171E+03  0.13639165870E+03  0.00000000000E+00 0.  1.
         14    1    4    4    0    0 -0.81748864995E+02 -0.25783350579E+02  0.90570100990E+02  0.12470205006E+03  0.00000000000E+00 0. -1.
         -5    1    5    5    0  502 -0.94919281993E+01 -0.39579452284E+02  0.17867247233E+02  0.44698526461E+02  0.47000000000E+01 0.  1.
         11    1    6    6    0    0  0.10912980421E+03  0.26541298394E+02  0.88491540435E+02  0.14298429080E+03  0.00000000000E+00 0. -1.
        -12    1    6    6    0    0  0.24106555610E+02  0.59014655321E+02  0.28648105304E+02  0.69889695260E+02  0.00000000000E+00 0.  1.
</event>
<event>
12    1  0.8113184E-002  0.2044670E+03  0.7818608E-02  0.1146579E+00
         21   -1    0    0  501  502  0.00000000000E+00  0.00000000000E+00  0.75276436371E+02  0.75276436371E+02  0.00000000000E+00 0.  1.
         21   -1    0    0  502  503 -0.00000000000E+00 -0.00000000000E+00 -0.65945036685E+03  0.65945036685E+03  0.00000000000E+00 0. -1.
         -6    2    1    2    0  503  0.77125796781E+01 -0.10549012104E+03 -0.44143643719E+03  0.48536614562E+03  0.17183281907E+03 0.  0.
        -24    2    3    3    0    0  0.72862867758E+01 -0.13181413812E+03 -0.26227276103E+03  0.30421745405E+03  0.79581412331E+02 0.  0.
          6    2    1    2  501    0 -0.77125796781E+01  0.10549012104E+03 -0.14273749329E+03  0.24936065760E+03  0.17498313075E+03 0.  0.
         24    2    5    5    0    0  0.25941981568E+02  0.51291174590E+02 -0.15148887676E+02  0.10663330363E+03  0.88529100569E+02 0.  0.
          5    1    5    5  501    0 -0.33654561246E+02  0.54198946451E+02 -0.12758860561E+03  0.14272735397E+03  0.47000000000E+01 0. -1.
        -11    1    6    6    0    0 -0.29336202827E+02  0.37821966151E+02 -0.44145329702E+00  0.47867617455E+02  0.00000000000E+00 0.  1.
         12    1    6    6    0    0  0.55278184395E+02  0.13469208440E+02 -0.14707434379E+02  0.58765686179E+02  0.00000000000E+00 0. -1.
         -5    1    3    3    0  503  0.42629290226E+00  0.26324017076E+02 -0.17916367616E+03  0.18114869156E+03  0.47000000000E+01 0.  1.
         13    1    4    4    0    0  0.40552292717E+02 -0.84335093776E+02 -0.18796009292E+03  0.20996640926E+03  0.00000000000E+00 0. -1.
        -14    1    4    4    0    0 -0.33266005941E+02 -0.47479044342E+02 -0.74312668116E+02  0.94251044798E+02  0.00000000000E+00 0.  1.
</event>
<event>
12    1  0.8113184E-002  0.1732389E+03  0.7818608E-02  0.1174601E+00
         21   -1    0    0  501  502  0.00000000000E+00  0.00000000000E+00  0.15836704547E+03  0.15836704547E+03  0.00000000000E+00 0.  1.
         21   -1    0    0  502  503 -0.00000000000E+00 -0.00000000000E+00 -0.19099364005E+03  0.19099364005E+03  0.00000000000E+00 0.  1.
         -6    2    1    2    0  503 -0.55306803552E+01 -0.12615690594E+02  0.95203536942E+00  0.17324146660E+03  0.17269034514E+03 0.  0.
        -24    2    3    3    0    0  0.49828051646E+02 -0.10862669133E+02  0.45226178561E+02  0.10217845197E+03  0.76119619738E+02 0.  0.
          6    2    1    2  501    0  0.55306803552E+01  0.12615690594E+02 -0.33578629954E+02  0.17611921891E+03  0.17233894164E+03 0.  0.
         24    2    5    5    0    0  0.55767152042E+02  0.45588512385E+02 -0.42678585196E+02  0.11516178089E+03  0.79072665542E+02 0.  0.
          5    1    5    5  501    0 -0.50236471687E+02 -0.32972821791E+02  0.90999552411E+01  0.60957438018E+02  0.47000000000E+01 0. -1.
        -11    1    6    6    0    0  0.17032002502E+02  0.11811496149E+02 -0.57951752582E+02  0.61546780402E+02  0.00000000000E+00 0.  1.
         12    1    6    6    0    0  0.38735149540E+02  0.33777016237E+02  0.15273167387E+02  0.53615000492E+02  0.00000000000E+00 0. -1.
         -5    1    3    3    0  503 -0.55358732001E+02 -0.17530214617E+01 -0.44274143192E+02  0.71063014631E+02  0.47000000000E+01 0.  1.
         13    1    4    4    0    0  0.12948194347E+02  0.22428307526E+02 -0.10119080600E+02  0.27804325338E+02  0.00000000000E+00 0. -1.
        -14    1    4    4    0    0  0.36879857299E+02 -0.33290976659E+02  0.55345259161E+02  0.74374126636E+02  0.00000000000E+00 0.  1.
</event>
<event>
12    1  0.8113184E-002  0.2176290E+03  0.7818608E-02  0.1135747E+00
         21   -1    0    0  501  502  0.00000000000E+00  0.00000000000E+00  0.20861480484E+03  0.20861480484E+03  0.00000000000E+00 0.  1.
         21   -1    0    0  502  503 -0.00000000000E+00 -0.00000000000E+00 -0.35543622550E+03  0.35543622550E+03  0.00000000000E+00 0.  1.
         -6    2    1    2    0  503  0.56772741350E+02 -0.11907589222E+03 -0.24317686276E+03  0.32604524075E+03  0.17253492450E+03 0.  0.
        -24    2    3    3    0    0  0.11253506903E+02 -0.18406395673E+01 -0.52279422370E+02  0.97396978319E+02  0.81381840792E+02 0.  0.
          6    2    1    2  501    0 -0.56772741350E+02  0.11907589222E+03  0.96355442090E+02  0.23800578959E+03  0.17309007016E+03 0.  0.
         24    2    5    5    0    0 -0.56582591671E+01  0.13938044078E+03  0.60785274634E+02  0.17233774718E+03  0.80910606978E+02 0.  0.
          5    1    5    5  501    0 -0.51114482183E+02 -0.20304548561E+02  0.35570167457E+02  0.65668042410E+02  0.47000000000E+01 0. -1.
        -13    1    6    6    0    0 -0.32227072397E+02  0.69433929224E+02  0.60410035752E+02  0.97514240715E+02  0.00000000000E+00 0.  1.
         14    1    6    6    0    0  0.26568813230E+02  0.69946511555E+02  0.37523888202E+00  0.74823506463E+02  0.00000000000E+00 0. -1.
         -5    1    3    3    0  503  0.45519234446E+02 -0.11723525265E+03 -0.19089744038E+03  0.22864826243E+03  0.47000000000E+01 0.  1.
         13    1    4    4    0    0  0.10798653696E+02  0.25832075030E+02 -0.62027663018E+02  0.68053934504E+02  0.00000000000E+00 0. -1.
        -14    1    4    4    0    0  0.45485320749E+00 -0.27672714597E+02  0.97482406475E+01  0.29343043815E+02  0.00000000000E+00 0.  1.
</event>
<event>
12    1  0.8113184E-002  0.1907566E+03  0.7818608E-02  0.1157870E+00
         21   -1    0    0  501  502  0.00000000000E+00  0.00000000000E+00  0.16160406521E+03  0.16160406521E+03  0.00000000000E+00 0. -1.
         21   -1    0    0  502  503 -0.00000000000E+00 -0.00000000000E+00 -0.41779134437E+03  0.41779134437E+03  0.00000000000E+00 0. -1.
         -6    2    1    2    0  503  0.73748004873E+02  0.33916812505E+02 -0.32511110793E+03  0.37694206641E+03  0.17262378323E+03 0.  0.
        -24    2    3    3    0    0  0.33188366602E+02  0.41948330749E+02 -0.32088288410E+03  0.33511435527E+03  0.80465369405E+02 0.  0.
          6    2    1    2  501    0 -0.73748004873E+02 -0.33916812505E+02  0.68923828765E+02  0.20245334317E+03  0.17218520144E+03 0.  0.
         24    2    5    5    0    0 -0.66305902726E+01  0.35731130031E+02  0.70752137255E+01  0.87549364015E+02  0.79335705137E+02 0.  0.
          5    1    5    5  501    0 -0.67117414601E+02 -0.69647942536E+02  0.61848615040E+02  0.11490397915E+03  0.47000000000E+01 0. -1.
        -11    1    6    6    0    0  0.13374742734E+02  0.30266697501E+02  0.37953732188E+02  0.50353177732E+02  0.00000000000E+00 0.  1.
         12    1    6    6    0    0 -0.20005333006E+02  0.54644325306E+01 -0.30878518462E+02  0.37196186283E+02  0.00000000000E+00 0. -1.
         -5    1    3    3    0  503  0.40559638271E+02 -0.80315182441E+01 -0.42282238281E+01  0.41827711134E+02  0.47000000000E+01 0.  1.
         11    1    4    4    0    0  0.34421143722E+02  0.10209573637E+02 -0.45758795354E+02  0.58162856543E+02  0.00000000000E+00 0. -1.
        -12    1    4    4    0    0 -0.12327771195E+01  0.31738757111E+02 -0.27512408874E+03  0.27695149873E+03  0.00000000000E+00 0.  1.
</event>
<event>
12    1  0.8113184E-002  0.2216224E+03  0.7818608E-02  0.1132989E+00
         21   -1    0    0  501  502  0.00000000000E+00  0.00000000000E+00  0.49169649118E+02  0.49169649118E+02  0.00000000000E+00 0.  1.
         21   -1    0    0  502  503 -0.00000000000E+00 -0.00000000000E+00 -0.17164178934E+04  0.17164178934E+04  0.00000000000E+00 0. -1.
         -6    2    1    2    0  503 -0.56761898561E+02 -0.12570232435E+03 -0.14055466727E+04  0.14226528775E+04  0.17133818377E+03 0.  0.
        -24    2    3    3    0    0 -0.10210725534E+03 -0.92770632646E+02 -0.90176485913E+03  0.91574173795E+03  0.79817213668E+02 0.  0.
          6    2    1    2  501    0  0.56761898561E+02  0.12570232435E+03 -0.26170157159E+03  0.34293466504E+03  0.17347473717E+03 0.  0.
         24    2    5    5    0    0 -0.19209556402E+02  0.11285470352E+03 -0.19828769040E+03  0.24303404613E+03  0.81500602764E+02 0.  0.
          5    1    5    5  501    0  0.75971454963E+02  0.12847620837E+02 -0.63413881190E+02  0.99900618907E+02  0.47000000000E+01 0. -1.
        -11    1    6    6    0    0  0.74437568896E+01  0.10862858351E+03 -0.18021840264E+03  0.21055700254E+03  0.00000000000E+00 0.  1.
         12    1    6    6    0    0 -0.26653313292E+02  0.42261200056E+01 -0.18069287767E+02  0.32477043587E+02  0.00000000000E+00 0. -1.
         -5    1    3    3    0  503  0.45345356783E+02 -0.32931691707E+02 -0.50378181353E+03  0.50691113950E+03  0.47000000000E+01 0.  1.
         13    1    4    4    0    0 -0.55367322627E+02 -0.17398269034E+02 -0.54654543314E+03  0.54961818625E+03  0.00000000000E+00 0. -1.
        -14    1    4    4    0    0 -0.46739932718E+02 -0.75372363612E+02 -0.35521942599E+03  0.36612355170E+03  0.00000000000E+00 0.  1.
</event>
<event>
12    1  0.8113184E-002  0.1916806E+03  0.7818608E-02  0.1157113E+00
         21   -1    0    0  503  502  0.00000000000E+00  0.00000000000E+00  0.21355575834E+03  0.21355575834E+03  0.00000000000E+00 0.  1.
         21   -1    0    0  501  503 -0.00000000000E+00 -0.00000000000E+00 -0.20235503913E+03  0.20235503913E+03  0.00000000000E+00 0.  1.
          6    2    1    2  501    0  0.14750441319E+02 -0.80873231078E+02 -0.75715327574E+02  0.20609285871E+03  0.17315715566E+03 0.  0.
         24    2    3    3    0    0  0.47554996471E+02 -0.95960974703E+02 -0.11062274873E+02  0.13189120057E+03  0.76176955231E+02 0.  0.
         -6    2    1    2    0  502 -0.14750441319E+02  0.80873231078E+02  0.86916046783E+02  0.20981793876E+03  0.17236911908E+03 0.  0.
        -24    2    5    5    0    0 -0.49404492388E+02 -0.73762480075E+01  0.56160471242E+02  0.11003382559E+03  0.80363121767E+02 0.  0.
          5    1    3    3  501    0 -0.32804555152E+02  0.15087743625E+02 -0.64653052701E+02  0.74201658134E+02  0.47000000000E+01 0. -1.
        -13    1    4    4    0    0  0.38479328262E+02 -0.24199056650E+02  0.24115936516E+02  0.51457083481E+02  0.00000000000E+00 0.  1.
         14    1    4    4    0    0  0.90756682082E+01 -0.71761918052E+02 -0.35178211389E+02  0.80434117093E+02  0.00000000000E+00 0. -1.
         -5    1    5    5    0  502  0.34654051069E+02  0.88249479086E+02  0.30755575542E+02  0.99784113171E+02  0.47000000000E+01 0.  1.
         11    1    6    6    0    0  0.10149867411E+02 -0.93238873300E+01  0.47941711682E+02  0.49883488274E+02  0.00000000000E+00 0. -1.
        -12    1    6    6    0    0 -0.59554359799E+02  0.19476393225E+01  0.82187595597E+01  0.60150337312E+02  0.00000000000E+00 0.  1.
</event>
<event>
12    1  0.8113184E-002  0.1874955E+03  0.7818608E-02  0.1160857E+00
         21   -1    0    0  503  502  0.00000000000E+00  0.00000000000E+00  0.25786647004E+03  0.25786647004E+03  0.00000000000E+00 0. -1.
         21   -1    0    0  501  503 -0.00000000000E+00 -0.00000000000E+00 -0.13599355019E+03  0.13599355019E+03  0.00000000000E+00 0. -1.
          6    2    1    2  501    0 -0.53707705966E+02  0.48403123900E+02  0.64204367709E+02  0.19818370164E+03  0.17299479379E+03 0.  0.
         24    2    3    3    0    0 -0.74823411750E+02 -0.23606873049E+01 -0.49230330127E+01  0.10973300865E+03  0.80081091049E+02 0.  0.
         -6    2    1    2    0  502  0.53707705966E+02 -0.48403123900E+02  0.57668552143E+02  0.19567631859E+03  0.17244181531E+03 0.  0.
        -24    2    5    5    0    0 -0.42196087897E+01 -0.81287098815E+02  0.60047851797E+02  0.12885805262E+03  0.79832673052E+02 0.  0.
          5    1    3    3  501    0  0.21115705784E+02  0.50763811205E+02  0.69127400722E+02  0.88450692984E+02  0.47000000000E+01 0. -1.
        -11    1    4    4    0    0 -0.28599718659E+02 -0.18410345346E+02 -0.37748382954E+02  0.50811663413E+02  0.00000000000E+00 0.  1.
         12    1    4    4    0    0 -0.46223693091E+02  0.16049658041E+02  0.32825349942E+02  0.58921345241E+02  0.00000000000E+00 0. -1.
         -5    1    5    5    0  502  0.57927314756E+02  0.32883974915E+02 -0.23792996548E+01  0.66818265975E+02  0.47000000000E+01 0.  1.
         11    1    6    6    0    0 -0.33122078851E+02 -0.70444001223E+02  0.59509743102E+02  0.97983870815E+02  0.00000000000E+00 0. -1.
        -12    1    6    6    0    0  0.28902470061E+02 -0.10843097591E+02  0.53810869534E+00  0.30874181802E+02  0.00000000000E+00 0.  1.
</event>
<event>
12    1  0.8113184E-002  0.2750168E+03  0.7818608E-02  0.1098654E+00
         21   -1    0    0  503  502  0.00000000000E+00  0.00000000000E+00  0.20888099708E+04  0.20888099708E+04  0.00000000000E+00 0.  1.
         21   -1    0    0  501  503 -0.00000000000E+00 -0.00000000000E+00 -0.50061771311E+02  0.50061771311E+02  0.00000000000E+00 0. -1.
          6    2    1    2  501    0 -0.18268485999E+03 -0.10915689046E+03  0.45079132179E+03  0.52727585532E+03  0.17180811097E+03 0.  0.
         24    2    3    3    0    0 -0.11416898496E+03 -0.90055354915E+02  0.17396409438E+03  0.24141802768E+03  0.82913411920E+02 0.  0.
         -6    2    1    2    0  502  0.18268485999E+03  0.10915689046E+03  0.15879568777E+04  0.16115958868E+04  0.17419894399E+03 0.  0.
        -24    2    5    5    0    0  0.11774384999E+03  0.11085281495E+03  0.82492048265E+03  0.84578465607E+03  0.93305524725E+02 0.  0.
          5    1    3    3  501    0 -0.68515875025E+02 -0.19101535550E+02  0.27682722741E+03  0.28585782765E+03  0.47000000000E+01 0. -1.
        -13    1    4    4    0    0 -0.36595891186E+02 -0.34915667910E+02  0.12401622249E+03  0.13393426207E+03  0.00000000000E+00 0.  1.
         14    1    4    4    0    0 -0.77573093777E+02 -0.55139687005E+02  0.49947871896E+02  0.10748376560E+03  0.00000000000E+00 0. -1.
         -5    1    5    5    0  502  0.64941009993E+02 -0.16959244865E+01  0.76303639507E+03  0.76581123075E+03  0.47000000000E+01 0.  1.
         13    1    6    6    0    0 -0.72035443402E+01 -0.10104013998E+02  0.70148892410E+02  0.71237976223E+02  0.00000000000E+00 0. -1.
        -14    1    6    6    0    0  0.12494739433E+03  0.12095682895E+03  0.75477159024E+03  0.77454667984E+03  0.00000000000E+00 0.  1.
</event>
<event>
12    1  0.8113184E-002  0.1842200E+03  0.7818608E-02  0.1166365E+00
         21   -1    0    0  501  502  0.00000000000E+00  0.00000000000E+00  0.17195837421E+04  0.17195837421E+04  0.00000000000E+00 0. -1.
         21   -1    0    0  502  503 -0.00000000000E+00 -0.00000000000E+00 -0.78533676729E+02  0.78533676729E+02  0.00000000000E+00 0. -1.
         -6    2    1    2    0  503  0.16304851987E+02  0.12562450751E+02  0.29465577025E+02  0.17603802658E+03  0.17232963531E+03 0.  0.
        -24    2    3    3    0    0  0.64281537608E+02  0.33540004032E+02  0.41602592348E+02  0.12208232952E+03  0.88973431666E+02 0.  0.
          6    2    1    2  501    0 -0.16304851987E+02 -0.12562450751E+02  0.16115844884E+04  0.16220793923E+04  0.18306645873E+03 0.  0.
         24    2    5    5    0    0 -0.25310878904E+02 -0.33693097709E+02  0.40145596183E+03  0.41172376127E+03  0.81078362577E+02 0.  0.
          5    1    5    5  501    0  0.90060269163E+01  0.21130646959E+02  0.12101285266E+04  0.12103556310E+04  0.47000000000E+01 0. -1.
        -11    1    6    6    0    0 -0.30287970719E+01 -0.17075360884E+02  0.11567776487E+02  0.20845983159E+02  0.00000000000E+00 0.  1.
         12    1    6    6    0    0 -0.22282081832E+02 -0.16617736826E+02  0.38988818535E+03  0.39087777811E+03  0.00000000000E+00 0. -1.
         -5    1    3    3    0  503 -0.47976685620E+02 -0.20977553281E+02 -0.12137015323E+02  0.53955697065E+02  0.47000000000E+01 0.  1.
         11    1    4    4    0    0  0.26543653464E+02  0.69697087363E+01 -0.27586560922E+02  0.38912218166E+02  0.00000000000E+00 0. -1.
        -12    1    4    4    0    0  0.37737884143E+02  0.26570295296E+02  0.69189153270E+02  0.83170111350E+02  0.00000000000E+00 0.  1.
</event>
<event>
12    1  0.8113184E-002  0.2045369E+03  0.7818608E-02  0.1146262E+00
         21   -1    0    0  501  502  0.00000000000E+00  0.00000000000E+00  0.87703435295E+02  0.87703435295E+02  0.00000000000E+00 0. -1.
         21   -1    0    0  502  503 -0.00000000000E+00 -0.00000000000E+00 -0.63044665589E+03  0.63044665589E+03  0.00000000000E+00 0.  1.
         -6    2    1    2    0  503 -0.35731827946E+02  0.10778930206E+03 -0.45115638575E+03  0.49535585600E+03  0.17011773130E+03 0.  0.
        -24    2    3    3    0    0 -0.39391844777E+02 -0.61794261101E+01 -0.16992071364E+03  0.19184661398E+03  0.79637752540E+02 0.  0.
          6    2    1    2  501    0  0.35731827946E+02 -0.10778930206E+03 -0.91586834838E+02  0.22279423518E+03  0.16838594284E+03 0.  0.
         24    2    5    5    0    0  0.27297148441E+02  0.10070384978E+02 -0.45813886758E+02  0.95990045885E+02  0.79174678544E+02 0.  0.
          5    1    5    5  501    0  0.84346795050E+01 -0.11785968704E+03 -0.45772948079E+02  0.12680418929E+03  0.47000000000E+01 0. -1.
        -11    1    6    6    0    0  0.54437012019E+02 -0.21975653401E+01 -0.31683113082E+02  0.63024100355E+02  0.00000000000E+00 0.  1.
         12    1    6    6    0    0 -0.27139863578E+02  0.12267950318E+02 -0.14130773677E+02  0.32965945530E+02  0.00000000000E+00 0. -1.
         -5    1    3    3    0  503  0.36600168310E+01  0.11396872817E+03 -0.28123567212E+03  0.30350924202E+03  0.47000000000E+01 0.  1.
         13    1    4    4    0    0 -0.31042284984E+02 -0.63966278661E+01 -0.12288612998E+02  0.33993386335E+02  0.00000000000E+00 0. -1.
        -14    1    4    4    0    0 -0.83495597933E+01  0.21720175600E+00 -0.15763210064E+03  0.15785322764E+03  0.00000000000E+00 0.  1.
</event>
<event>
12    1  0.8113184E-002  0.2205237E+03  0.7818608E-02  0.1133669E+00
         21   -1    0    0  501  502  0.00000000000E+00  0.00000000000E+00  0.11306841025E+03  0.11306841025E+03  0.00000000000E+00 0.  1.
         21   -1    0    0  502  503 -0.00000000000E+00 -0.00000000000E+00 -0.49214015140E+03  0.49214015140E+03  0.00000000000E+00 0. -1.
         -6    2    1    2    0  503  0.11477381804E+03  0.73028097995E+02 -0.29820041219E+03  0.37032376063E+03  0.17236609136E+03 0.  0.
        -24    2    3    3    0    0  0.13320797922E+03  0.78691602820E+02 -0.17941299976E+03  0.24988940948E+03  0.79491876335E+02 0.  0.
          6    2    1    2  501    0 -0.11477381804E+03 -0.73028097995E+02 -0.80871328951E+02  0.23488480102E+03  0.17356429789E+03 0.  0.
         24    2    5    5    0    0  0.98909843370E+01 -0.17760442599E+02 -0.14792798386E+02  0.83279099000E+02  0.79393428907E+02 0.  0.
          5    1    5    5  501    0 -0.12466480237E+03 -0.55267655397E+02 -0.66078530564E+02  0.15160570202E+03  0.47000000000E+01 0. -1.
        -13    1    6    6    0    0 -0.15841759620E+01  0.29336649717E+02  0.68889293179E+01  0.30176248561E+02  0.00000000000E+00 0.  1.
         14    1    6    6    0    0  0.11475160299E+02 -0.47097092315E+02 -0.21681727704E+02  0.53102850438E+02  0.00000000000E+00 0. -1.
         -5    1    3    3    0  503 -0.18434161185E+02 -0.56635048247E+01 -0.11878741243E+03  0.12043435115E+03  0.47000000000E+01 0.  1.
         13    1    4    4    0    0 -0.52465841859E+00  0.21820378020E+02 -0.52850540697E+02  0.57180274705E+02  0.00000000000E+00 0. -1.
        -14    1    4    4    0    0  0.13373263764E+03  0.56871224800E+02 -0.12656245907E+03  0.19270913478E+03  0.00000000000E+00 0.  1.
</event>
<event>
12    1  0.8113184E-002  0.4763468E+03  0.7818608E-02  0.1020236E+00
         21   -1    0    0  501  502  0.00000000000E+00  0.00000000000E+00  0.64658654450E+03  0.64658654450E+03  0.00000000000E+00 0. -1.
         21   -1    0    0  502  503 -0.00000000000E+00 -0.00000000000E+00 -0.35110694754E+03  0.35110694754E+03  0.00000000000E+00 0.  1.
         -6    2    1    2    0  503 -0.41979696314E+03  0.14345708215E+03  0.11943048868E+03  0.49109052080E+03  0.17348438926E+03 0.  0.
        -24    2    3    3    0    0 -0.16532705641E+03  0.65066442305E+02 -0.96439722268E+01  0.19514739737E+03  0.80142516845E+02 0.  0.
          6    2    1    2  501    0  0.41979696314E+03 -0.14345708215E+03  0.17604910828E+03  0.50660297124E+03  0.16983479402E+03 0.  0.
         24    2    5    5    0    0  0.31654271268E+03 -0.16555192002E+03  0.16026541228E+03  0.39973465434E+03  0.80598165780E+02 0.  0.
          5    1    5    5  501    0  0.10325425045E+03  0.22094837874E+02  0.15783695996E+02  0.10686831690E+03  0.47000000000E+01 0. -1.
        -11    1    6    6    0    0  0.12756663524E+03 -0.71721769310E+02  0.10935684960E+03  0.18269148632E+03  0.00000000000E+00 0.  1.
         12    1    6    6    0    0  0.18897607744E+03 -0.93830150714E+02  0.50908562688E+02  0.21704316802E+03  0.00000000000E+00 0. -1.
         -5    1    3    3    0  503 -0.25446990673E+03  0.78390639845E+02  0.12907446090E+03  0.29594312343E+03  0.47000000000E+01 0.  1.
         13    1    4    4    0    0 -0.78429795531E+02 -0.10091001344E+02 -0.13360465374E+02  0.80197027190E+02  0.00000000000E+00 0. -1.
        -14    1    4    4    0    0 -0.86897260877E+02  0.75157443649E+02  0.37164931467E+01  0.11495037018E+03  0.00000000000E+00 0.  1.
</event>
<event>
12    1  0.8113184E-002  0.2071785E+03  0.7818608E-02  0.1143909E+00
         21   -1    0    0  503  502  0.00000000000E+00  0.00000000000E+00  0.22189236132E+04  0.22189236132E+04  0.00000000000E+00 0. -1.
         21   -1    0    0  501  503 -0.00000000000E+00 -0.00000000000E+00 -0.39610913062E+02  0.39610913062E+02  0.00000000000E+00 0. -1.
          6    2    1    2  501    0 -0.55960824059E+02 -0.10235571779E+03  0.28051675440E+03  0.34846935432E+03  0.17068372683E+03 0.  0.
         24    2    3    3    0    0 -0.89195621313E+02 -0.24855486629E+02  0.17840071804E+03  0.21595289323E+03  0.78963167479E+02 0.  0.
         -6    2    1    2    0  502  0.55960824059E+02  0.10235571779E+03  0.18987959457E+04  0.19100651719E+04  0.17121510078E+03 0.  0.
        -24    2    5    5    0    0  0.96324401173E+01  0.52566688404E+02  0.16195729840E+04  0.16226407141E+04  0.84203301116E+02 0.  0.
          5    1    3    3  501    0  0.33234797254E+02 -0.77500231159E+02  0.10211603636E+03  0.13251646109E+03  0.47000000000E+01 0. -1.
        -13    1    4    4    0    0 -0.94989056309E+02 -0.13907006613E+02  0.10812431331E+03  0.14459319755E+03  0.00000000000E+00 0.  1.
         14    1    4    4    0    0  0.57934349966E+01 -0.10948480016E+02  0.70276404735E+02  0.71359695671E+02  0.00000000000E+00 0. -1.
         -5    1    5    5    0  502  0.46328383942E+02  0.49789029384E+02  0.27922296171E+03  0.28742445781E+03  0.47000000000E+01 0.  1.
         11    1    6    6    0    0 -0.48168236550E+01  0.30491457356E+02  0.16705947812E+03  0.16988760988E+03  0.00000000000E+00 0. -1.
        -12    1    6    6    0    0  0.14449263772E+02  0.22075231048E+02  0.14525135059E+04  0.14527531042E+04  0.00000000000E+00 0.  1.
</event>
<event>
12    1  0.8113184E-002  0.2294646E+03  0.7818608E-02  0.1127967E+00
         21   -1    0    0  501  502  0.00000000000E+00  0.00000000000E+00  0.11525271110E+04  0.11525271110E+04  0.00000000000E+00 0.  1.
         21   -1    0    0  502  503 -0.00000000000E+00 -0.00000000000E+00 -0.44654903636E+02  0.44654903636E+02  0.00000000000E+00 0.  1.
         -6    2    1    2    0  503 -0.16614463562E+01  0.14207299551E+03  0.53436862215E+03  0.57947629220E+03  0.17336508420E+03 0.  0.
        -24    2    3    3    0    0  0.32414421877E+01  0.15979697747E+03  0.53135795424E+03  0.56025828049E+03  0.77475701818E+02 0.  0.
          6    2    1    2  501    0  0.16614463562E+01 -0.14207299551E+03  0.57350358524E+03  0.61770572246E+03  0.18018462982E+03 0.  0.
         24    2    5    5    0    0 -0.49596641226E+02 -0.15029427900E+03  0.45214429632E+03  0.48562564050E+03  0.79684383015E+02 0.  0.
          5    1    5    5  501    0  0.51258087583E+02  0.82212834830E+01  0.12135928892E+03  0.13208008196E+03  0.47000000000E+01 0. -1.
        -13    1    6    6    0    0 -0.43518958882E+02 -0.26530914316E+02  0.16986111453E+03  0.17734313470E+03  0.00000000000E+00 0.  1.
         14    1    6    6    0    0 -0.60776823439E+01 -0.12376336468E+03  0.28228318179E+03  0.30828250580E+03  0.00000000000E+00 0. -1.
         -5    1    3    3    0  503 -0.49028885439E+01 -0.17723981957E+02  0.30106679090E+01  0.19218011701E+02  0.47000000000E+01 0.  1.
         13    1    4    4    0    0 -0.23043029670E+02  0.60124713474E+02  0.30220645673E+03  0.30898981354E+03  0.00000000000E+00 0. -1.
        -14    1    4    4    0    0  0.26284471857E+02  0.99672263996E+02  0.22915149751E+03  0.25126846695E+03  0.00000000000E+00 0.  1.
</event>
<event>
12    1  0.8113184E-002  0.2088468E+03  0.7818608E-02  0.1143160E+00
         21   -1    0    0  503  502  0.00000000000E+00  0.00000000000E+00  0.15333961812E+03  0.15333961812E+03  0.00000000000E+00 0. -1.
         21   -1    0    0  501  503 -0.00000000000E+00 -0.00000000000E+00 -0.31356099775E+03  0.31356099775E+03  0.00000000000E+00 0. -1.
          6    2    1    2  501    0 -0.39220510282E+02  0.10939915349E+03 -0.30209400649E+01  0.20550253637E+03  0.16945720158E+03 0.  0.
         24    2    3    3    0    0 -0.49743614958E+02  0.11804184480E+03  0.43006418791E+02  0.15727350354E+03  0.80480423121E+02 0.  0.
         -6    2    1    2    0  502  0.39220510282E+02 -0.10939915349E+03 -0.15720043957E+03  0.26139807950E+03  0.17352393079E+03 0.  0.
        -24    2    5    5    0    0 -0.33867561614E+02 -0.71255989174E+02 -0.13373109314E+03  0.17555131218E+03  0.81913553301E+02 0.  0.
          5    1    3    3  501    0  0.10523104676E+02 -0.86426913051E+01 -0.46027358856E+02  0.48229032836E+02  0.47000000000E+01 0. -1.
        -11    1    4    4    0    0  0.17411743511E+02  0.26766883222E+01  0.74848454473E+01  0.19140438444E+02  0.00000000000E+00 0.  1.
         12    1    4    4    0    0 -0.67155358469E+02  0.11536515648E+03  0.35521573344E+02  0.13813306509E+03  0.00000000000E+00 0. -1.
         -5    1    5    5    0  502  0.73088071895E+02 -0.38143164319E+02 -0.23469346430E+02  0.85846767321E+02  0.47000000000E+01 0.  1.
         11    1    6    6    0    0  0.19645300883E+02 -0.36772253047E+02 -0.87339920440E+02  0.96780153665E+02  0.00000000000E+00 0. -1.
        -12    1    6    6    0    0 -0.53512862497E+02 -0.34483736126E+02 -0.46391172696E+02  0.78771158516E+02  0.00000000000E+00 0.  1.
</event>
<event>
12    1  0.8113184E-002  0.1734566E+03  0.7818608E-02  0.1174496E+00
         21   -1    0    0  501  502  0.00000000000E+00  0.00000000000E+00  0.22327674355E+03  0.22327674355E+03  0.00000000000E+00 0. -1.
         21   -1    0    0  502  503 -0.00000000000E+00 -0.00000000000E+00 -0.15281506007E+03  0.15281506007E+03  0.00000000000E+00 0. -1.
         -6    2    1    2    0  503 -0.10044652736E+02 -0.28034668486E+01 -0.30457674927E+02  0.17611040824E+03  0.17314286429E+03 0.  0.
        -24    2    3    3    0    0  0.61198307714E+02  0.10382870249E+02  0.36049637879E+01  0.95911952798E+02  0.73027871829E+02 0.  0.
          6    2    1    2  501    0  0.10044652736E+02  0.28034668486E+01  0.10091935841E+03  0.19998139538E+03  0.17233423084E+03 0.  0.
         24    2    5    5    0    0 -0.56088239982E+02 -0.15467838347E+02  0.36581232963E+02  0.10580664038E+03  0.80446962996E+02 0.  0.
          5    1    5    5  501    0  0.66132892718E+02  0.18271305196E+02  0.64338125451E+02  0.94174755000E+02  0.47000000000E+01 0. -1.
        -13    1    6    6    0    0 -0.41373175595E+02 -0.32482446805E+02 -0.10489807818E+02  0.53636602030E+02  0.00000000000E+00 0.  1.
         14    1    6    6    0    0 -0.14715064387E+02  0.17014608458E+02  0.47071040781E+02  0.52170038347E+02  0.00000000000E+00 0. -1.
         -5    1    3    3    0  503 -0.71242960450E+02 -0.13186337098E+02 -0.34062638715E+02  0.80198455446E+02  0.47000000000E+01 0.  1.
         13    1    4    4    0    0  0.76949464130E+01 -0.12119641915E+02  0.29152380284E+02  0.32495525795E+02  0.00000000000E+00 0. -1.
        -14    1    4    4    0    0  0.53503361301E+02  0.22502512165E+02 -0.25547416496E+02  0.63416427003E+02  0.00000000000E+00 0.  1.
</event>
<event>
12    1  0.8113184E-002  0.2650999E+03  0.7818608E-02  0.1104157E+00
         21   -1    0    0  503  502  0.00000000000E+00  0.00000000000E+00  0.44272795118E+03  0.44272795118E+03  0.00000000000E+00 0. -1.
         21   -1    0    0  501  503 -0.00000000000E+00 -0.00000000000E+00 -0.17443410680E+03  0.17443410680E+03  0.00000000000E+00 0.  1.
          6    2    1    2  501    0  0.77506191472E+02 -0.18582744595E+03  0.41044015950E+02  0.26799098050E+03  0.17203344151E+03 0.  0.
         24    2    3    3    0    0  0.10374607555E+03 -0.18775763732E+03  0.12595316700E+02  0.22895669244E+03  0.79033831009E+02 0.  0.
         -6    2    1    2    0  502 -0.77506191472E+02  0.18582744595E+03  0.22724982844E+03  0.34917107748E+03  0.17244972439E+03 0.  0.
        -24    2    5    5    0    0 -0.22792008310E+02  0.19153621278E+03  0.16418287898E+03  0.26535125900E+03  0.79054895177E+02 0.  0.
          5    1    3    3  501    0 -0.26239884083E+02  0.19301913705E+01  0.28448699250E+02  0.39034288061E+02  0.47000000000E+01 0. -1.
        -11    1    4    4    0    0  0.30458277714E+02 -0.12870227809E+03 -0.83976611078E+01  0.13252359706E+03  0.00000000000E+00 0.  1.
         12    1    4    4    0    0  0.73287797841E+02 -0.59055359234E+02  0.20992977808E+02  0.96433095377E+02  0.00000000000E+00 0. -1.
         -5    1    5    5    0  502 -0.54714183162E+02 -0.57087668299E+01  0.63066949456E+02  0.83819818488E+02  0.47000000000E+01 0.  1.
         13    1    6    6    0    0  0.19412520542E+02  0.13893619248E+03  0.10024982104E+03  0.17242429687E+03  0.00000000000E+00 0. -1.
        -14    1    6    6    0    0 -0.42204528852E+02  0.52600020302E+02  0.63933057945E+02  0.92926962124E+02  0.00000000000E+00 0.  1.
</event>
<event>
12    1  0.8113184E-002  0.2402830E+03  0.7818608E-02  0.1120251E+00
         21   -1    0    0  501  502  0.00000000000E+00  0.00000000000E+00  0.18679752706E+03  0.18679752706E+03  0.00000000000E+00 0. -1.
         21   -1    0    0  502  503 -0.00000000000E+00 -0.00000000000E+00 -0.39666248458E+03  0.39666248458E+03  0.00000000000E+00 0.  1.
         -6    2    1    2    0  503 -0.50039185304E+02  0.15510400197E+03  0.35304142337E+02  0.24286268069E+03  0.17656366476E+03 0.  0.
        -24    2    3    3    0    0 -0.32977950672E+02  0.18453859717E+03  0.14762635071E+02  0.20284362720E+03  0.76062885970E+02 0.  0.
          6    2    1    2  501    0  0.50039185304E+02 -0.15510400197E+03 -0.24516909986E+03  0.34059733096E+03  0.17128188123E+03 0.  0.
         24    2    5    5    0    0  0.92505012794E+02 -0.95354618693E+02 -0.18243773329E+03  0.24400204299E+03  0.92756615700E+02 0.  0.
          5    1    5    5  501    0 -0.42465827489E+02 -0.59749383276E+02 -0.62731366562E+02  0.96595287965E+02  0.47000000000E+01 0. -1.
        -13    1    6    6    0    0 -0.73944949162E+01 -0.49800991671E+02 -0.75409925432E+02  0.90672345178E+02  0.00000000000E+00 0.  1.
         14    1    6    6    0    0  0.99899507710E+02 -0.45553627023E+02 -0.10702780786E+03  0.15332969781E+03  0.00000000000E+00 0. -1.
         -5    1    3    3    0  503 -0.17061234632E+02 -0.29434595204E+02  0.20541507266E+02  0.40019053496E+02  0.47000000000E+01 0.  1.
         13    1    4    4    0    0 -0.34040091182E+02  0.49474571086E+02  0.29619114095E+02  0.66960831175E+02  0.00000000000E+00 0. -1.
        -14    1    4    4    0    0  0.10621405101E+01  0.13506402609E+03 -0.14856479024E+02  0.13588279602E+03  0.00000000000E+00 0.  1.
</event>
<event>
12    1  0.8113184E-002  0.2893028E+03  0.7818608E-02  0.1090904E+00
         21   -1    0    0  503  502  0.00000000000E+00  0.00000000000E+00  0.25538033379E+03  0.25538033379E+03  0.00000000000E+00 0.  1.
         21   -1    0    0  501  503 -0.00000000000E+00 -0.00000000000E+00 -0.36836402763E+03  0.36836402763E+03  0.00000000000E+00 0. -1.
          6    2    1    2  501    0 -0.93011065768E+02 -0.21367972380E+03 -0.16226440827E+03  0.33170147112E+03  0.17142358366E+03 0.  0.
         24    2    3    3    0    0 -0.31376246337E+02 -0.79683477504E+02 -0.13892966200E+03  0.18230118541E+03  0.81230202494E+02 0.  0.
         -6    2    1    2    0  502  0.93011065768E+02  0.21367972380E+03  0.49280714434E+02  0.29204289029E+03  0.16896857173E+03 0.  0.
        -24    2    5    5    0    0  0.82970376571E+02  0.22561948795E+03  0.72623636621E+02  0.26357614787E+03  0.80062203307E+02 0.  0.
          5    1    3    3  501    0 -0.61634819431E+02 -0.13399624630E+03 -0.23334746276E+02  0.14940028572E+03  0.47000000000E+01 0. -1.
        -11    1    4    4    0    0  0.15837124646E+02 -0.67328535149E+02 -0.84439913339E+02  0.10915147790E+03  0.00000000000E+00 0.  1.
         12    1    4    4    0    0 -0.47213370983E+02 -0.12354942356E+02 -0.54489748658E+02  0.73149707512E+02  0.00000000000E+00 0. -1.
         -5    1    5    5    0  502  0.10040689197E+02 -0.11939764151E+02 -0.23342922187E+02  0.28466742416E+02  0.47000000000E+01 0.  1.
         11    1    6    6    0    0  0.18888374991E+02  0.29009856873E+02  0.42166265684E+02  0.54555810574E+02  0.00000000000E+00 0. -1.
        -12    1    6    6    0    0  0.64082001580E+02  0.19660963108E+03  0.30457370937E+02  0.20902033730E+03  0.00000000000E+00 0.  1.
</event>
<event>
12    1  0.8113184E-002  0.2562280E+03  0.7818608E-02  0.1109492E+00
         21   -1    0    0  503  502  0.00000000000E+00  0.00000000000E+00  0.10271051208E+04  0.10271051208E+04  0.00000000000E+00 0. -1.
         21   -1    0    0  501  503 -0.00000000000E+00 -0.00000000000E+00 -0.11533791812E+03  0.11533791812E+03  0.00000000000E+00 0. -1.
          6    2    1    2  501    0  0.18679318390E+03  0.27139210043E+02  0.74316816765E+02  0.26678784483E+03  0.17327589163E+03 0.  0.
         24    2    3    3    0    0  0.32755688158E+02  0.46133187957E+02  0.49281582803E+02  0.10950728586E+03  0.79761927726E+02 0.  0.
         -6    2    1    2    0  502 -0.18679318390E+03 -0.27139210043E+02  0.83745038596E+03  0.87565519414E+03  0.17268653628E+03 0.  0.
        -24    2    5    5    0    0 -0.16504170585E+03  0.14118222186E+02  0.46788336532E+03  0.50312710761E+03  0.82364761873E+02 0.  0.
          5    1    3    3  501    0  0.15403749574E+03 -0.18993977914E+02  0.25035233962E+02  0.15728055897E+03  0.47000000000E+01 0. -1.
        -13    1    4    4    0    0  0.10504660149E+02  0.25637238173E+02  0.68346676593E+02  0.73748790276E+02  0.00000000000E+00 0.  1.
         14    1    4    4    0    0  0.22251028010E+02  0.20495949784E+02 -0.19065093790E+02  0.35758495582E+02  0.00000000000E+00 0. -1.
         -5    1    5    5    0  502 -0.21751478041E+02 -0.41257432230E+02  0.36956702064E+03  0.37252808654E+03  0.47000000000E+01 0.  1.
         13    1    6    6    0    0 -0.11280691164E+03 -0.26298263751E+02  0.34011664314E+03  0.35929977586E+03  0.00000000000E+00 0. -1.
        -14    1    6    6    0    0 -0.52234794215E+02  0.40416485937E+02  0.12776672218E+03  0.14382733175E+03  0.00000000000E+00 0.  1.
</event>
<event>
12    1  0.8113184E-002  0.1917095E+03  0.7818608E-02  0.1157184E+00
         21   -1    0    0  501  502  0.00000000000E+00  0.00000000000E+00  0.24858131077E+03  0.24858131077E+03  0.00000000000E+00 0.  1.
         21   -1    0    0  502  503 -0.00000000000E+00 -0.00000000000E+00 -0.67689117011E+03  0.67689117011E+03  0.00000000000E+00 0.  1.
         -6    2    1    2    0  503  0.41788382165E+02  0.70433826269E+02 -0.62344623474E+03  0.65192039001E+03  0.17206915624E+03 0.  0.
        -24    2    3    3    0    0 -0.42419943930E+02  0.33055238380E+02 -0.36725608352E+03  0.37962701036E+03  0.79671423274E+02 0.  0.
          6    2    1    2  501    0 -0.41788382165E+02 -0.70433826269E+02  0.19513637540E+03  0.27355209087E+03  0.17333594159E+03 0.  0.
         24    2    5    5    0    0 -0.59299265032E+00 -0.69428358784E+02  0.20517169424E+03  0.23088045267E+03  0.79935665778E+02 0.  0.
          5    1    5    5  501    0 -0.41195389515E+02 -0.10054674849E+01 -0.10035318843E+02  0.42671638197E+02  0.47000000000E+01 0. -1.
        -13    1    6    6    0    0 -0.32487585127E+01 -0.87526619989E+02  0.16968145831E+03  0.19095355700E+03  0.00000000000E+00 0.  1.
         14    1    6    6    0    0  0.26557658624E+01  0.18098261205E+02  0.35490235935E+02  0.39926895668E+02  0.00000000000E+00 0. -1.
         -5    1    3    3    0  503  0.84208326095E+02  0.37378587889E+02 -0.25619015122E+03  0.27229337965E+03  0.47000000000E+01 0.  1.
         11    1    4    4    0    0 -0.27505576308E+02  0.78689172986E+01 -0.31325612918E+02  0.42423703423E+02  0.00000000000E+00 0. -1.
        -12    1    4    4    0    0 -0.14914367622E+02  0.25186321082E+02 -0.33593047060E+03  0.33720330694E+03  0.00000000000E+00 0.  1.
</event>
<event>
12    1  0.8113184E-002  0.2087613E+03  0.7818608E-02  0.1142854E+00
         21   -1    0    0  501  502  0.00000000000E+00  0.00000000000E+00  0.26963271720E+03  0.26963271720E+03  0.00000000000E+00 0.  1.
         21   -1    0    0  502  503 -0.00000000000E+00 -0.00000000000E+00 -0.21924462073E+03  0.21924462073E+03  0.00000000000E+00 0.  1.
         -6    2    1    2    0  503  0.11572635788E+03  0.30157028351E+02 -0.10144213861E+03  0.23074232938E+03  0.16926156923E+03 0.  0.
        -24    2    3    3    0    0  0.96889203922E+02  0.82240337612E+02 -0.85486455458E+02  0.17291341536E+03  0.80250384279E+02 0.  0.
          6    2    1    2  501    0 -0.11572635788E+03 -0.30157028351E+02  0.15183023508E+03  0.25813500855E+03  0.17111173568E+03 0.  0.
         24    2    5    5    0    0 -0.34576523557E+02 -0.69037459912E+02  0.48937011793E+02  0.12136480358E+03  0.79830304850E+02 0.  0.
          5    1    5    5  501    0 -0.81149834320E+02  0.38880431561E+02  0.10289322329E+03  0.13677020497E+03  0.47000000000E+01 0. -1.
        -11    1    6    6    0    0 -0.48950539590E+02 -0.55999277117E+02  0.62939326546E+02  0.97434250599E+02  0.00000000000E+00 0.  1.
         12    1    6    6    0    0  0.14374016034E+02 -0.13038182794E+02 -0.14002314753E+02  0.23930552980E+02  0.00000000000E+00 0. -1.
         -5    1    3    3    0  503  0.18837153954E+02 -0.52083309261E+02 -0.15955683151E+02  0.57828914027E+02  0.47000000000E+01 0.  1.
         13    1    4    4    0    0  0.70290627194E+00  0.38969107850E+01  0.13587114130E+02  0.14152372991E+02  0.00000000000E+00 0. -1.
        -14    1    4    4    0    0  0.96186297650E+02  0.78343426827E+02 -0.99073569588E+02  0.15876104237E+03  0.00000000000E+00 0.  1.
</event>
<event>
12    1  0.8113184E-002  0.2952817E+03  0.7818608E-02  0.1087816E+00
         21   -1    0    0  501  502  0.00000000000E+00  0.00000000000E+00  0.35792960437E+02  0.35792960437E+02  0.00000000000E+00 0. -1.
         21   -1    0    0  502  503 -0.00000000000E+00 -0.00000000000E+00 -0.30478703287E+04  0.30478703287E+04  0.00000000000E+00 0.  1.
         -6    2    1    2    0  503 -0.18412143192E+03  0.15312608602E+03 -0.22069169731E+04  0.22265834344E+04  0.17275116192E+03 0.  0.
        -24    2    3    3    0    0 -0.16954855131E+03  0.13453349536E+03 -0.13969578959E+04  0.14162663050E+04  0.86446001906E+02 0.  0.
          6    2    1    2  501    0  0.18412143192E+03 -0.15312608602E+03 -0.80516039511E+03  0.85707985476E+03  0.17015967698E+03 0.  0.
         24    2    5    5    0    0  0.13830586078E+03 -0.74682891683E+02 -0.68305877252E+03  0.70481923104E+03  0.74127028057E+02 0.  0.
          5    1    5    5  501    0  0.45815571135E+02 -0.78443194338E+02 -0.12210162259E+03  0.15226062372E+03  0.47000000000E+01 0. -1.
        -11    1    6    6    0    0  0.61441747834E+01 -0.11026912959E+02 -0.18955434441E+03  0.18997419082E+03  0.00000000000E+00 0.  1.
         12    1    6    6    0    0  0.13216168600E+03 -0.63655978723E+02 -0.49350442812E+03  0.51484504022E+03  0.00000000000E+00 0. -1.
         -5    1    3    3    0  503 -0.14572880611E+02  0.18592590661E+02 -0.80995907726E+03  0.81031712935E+03  0.47000000000E+01 0.  1.
         13    1    4    4    0    0 -0.21226379808E+02  0.65570063377E+02 -0.46086621329E+03  0.46599105030E+03  0.00000000000E+00 0. -1.
        -14    1    4    4    0    0 -0.14832217150E+03  0.68963431983E+02 -0.93609168258E+03  0.95027525470E+03  0.00000000000E+00 0.  1.
</event>
<event>
12    1  0.8113184E-002  0.2024535E+03  0.7818608E-02  0.1148687E+00
         21   -1    0    0  503  502  0.00000000000E+00  0.00000000000E+00  0.53012587729E+02  0.53012587729E+02  0.00000000000E+00 0. -1.
         21   -1    0    0  501  503 -0.00000000000E+00 -0.00000000000E+00 -0.11777867912E+04  0.11777867912E+04  0.00000000000E+00 0. -1.
          6    2    1    2  501    0 -0.68087561822E+02  0.81661594557E+02 -0.93533456387E+03  0.95699434730E+03  0.17228726678E+03 0.  0.
         24    2    3    3    0    0 -0.37874893809E+02  0.10588379970E+03 -0.86630090307E+03  0.87770212288E+03  0.85075702912E+02 0.  0.
         -6    2    1    2    0  502  0.68087561822E+02 -0.81661594557E+02 -0.18943963957E+03  0.27380503160E+03  0.16666519189E+03 0.  0.
        -24    2    5    5    0    0  0.10375033976E+03 -0.64398335304E+02 -0.97112246137E+02  0.17322525516E+03  0.75265676684E+02 0.  0.
          5    1    3    3  501    0 -0.30212668013E+02 -0.24222205139E+02 -0.69033660795E+02  0.79292224417E+02  0.47000000000E+01 0. -1.
        -11    1    4    4    0    0  0.23068549121E+02  0.58828877612E+01 -0.15881527944E+03  0.16058972355E+03  0.00000000000E+00 0.  1.
         12    1    4    4    0    0 -0.60943442931E+02  0.10000091193E+03 -0.70748562364E+03  0.71711239933E+03  0.00000000000E+00 0. -1.
         -5    1    5    5    0  502 -0.35662777933E+02 -0.17263259253E+02 -0.92327393433E+02  0.10057977644E+03  0.47000000000E+01 0.  1.
         11    1    6    6    0    0  0.35042385711E+02 -0.61945670929E+02 -0.68426879419E+02  0.98729290336E+02  0.00000000000E+00 0. -1.
        -12    1    6    6    0    0  0.68707954045E+02 -0.24526643747E+01 -0.28685366718E+02  0.74495964826E+02  0.00000000000E+00 0.  1.
</event>
<event>
12    1  0.8113184E-002  0.2280904E+03  0.7818608E-02  0.1127999E+00
         21   -1    0    0  501  502  0.00000000000E+00  0.00000000000E+00  0.61050885404E+02  0.61050885404E+02  0.00000000000E+00 0.  1.
         21   -1    0    0  502  503 -0.00000000000E+00 -0.00000000000E+00 -0.17662734090E+04  0.17662734090E+04  0.00000000000E+00 0.  1.
         -6    2    1    2    0  503  0.14431764113E+03  0.39524138450E+02 -0.15099186246E+04  0.15270430485E+04  0.17209439283E+03 0.  0.
        -24    2    3    3    0    0  0.80243785496E+02  0.63661365208E+02 -0.56332793342E+03  0.57796766093E+03  0.78844289447E+02 0.  0.
          6    2    1    2  501    0 -0.14431764113E+03 -0.39524138450E+02 -0.19530389896E+03  0.30028124585E+03  0.17214957043E+03 0.  0.
         24    2    5    5    0    0 -0.79302937682E+02 -0.40165125768E+02 -0.20184027054E+03  0.23476684528E+03  0.80459825869E+02 0.  0.
          5    1    5    5  501    0 -0.65014703443E+02  0.64098731788E+00  0.65363715812E+01  0.65514400569E+02  0.47000000000E+01 0. -1.
        -13    1    6    6    0    0 -0.94526458290E+02 -0.30957312454E+02 -0.15021173495E+03  0.18015874064E+03  0.00000000000E+00 0.  1.
         14    1    6    6    0    0  0.15223520608E+02 -0.92078133140E+01 -0.51628535588E+02  0.54608104643E+02  0.00000000000E+00 0. -1.
         -5    1    3    3    0  503  0.64073855630E+02 -0.24137226757E+02 -0.94659069118E+03  0.94907538759E+03  0.47000000000E+01 0.  1.
         13    1    4    4    0    0  0.68706494336E+02  0.82070348068E+02 -0.48593977011E+03  0.49758776569E+03  0.00000000000E+00 0. -1.
        -14    1    4    4    0    0  0.11537291159E+02 -0.18408982860E+02 -0.77388163314E+02  0.80379895238E+02  0.00000000000E+00 0.  1.
</event>
<event>
12    1  0.8113184E-002  0.1887131E+03  0.7818608E-02  0.1160089E+00
         21   -1    0    0  501  502  0.00000000000E+00  0.00000000000E+00  0.13629919270E+03  0.13629919270E+03  0.00000000000E+00 0.  1.
         21   -1    0    0  502  503 -0.00000000000E+00 -0.00000000000E+00 -0.27590641130E+03  0.27590641130E+03  0.00000000000E+00 0.  1.
         -6    2    1    2    0  503 -0.55682760420E+02 -0.53716330539E+02 -0.18385534584E+02  0.18960656679E+03  0.17212381681E+03 0.  0.
        -24    2    3    3    0    0 -0.89157389190E+02 -0.45193167983E+02 -0.54635847759E+02  0.13931372161E+03  0.80198345924E+02 0.  0.
          6    2    1    2  501    0  0.55682760420E+02  0.53716330539E+02 -0.12122168402E+03  0.22259903721E+03  0.16991062567E+03 0.  0.
         24    2    5    5    0    0  0.20802111334E+02 -0.34341852689E+00 -0.13331795554E+03  0.15696729234E+03  0.80201046262E+02 0.  0.
          5    1    5    5  501    0  0.34880649085E+02  0.54059749066E+02  0.12096271525E+02  0.65631744868E+02  0.47000000000E+01 0. -1.
        -13    1    6    6    0    0  0.34741212148E+02  0.10149250284E+02 -0.18157345521E+02  0.40492570914E+02  0.00000000000E+00 0.  1.
         14    1    6    6    0    0 -0.13939100814E+02 -0.10492668810E+02 -0.11516061002E+03  0.11647472143E+03  0.00000000000E+00 0. -1.
         -5    1    3    3    0  503  0.33474628770E+02 -0.85231625557E+01  0.36250313175E+02  0.50292845182E+02  0.47000000000E+01 0.  1.
         11    1    4    4    0    0  0.14113654679E+02 -0.14896909826E+02 -0.81514863932E+01  0.22080758619E+02  0.00000000000E+00 0. -1.
        -12    1    4    4    0    0 -0.10327104387E+03 -0.30296258157E+02 -0.46484361366E+02  0.11723296299E+03  0.00000000000E+00 0.  1.
</event>
<event>
12    1  0.8113184E-002  0.2000791E+03  0.7818608E-02  0.1150774E+00
         21   -1    0    0  503  502  0.00000000000E+00  0.00000000000E+00  0.46613278473E+03  0.46613278473E+03  0.00000000000E+00 0.  1.
         21   -1    0    0  501  503 -0.00000000000E+00 -0.00000000000E+00 -0.91470286330E+02  0.91470286330E+02  0.00000000000E+00 0.  1.
          6    2    1    2  501    0 -0.52835493524E+02 -0.76898924521E+02  0.26643981502E+03  0.33013040800E+03  0.17114577788E+03 0.  0.
         24    2    3    3    0    0 -0.87626464771E+02 -0.78137045047E+02  0.25628051431E+03  0.29356203350E+03  0.81946143030E+02 0.  0.
         -6    2    1    2    0  502  0.52835493524E+02  0.76898924521E+02  0.10822268338E+03  0.22747266306E+03  0.17699330291E+03 0.  0.
        -24    2    5    5    0    0  0.65500797790E+02  0.92273294492E+02  0.13592860462E+03  0.19302720972E+03  0.77318838273E+02 0.  0.
          5    1    3    3  501    0  0.34790971247E+02  0.12381205262E+01  0.10159300708E+02  0.36568374500E+02  0.47000000000E+01 0. -1.
        -13    1    4    4    0    0 -0.69705648783E+02 -0.65324001482E+02  0.25405193811E+03  0.27141939854E+03  0.00000000000E+00 0.  1.
         14    1    4    4    0    0 -0.17920815988E+02 -0.12813043565E+02  0.22285761962E+01  0.22142634959E+02  0.00000000000E+00 0. -1.
         -5    1    5    5    0  502 -0.12665304265E+02 -0.15374369971E+02 -0.27705921239E+02  0.34445453341E+02  0.47000000000E+01 0.  1.
         13    1    6    6    0    0  0.84834637460E+01 -0.14036499166E+02  0.17207638873E+02  0.23771733247E+02  0.00000000000E+00 0. -1.
        -14    1    6    6    0    0  0.57017334044E+02  0.10630979366E+03  0.11872096574E+03  0.16925547647E+03  0.00000000000E+00 0.  1.
</event>
<event>
12    1  0.8113184E-002  0.2152843E+03  0.7818608E-02  0.1137558E+00
         21   -1    0    0  503  502  0.00000000000E+00  0.00000000000E+00  0.15069662331E+03  0.15069662331E+03  0.00000000000E+00 0.  1.
         21   -1    0    0  501  503 -0.00000000000E+00 -0.00000000000E+00 -0.36399070842E+03  0.36399070842E+03  0.00000000000E+00 0.  1.
          6    2    1    2  501    0  0.12417696436E+03  0.39389813628E+02 -0.20858948011E+03  0.29935161010E+03  0.17067612416E+03 0.  0.
         24    2    3    3    0    0  0.13782636729E+03  0.23149100973E+02 -0.22177133486E+03  0.27393668845E+03  0.79541158636E+02 0.  0.
         -6    2    1    2    0  502 -0.12417696436E+03 -0.39389813628E+02 -0.47046049937E+01  0.21533572164E+03  0.17139388498E+03 0.  0.
        -24    2    5    5    0    0 -0.97525968460E+02 -0.37378598180E+02  0.60028793847E+02  0.14514438673E+03  0.80962724653E+02 0.  0.
          5    1    3    3  501    0 -0.13649402921E+02  0.16240712655E+02  0.13181854750E+02  0.25414921646E+02  0.47000000000E+01 0. -1.
        -13    1    4    4    0    0  0.26273282260E+02 -0.13615565047E+02 -0.90534165388E+01  0.30945651121E+02  0.00000000000E+00 0.  1.
         14    1    4    4    0    0  0.11155308503E+03  0.36764666020E+02 -0.21271791832E+03  0.24299103733E+03  0.00000000000E+00 0. -1.
         -5    1    5    5    0  502 -0.26650995904E+02 -0.20112154483E+01 -0.64733398841E+02  0.70191334905E+02  0.47000000000E+01 0.  1.
         11    1    6    6    0    0  0.35783016986E+01 -0.28709687557E+02  0.23572715014E+02  0.37319208135E+02  0.00000000000E+00 0. -1.
        -12    1    6    6    0    0 -0.10110427016E+03 -0.86689106228E+01  0.36456078833E+02  0.10782517860E+03  0.00000000000E+00 0.  1.
</event>
<event>
12    1  0.8113184E-002  0.2210149E+03  0.7818608E-02  0.1133271E+00
         21   -1    0    0  503  502  0.00000000000E+00  0.00000000000E+00  0.42990922010E+03  0.42990922010E+03  0.00000000000E+00 0.  1.
         21   -1    0    0  501  503 -0.00000000000E+00 -0.00000000000E+00 -0.30042312406E+03  0.30042312406E+03  0.00000000000E+00 0.  1.
          6    2    1    2  501    0 -0.91688430196E+02 -0.10244409498E+03 -0.22355054741E+03  0.31382009281E+03  0.17206580886E+03 0.  0.
         24    2    3    3    0    0 -0.32860951196E+02  0.31074760873E+01 -0.14340757731E+03  0.16874496711E+03  0.82581064260E+02 0.  0.
         -6    2    1    2    0  502  0.91688430196E+02  0.10244409498E+03  0.35303664344E+03  0.41651225135E+03  0.17304919267E+03 0.  0.
        -24    2    5    5    0    0  0.12870895041E+03  0.57140928100E+02  0.24110959129E+03  0.29012929818E+03  0.78804156451E+02 0.  0.
          5    1    3    3  501    0 -0.58827479000E+02 -0.10555157107E+03 -0.80142970094E+02  0.14507512570E+03  0.47000000000E+01 0. -1.
        -11    1    4    4    0    0  0.51661567813E+01 -0.33019992077E+02 -0.35456810711E+02  0.48725706546E+02  0.00000000000E+00 0.  1.
         12    1    4    4    0    0 -0.38027107977E+02  0.36127468164E+02 -0.10795076660E+03  0.12001926057E+03  0.00000000000E+00 0. -1.
         -5    1    5    5    0  502 -0.37020520216E+02  0.45303166884E+02  0.11192705216E+03  0.12638295317E+03  0.47000000000E+01 0.  1.
         11    1    6    6    0    0  0.27146681991E+02 -0.17961329529E+02  0.72330997555E+02  0.79317872569E+02  0.00000000000E+00 0. -1.
        -12    1    6    6    0    0  0.10156226842E+03  0.75102257629E+02  0.16877859373E+03  0.21081142562E+03  0.00000000000E+00 0.  1.
</event>
<event>
12    1  0.8113184E-002  0.2161328E+03  0.7818608E-02  0.1137167E+00
         21   -1    0    0  501  502  0.00000000000E+00  0.00000000000E+00  0.84377640876E+03  0.84377640876E+03  0.00000000000E+00 0.  1.
         21   -1    0    0  502  503 -0.00000000000E+00 -0.00000000000E+00 -0.55854255263E+02  0.55854255263E+02  0.00000000000E+00 0.  1.
         -6    2    1    2    0  503  0.11204078558E+03  0.66887928153E+02  0.33257891561E+03  0.39559607993E+03  0.16988346234E+03 0.  0.
        -24    2    3    3    0    0  0.23515327455E+02 -0.17242320638E+02  0.85582159671E+02  0.12001643093E+03  0.78926354230E+02 0.  0.
          6    2    1    2  501    0 -0.11204078558E+03 -0.66887928153E+02  0.45534323789E+03  0.50403458410E+03  0.17229702583E+03 0.  0.
         24    2    5    5    0    0 -0.65308227972E+02 -0.10213664859E+03  0.38934480896E+03  0.41569270923E+03  0.80709284600E+02 0.  0.
          5    1    5    5  501    0 -0.46732557610E+02  0.35248720440E+02  0.65998428930E+02  0.88341874864E+02  0.47000000000E+01 0. -1.
        -13    1    6    6    0    0 -0.51304965403E+02 -0.55100798506E+02  0.33099058286E+03  0.33944522888E+03  0.00000000000E+00 0.  1.
         14    1    6    6    0    0 -0.14003262569E+02 -0.47035850087E+02  0.58354226099E+02  0.76247480349E+02  0.00000000000E+00 0. -1.
         -5    1    3    3    0  503  0.88525458127E+02  0.84130248792E+02  0.24699675594E+03  0.27557964900E+03  0.47000000000E+01 0.  1.
         11    1    4    4    0    0  0.24932176470E+02 -0.19342618888E+02  0.10026667328E+03  0.10511496611E+03  0.00000000000E+00 0. -1.
        -12    1    4    4    0    0 -0.14168490153E+01  0.21002982497E+01 -0.14684513608E+02  0.14901464820E+02  0.00000000000E+00 0.  1.
</event>
<event>
12    1  0.8113184E-002  0.2601444E+03  0.7818608E-02  0.1107656E+00
         21   -1    0    0  501  502  0.00000000000E+00  0.00000000000E+00  0.46952445840E+03  0.46952445840E+03  0.00000000000E+00 0. -1.
         21   -1    0    0  502  503 -0.00000000000E+00 -0.00000000000E+00 -0.15013281981E+03  0.15013281981E+03  0.00000000000E+00 0. -1.
         -6    2    1    2    0  503  0.28006864413E+02  0.18820909914E+03  0.86199678783E+02  0.27029555007E+03  0.17152915295E+03 0.  0.
        -24    2    3    3    0    0 -0.39846874598E+02  0.54526574302E+02  0.46662718264E+02  0.11518137086E+03  0.80798627445E+02 0.  0.
          6    2    1    2  501    0 -0.28006864413E+02 -0.18820909914E+03  0.23319195982E+03  0.34936172814E+03  0.17739243927E+03 0.  0.
         24    2    5    5    0    0 -0.13498569346E+01 -0.19281953116E+02  0.40205229784E+02  0.91460691532E+02  0.79843482914E+02 0.  0.
          5    1    5    5  501    0 -0.26657007479E+02 -0.16892714603E+03  0.19298673003E+03  0.25790103660E+03  0.47000000000E+01 0. -1.
        -11    1    6    6    0    0 -0.37051000637E+02  0.43225592791E+01  0.28917454447E+02  0.47198308642E+02  0.00000000000E+00 0.  1.
         12    1    6    6    0    0  0.35701143703E+02 -0.23604512395E+02  0.11287775336E+02  0.44262382890E+02  0.00000000000E+00 0. -1.
         -5    1    3    3    0  503  0.67853739012E+02  0.13368252484E+03  0.39536960519E+02  0.15511417921E+03  0.47000000000E+01 0.  1.
         13    1    4    4    0    0 -0.10704065750E+02  0.65376260577E+02  0.51238323887E+02  0.83749616747E+02  0.00000000000E+00 0. -1.
        -14    1    4    4    0    0 -0.29142808848E+02 -0.10849686275E+02 -0.45756056226E+01  0.31431754113E+02  0.00000000000E+00 0.  1.
</event>
<event>
12    1  0.8113184E-002  0.1973121E+03  0.7818608E-02  0.1152135E+00
         21   -1    0    0  503  502  0.00000000000E+00  0.00000000000E+00  0.12544774575E+04  0.12544774575E+04  0.00000000000E+00 0.  1.
         21   -1    0    0  501  503 -0.00000000000E+00 -0.00000000000E+00 -0.39460835293E+02  0.39460835293E+02  0.00000000000E+00 0.  1.
          6    2    1    2  501    0  0.91259754293E+02 -0.30712447085E+02  0.30775247077E+03  0.36557302304E+03  0.17222210876E+03 0.  0.
         24    2    3    3    0    0 -0.15454892261E+02 -0.39489683591E+02  0.15691486094E+03  0.18053483722E+03  0.78563764302E+02 0.  0.
         -6    2    1    2    0  502 -0.91259754293E+02  0.30712447085E+02  0.90726415142E+03  0.92836526974E+03  0.17164567123E+03 0.  0.
        -24    2    5    5    0    0 -0.46178278409E+02 -0.49274543758E+02  0.51747862795E+03  0.52788418095E+03  0.79480589173E+02 0.  0.
          5    1    3    3  501    0  0.10671464655E+03  0.87772365058E+01  0.15083760983E+03  0.18503818581E+03  0.47000000000E+01 0. -1.
        -13    1    4    4    0    0  0.23285782306E+01 -0.56662529801E+02  0.13864499057E+03  0.14979485295E+03  0.00000000000E+00 0.  1.
         14    1    4    4    0    0 -0.17783470492E+02  0.17172846210E+02  0.18269870375E+02  0.30739984275E+02  0.00000000000E+00 0. -1.
         -5    1    5    5    0  502 -0.45081475883E+02  0.79986990843E+02  0.38978552347E+03  0.40048108879E+03  0.47000000000E+01 0.  1.
         11    1    6    6    0    0 -0.30404016778E+02  0.16829465791E+02  0.13415692177E+03  0.13858468463E+03  0.00000000000E+00 0. -1.
        -12    1    6    6    0    0 -0.15774261631E+02 -0.66104009549E+02  0.38332170618E+03  0.38929949632E+03  0.00000000000E+00 0.  1.
</event>
<event>
12    1  0.8113184E-002  0.2216891E+03  0.7818608E-02  0.1132807E+00
         21   -1    0    0  503  502  0.00000000000E+00  0.00000000000E+00  0.10422175977E+04  0.10422175977E+04  0.00000000000E+00 0. -1.
         21   -1    0    0  501  503 -0.00000000000E+00 -0.00000000000E+00 -0.54074729722E+02  0.54074729722E+02  0.00000000000E+00 0.  1.
          6    2    1    2  501    0 -0.13788893942E+03 -0.20142214801E+02  0.29419744266E+03  0.36779639528E+03  0.17118114582E+03 0.  0.
         24    2    3    3    0    0 -0.62964910020E+02 -0.55146973451E+02  0.62793264594E+02  0.12201411981E+03  0.62758925899E+02 0.  0.
         -6    2    1    2    0  502  0.13788893942E+03  0.20142214801E+02  0.69394542535E+03  0.72849593218E+03  0.17241520060E+03 0.  0.
        -24    2    5    5    0    0  0.12025206524E+03  0.75492796031E+02  0.53314457082E+03  0.55745865264E+03  0.79732644252E+02 0.  0.
          5    1    3    3  501    0 -0.74924029400E+02  0.35004758649E+02  0.23140417806E+03  0.24578227547E+03  0.47000000000E+01 0. -1.
        -13    1    4    4    0    0 -0.63131717892E+01 -0.45519106951E+02  0.37128090422E+02  0.59079102346E+02  0.00000000000E+00 0.  1.
         14    1    4    4    0    0 -0.56651738230E+02 -0.96278664998E+01  0.25665174172E+02  0.62935017464E+02  0.00000000000E+00 0. -1.
         -5    1    5    5    0  502  0.17636874181E+02 -0.55350581229E+02  0.16080085453E+03  0.17103727954E+03  0.47000000000E+01 0.  1.
         13    1    6    6    0    0  0.10237131398E+03  0.73414140468E+02  0.32536861464E+03  0.34890436704E+03  0.00000000000E+00 0. -1.
        -14    1    6    6    0    0  0.17880751255E+02  0.20786555627E+01  0.20777595618E+03  0.20855428560E+03  0.00000000000E+00 0.  1.
</event>
<event>
12    1  0.8113184E-002  0.2012426E+03  0.7818608E-02  0.1148701E+00
         21   -1    0    0  503  502  0.00000000000E+00  0.00000000000E+00  0.12265208168E+03  0.12265208168E+03  0.00000000000E+00 0.  1.
         21   -1    0    0  501  503 -0.00000000000E+00 -0.00000000000E+00 -0.34025416446E+03  0.34025416446E+03  0.00000000000E+00 0.  1.
          6    2    1    2  501    0  0.92700126993E+02 -0.50345955607E+02 -0.14868920930E+03  0.25019144770E+03  0.17134541357E+03 0.  0.
         24    2    3    3    0    0  0.31533306012E+02 -0.29018321112E+02 -0.78827310785E+01  0.95127582505E+02  0.84561854022E+02 0.  0.
         -6    2    1    2    0  502 -0.92700126993E+02  0.50345955607E+02 -0.68912873491E+02  0.21271479843E+03  0.17137844832E+03 0.  0.
        -24    2    5    5    0    0  0.13337028507E+02 -0.77660443835E+01 -0.32142417277E+02  0.86243302279E+02  0.78527602948E+02 0.  0.
          5    1    3    3  501    0  0.61166820982E+02 -0.21327634495E+02 -0.14080647822E+03  0.15506386520E+03  0.47000000000E+01 0. -1.
        -11    1    4    4    0    0  0.57432470431E+02 -0.55695258219E+01  0.49366354661E+01  0.57912681231E+02  0.00000000000E+00 0.  1.
         12    1    4    4    0    0 -0.25899164419E+02 -0.23448795290E+02 -0.12819366545E+02  0.37214901273E+02  0.00000000000E+00 0. -1.
         -5    1    5    5    0  502 -0.10603715550E+03  0.58111999991E+02 -0.36770456213E+02  0.12647149616E+03  0.47000000000E+01 0.  1.
         13    1    6    6    0    0  0.17427811870E+02  0.69427791833E+01 -0.55362067827E+02  0.58454164637E+02  0.00000000000E+00 0. -1.
        -14    1    6    6    0    0 -0.40907833625E+01 -0.14708823567E+02  0.23219650550E+02  0.27789137642E+02  0.00000000000E+00 0.  1.
</event>
<event>
12    1  0.8113184E-002  0.2391974E+03  0.7818608E-02  0.1120397E+00
         21   -1    0    0  501  502  0.00000000000E+00  0.00000000000E+00  0.93523425933E+02  0.93523425933E+02  0.00000000000E+00 0. -1.
         21   -1    0    0  502  503 -0.00000000000E+00 -0.00000000000E+00 -0.74775626720E+03  0.74775626720E+03  0.00000000000E+00 0. -1.
         -6    2    1    2    0  503  0.15228389076E+03 -0.65210375334E+02 -0.50740621649E+03  0.56096030427E+03  0.17254743694E+03 0.  0.
        -24    2    3    3    0    0  0.11399681377E+03 -0.10900325827E+03 -0.42156759810E+03  0.45716206118E+03  0.80005790726E+02 0.  0.
          6    2    1    2  501    0 -0.15228389076E+03  0.65210375334E+02 -0.14682662478E+03  0.28031938887E+03  0.17198292239E+03 0.  0.
         24    2    5    5    0    0 -0.57866352578E+02  0.91875529589E+02 -0.11407210748E+03  0.17677881531E+03  0.80303649610E+02 0.  0.
          5    1    5    5  501    0 -0.94417538185E+02 -0.26665154255E+02 -0.32754517300E+02  0.10354057355E+03  0.47000000000E+01 0. -1.
        -13    1    6    6    0    0 -0.48677535817E+02  0.12427487542E+02 -0.67784455453E+02  0.84372254568E+02  0.00000000000E+00 0.  1.
         14    1    6    6    0    0 -0.91888167606E+01  0.79448042047E+02 -0.46287652025E+02  0.92406560744E+02  0.00000000000E+00 0. -1.
         -5    1    3    3    0  503  0.38287076996E+02  0.43792882940E+02 -0.85838618385E+02  0.10379824308E+03  0.47000000000E+01 0.  1.
         11    1    4    4    0    0  0.97114948549E+02 -0.11521921681E+03 -0.31620556467E+03  0.35027523504E+03  0.00000000000E+00 0. -1.
        -12    1    4    4    0    0  0.16881865218E+02  0.62159585320E+01 -0.10536203343E+03  0.10688682614E+03  0.00000000000E+00 0.  1.
</event>
<event>
12    1  0.8113184E-002  0.2115337E+03  0.7818608E-02  0.1142148E+00
         21   -1    0    0  501  502  0.00000000000E+00  0.00000000000E+00  0.97405235347E+03  0.97405235347E+03  0.00000000000E+00 0. -1.
         21   -1    0    0  502  503 -0.00000000000E+00 -0.00000000000E+00 -0.84161397586E+02  0.84161397586E+02  0.00000000000E+00 0. -1.
         -6    2    1    2    0  503  0.10565009447E+03  0.18060633576E+02  0.84596395178E+02  0.22782245653E+03  0.18236883690E+03 0.  0.
        -24    2    3    3    0    0  0.41729824427E+02 -0.44626839184E+01  0.12096417789E+03  0.15076529351E+03  0.79602434637E+02 0.  0.
          6    2    1    2  501    0 -0.10565009447E+03 -0.18060633576E+02  0.80529456071E+03  0.83039129453E+03  0.17193674297E+03 0.  0.
         24    2    5    5    0    0 -0.96669070747E+02 -0.71205492673E+02  0.53693009973E+03  0.55662751177E+03  0.84410446271E+02 0.  0.
          5    1    5    5  501    0 -0.89810237224E+01  0.53144859097E+02  0.26836446098E+03  0.27376378276E+03  0.47000000000E+01 0. -1.
        -13    1    6    6    0    0 -0.24952250089E+02 -0.64392185782E+02  0.33980679615E+03  0.34675297704E+03  0.00000000000E+00 0.  1.
         14    1    6    6    0    0 -0.71716820657E+02 -0.68133068918E+01  0.19712330358E+03  0.20987453473E+03  0.00000000000E+00 0. -1.
         -5    1    3    3    0  503  0.63920270042E+02  0.22523317495E+02 -0.36367782709E+02  0.77057163018E+02  0.47000000000E+01 0.  1.
         11    1    4    4    0    0 -0.13028559512E+02  0.19089716765E+02  0.10805714096E+02  0.25513214346E+02  0.00000000000E+00 0. -1.
        -12    1    4    4    0    0  0.54758383939E+02 -0.23552400683E+02  0.11015846379E+03  0.12525207916E+03  0.00000000000E+00 0.  1.
</event>
<event>
12    1  0.8113184E-002  0.1927793E+03  0.7818608E-02  0.1156173E+00
         21   -1    0    0  501  502  0.00000000000E+00  0.00000000000E+00  0.41019879628E+03  0.41019879628E+03  0.00000000000E+00 0. -1.
         21   -1    0    0  502  503 -0.00000000000E+00 -0.00000000000E+00 -0.15403304075E+03  0.15403304075E+03  0.00000000000E+00 0. -1.
         -6    2    1    2    0  503 -0.39965134470E+02  0.79012567226E+02 -0.53374305739E+02  0.20003165320E+03  0.17124149034E+03 0.  0.
        -24    2    3    3    0    0 -0.69807180985E+02  0.31739767710E+02  0.14482554232E+02  0.11198672853E+03  0.80317044387E+02 0.  0.
          6    2    1    2  501    0  0.39965134470E+02 -0.79012567226E+02  0.30954006127E+03  0.36420018383E+03  0.17025429985E+03 0.  0.
         24    2    5    5    0    0  0.13957448724E+02  0.14361409328E+02  0.20884887715E+03  0.22435775903E+03  0.79482640218E+02 0.  0.
          5    1    5    5  501    0  0.26007685747E+02 -0.93373976554E+02  0.10069118413E+03  0.13984242481E+03  0.47000000000E+01 0. -1.
        -11    1    6    6    0    0  0.30573446652E+02  0.14315416749E+02  0.31310800615E+02  0.46043816436E+02  0.00000000000E+00 0.  1.
         12    1    6    6    0    0 -0.16615997928E+02  0.45992579582E-01  0.17753807653E+03  0.17831394259E+03  0.00000000000E+00 0. -1.
         -5    1    3    3    0  503  0.29842046515E+02  0.47272799515E+02 -0.67856859971E+02  0.88044924665E+02  0.47000000000E+01 0.  1.
         13    1    4    4    0    0 -0.49905003797E+02  0.57620851705E+02 -0.10412858412E+00  0.76227834798E+02  0.00000000000E+00 0. -1.
        -14    1    4    4    0    0 -0.19902177188E+02 -0.25881083995E+02  0.14586682817E+02  0.35758893735E+02  0.00000000000E+00 0.  1.
</event>
<event>
12    1  0.8113184E-002  0.3533255E+03  0.7818608E-02  0.1061413E+00
         21   -1    0    0  501  502  0.00000000000E+00  0.00000000000E+00  0.36549839866E+03  0.36549839866E+03  0.00000000000E+00 0. -1.
         21   -1    0    0  502  503 -0.00000000000E+00 -0.00000000000E+00 -0.75025686873E+03  0.75025686873E+03  0.00000000000E+00 0.  1.
         -6    2    1    2    0  503  0.75105756908E+02  0.29806968123E+03 -0.60468243060E+03  0.69957567302E+03  0.17111069755E+03 0.  0.
        -24    2    3    3    0    0  0.93443350588E+01  0.99294398120E+02 -0.13713213251E+03  0.18726566041E+03  0.79476485238E+02 0.  0.
          6    2    1    2  501    0 -0.75105756908E+02 -0.29806968123E+03  0.21992396053E+03  0.41617959436E+03  0.17421967961E+03 0.  0.
         24    2    5    5    0    0 -0.38722562906E+02 -0.16263974771E+03  0.20373239658E+03  0.27493774348E+03  0.78311869842E+02 0.  0.
          5    1    5    5  501    0 -0.36383194001E+02 -0.13542993352E+03  0.16191563943E+02  0.14124185089E+03  0.47000000000E+01 0. -1.
        -11    1    6    6    0    0  0.74064663900E+01 -0.10057081856E+03  0.15008904531E+03  0.18082053758E+03  0.00000000000E+00 0.  1.
         12    1    6    6    0    0 -0.46129029296E+02 -0.62068929145E+02  0.53643351276E+02  0.94117205893E+02  0.00000000000E+00 0. -1.
         -5    1    3    3    0  503  0.65761421849E+02  0.19877528311E+03 -0.46755029809E+03  0.51231001261E+03  0.47000000000E+01 0.  1.
         13    1    4    4    0    0  0.26210031994E+02  0.84529642955E+02 -0.59947718758E+02  0.10689226024E+03  0.00000000000E+00 0. -1.
        -14    1    4    4    0    0 -0.16865696935E+02  0.14764755165E+02 -0.77184413753E+02  0.80373400168E+02  0.00000000000E+00 0.  1.
</event>
<event>
12    1  0.8113184E-002  0.2146275E+03  0.7818608E-02  0.1138510E+00
         21   -1    0    0  501  502  0.00000000000E+00  0.00000000000E+00  0.36141657446E+03  0.36141657446E+03  0.00000000000E+00 0. -1.
         21   -1    0    0  502  503 -0.00000000000E+00 -0.00000000000E+00 -0.13909730467E+03  0.13909730467E+03  0.00000000000E+00 0. -1.
         -6    2    1    2    0  503  0.43808668929E+02 -0.12133929939E+03  0.32981160464E+02  0.21430783579E+03  0.16792160815E+03 0.  0.
        -24    2    3    3    0    0  0.49445726545E+01 -0.96291596724E+01  0.45006456854E+02  0.95327706992E+02  0.83334392942E+02 0.  0.
          6    2    1    2  501    0 -0.43808668929E+02  0.12133929939E+03  0.18933810932E+03  0.28620604334E+03  0.17153003980E+03 0.  0.
         24    2    5    5    0    0 -0.12086316445E+01  0.53071759023E+02  0.21192325596E+02  0.99738043865E+02  0.81734266581E+02 0.  0.
          5    1    5    5  501    0 -0.42600037284E+02  0.68267540368E+02  0.16814578373E+03  0.18646799948E+03  0.47000000000E+01 0. -1.
        -11    1    6    6    0    0 -0.16588673087E+02  0.70251581639E+02  0.66780460655E+01  0.72491827793E+02  0.00000000000E+00 0.  1.
         12    1    6    6    0    0  0.15380041443E+02 -0.17179822616E+02  0.14514279531E+02  0.27246216071E+02  0.00000000000E+00 0. -1.
         -5    1    3    3    0  503  0.38864096274E+02 -0.11171013972E+03 -0.12025296390E+02  0.11898012880E+03  0.47000000000E+01 0.  1.
         11    1    4    4    0    0  0.83892861019E+01 -0.27176516854E+02 -0.15390552483E+02  0.32339021249E+02  0.00000000000E+00 0. -1.
        -12    1    4    4    0    0 -0.34447134474E+01  0.17547357182E+02  0.60397009337E+02  0.62988685743E+02  0.00000000000E+00 0.  1.
</event>
<event>
12    1  0.8113184E-002  0.1928594E+03  0.7818608E-02  0.1156526E+00
         21   -1    0    0  503  502  0.00000000000E+00  0.00000000000E+00  0.76800629659E+02  0.76800629659E+02  0.00000000000E+00 0.  1.
         21   -1    0    0  501  503 -0.00000000000E+00 -0.00000000000E+00 -0.64194797419E+03  0.64194797419E+03  0.00000000000E+00 0.  1.
          6    2    1    2  501    0  0.14199868815E+02 -0.86061405439E+02 -0.99084671509E+02  0.21435872446E+03  0.16888957589E+03 0.  0.
         24    2    3    3    0    0 -0.11750383556E+02 -0.84272443031E+02 -0.53531760264E+01  0.11697135757E+03  0.80085740492E+02 0.  0.
         -6    2    1    2    0  502 -0.14199868815E+02  0.86061405439E+02 -0.46606267302E+03  0.50438987939E+03  0.17200736456E+03 0.  0.
        -24    2    5    5    0    0 -0.13592386046E+02 -0.23097282864E+02 -0.19888124530E+03  0.21573092216E+03  0.79169713971E+02 0.  0.
          5    1    3    3  501    0  0.25950252370E+02 -0.17889624074E+01 -0.93731495482E+02  0.97387366891E+02  0.47000000000E+01 0. -1.
        -13    1    4    4    0    0  0.25681364488E+02 -0.71891172077E+01 -0.15232977458E+02  0.30712529860E+02  0.00000000000E+00 0.  1.
         14    1    4    4    0    0 -0.37431748043E+02 -0.77083325824E+02  0.98798014317E+01  0.86258827710E+02  0.00000000000E+00 0. -1.
         -5    1    5    5    0  502 -0.60748276883E+00  0.10915868830E+03 -0.26718142772E+03  0.28865895723E+03  0.47000000000E+01 0.  1.
         11    1    6    6    0    0  0.29635809350E+02 -0.82375244810E+01 -0.12600572735E+03  0.12970574903E+03  0.00000000000E+00 0. -1.
        -12    1    6    6    0    0 -0.43228195396E+02 -0.14859758383E+02 -0.72875517948E+02  0.86025173133E+02  0.00000000000E+00 0.  1.
</event>
<event>
12    1  0.8113184E-002  0.2338276E+03  0.7818608E-02  0.1124270E+00
         21   -1    0    0  503  502  0.00000000000E+00  0.00000000000E+00  0.75011939669E+03  0.75011939669E+03  0.00000000000E+00 0. -1.
         21   -1    0    0  501  503 -0.00000000000E+00 -0.00000000000E+00 -0.72955160525E+02  0.72955160525E+02  0.00000000000E+00 0.  1.
          6    2    1    2  501    0 -0.41884999004E+02 -0.15021489044E+03  0.37705680036E+03  0.44367464895E+03  0.17423115958E+03 0.  0.
         24    2    3    3    0    0 -0.72635869073E+02 -0.50064867617E+02  0.13804791815E+03  0.18267085806E+03  0.80801944495E+02 0.  0.
         -6    2    1    2    0  502  0.41884999004E+02  0.15021489044E+03  0.30010743581E+03  0.37939990827E+03  0.17193298379E+03 0.  0.
        -24    2    5    5    0    0 -0.13370420088E+02  0.82006239565E+01  0.10172859211E+03  0.12920504651E+03  0.78097498196E+02 0.  0.
          5    1    3    3  501    0  0.30750870069E+02 -0.10015002282E+03  0.23900888221E+03  0.26100379089E+03  0.47000000000E+01 0. -1.
        -11    1    4    4    0    0  0.13319839581E+02 -0.18192859402E+02  0.87826921859E+01  0.24197808614E+02  0.00000000000E+00 0.  1.
         12    1    4    4    0    0 -0.85955708654E+02 -0.31872008215E+02  0.12926522596E+03  0.15847304945E+03  0.00000000000E+00 0. -1.
         -5    1    5    5    0  502  0.55255419092E+02  0.14201426648E+03  0.19837884370E+03  0.25019486176E+03  0.47000000000E+01 0.  1.
         11    1    6    6    0    0 -0.11783771714E+02  0.52986661339E+01  0.11490030113E+03  0.11562444524E+03  0.00000000000E+00 0. -1.
        -12    1    6    6    0    0 -0.15866483741E+01  0.29019578226E+01 -0.13171709019E+02  0.13580601266E+02  0.00000000000E+00 0.  1.
</event>
<event>
12    1  0.8113184E-002  0.3846042E+03  0.7818608E-02  0.1049294E+00
         21   -1    0    0  501  502  0.00000000000E+00  0.00000000000E+00  0.73945017896E+03  0.73945017896E+03  0.00000000000E+00 0.  1.
         21   -1    0    0  502  503 -0.00000000000E+00 -0.00000000000E+00 -0.28691289925E+03  0.28691289925E+03  0.00000000000E+00 0.  1.
         -6    2    1    2    0  503  0.10646931778E+03 -0.32653271180E+03 -0.56671970848E+02  0.38822951724E+03  0.17190438702E+03 0.  0.
        -24    2    3    3    0    0  0.23725981026E+02 -0.86567282068E+02  0.22812210284E+02  0.12220378109E+03  0.79727979251E+02 0.  0.
          6    2    1    2  501    0 -0.10646931778E+03  0.32653271180E+03  0.50920925056E+03  0.63813356097E+03  0.17309261473E+03 0.  0.
         24    2    5    5    0    0 -0.13559391937E+03  0.31348995666E+03  0.44776454719E+03  0.56873689353E+03  0.79415996115E+02 0.  0.
          5    1    5    5  501    0  0.29124601596E+02  0.13042755135E+02  0.61444703374E+02  0.69396667444E+02  0.47000000000E+01 0. -1.
        -11    1    6    6    0    0 -0.42993058692E+02  0.18305826158E+03  0.20676597513E+03  0.27948327088E+03  0.00000000000E+00 0.  1.
         12    1    6    6    0    0 -0.92600860682E+02  0.13043169508E+03  0.24099857205E+03  0.28925362264E+03  0.00000000000E+00 0. -1.
         -5    1    3    3    0  503  0.82743336752E+02 -0.23996542973E+03 -0.79484181132E+02  0.26602573615E+03  0.47000000000E+01 0.  1.
         13    1    4    4    0    0  0.11883403083E+01  0.68133381133E+01 -0.16897324325E+02  0.18257965338E+02  0.00000000000E+00 0. -1.
        -14    1    4    4    0    0  0.22537640718E+02 -0.93380620181E+02  0.39709534609E+02  0.10394581576E+03  0.00000000000E+00 0.  1.
</event>
<event>
12    1  0.8113184E-002  0.1812065E+03  0.7818608E-02  0.1166812E+00
         21   -1    0    0  503  502  0.00000000000E+00  0.00000000000E+00  0.50349430781E+03  0.50349430781E+03  0.00000000000E+00 0.  1.
         21   -1    0    0  501  503 -0.00000000000E+00 -0.00000000000E+00 -0.10178962476E+03  0.10178962476E+03  0.00000000000E+00 0.  1.
          6    2    1    2  501    0  0.37641447240E+02  0.35960563152E+02  0.19060750291E+02  0.18220625157E+03  0.17356775408E+03 0.  0.
         24    2    3    3    0    0  0.71753625615E+02  0.23934490396E+02  0.59027955155E+02  0.12809770692E+03  0.84872141537E+02 0.  0.
         -6    2    1    2    0  502 -0.37641447240E+02 -0.35960563152E+02  0.38264393276E+03  0.42307768100E+03  0.17282448968E+03 0.  0.
        -24    2    5    5    0    0  0.25281911264E+02  0.30015487860E+02  0.19191393724E+03  0.21162506327E+03  0.80088098685E+02 0.  0.
          5    1    3    3  501    0 -0.34112178374E+02  0.12026072757E+02 -0.39967204865E+02  0.54108544650E+02  0.47000000000E+01 0. -1.
        -11    1    4    4    0    0  0.67998195994E+02  0.35004890252E+02  0.93335229171E+01  0.77046814665E+02  0.00000000000E+00 0.  1.
         12    1    4    4    0    0  0.37554296211E+01 -0.11070399857E+02  0.49694432238E+02  0.51050892256E+02  0.00000000000E+00 0. -1.
         -5    1    5    5    0  502 -0.62923358505E+02 -0.65976051012E+02  0.19072999552E+03  0.21145261773E+03  0.47000000000E+01 0.  1.
         13    1    6    6    0    0  0.15995251662E+02  0.21484845606E+02  0.19641712346E+03  0.19823504497E+03  0.00000000000E+00 0. -1.
        -14    1    6    6    0    0  0.92866596028E+01  0.85306422534E+01 -0.45031862270E+01  0.13390018298E+02  0.00000000000E+00 0.  1.
</event>
<event>
12    1  0.8113184E-002  0.3432823E+03  0.7818608E-02  0.1065583E+00
         21   -1    0    0  501  502  0.00000000000E+00  0.00000000000E+00  0.17109664687E+03  0.17109664687E+03  0.00000000000E+00 0. -1.
         21   -1    0    0  502  503 -0.00000000000E+00 -0.00000000000E+00 -0.72735764231E+03  0.72735764231E+03  0.00000000000E+00 0.  1.
         -6    2    1    2    0  503  0.20023718546E+03  0.21989776243E+03 -0.38538241990E+03  0.51499345437E+03  0.16807347236E+03 0.  0.
        -24    2    3    3    0    0  0.13361740313E+03  0.20168784120E+03 -0.36068292141E+03  0.44149548260E+03  0.79337857610E+02 0.  0.
          6    2    1    2  501    0 -0.20023718546E+03 -0.21989776243E+03 -0.17087857553E+03  0.38346083481E+03  0.17144319145E+03 0.  0.
         24    2    5    5    0    0 -0.62774647343E+02 -0.94209510911E+02 -0.12199409927E+02  0.13872699254E+03  0.79248120241E+02 0.  0.
          5    1    5    5  501    0 -0.13746253812E+03 -0.12568825152E+03 -0.15867916561E+03  0.24473384227E+03  0.47000000000E+01 0. -1.
        -11    1    6    6    0    0 -0.13022048233E+02 -0.91526822387E+01 -0.34234779343E+02  0.37754012356E+02  0.00000000000E+00 0.  1.
         12    1    6    6    0    0 -0.49752599111E+02 -0.85056828673E+02  0.22035369416E+02  0.10097298018E+03  0.00000000000E+00 0. -1.
         -5    1    3    3    0  503  0.66619782327E+02  0.18209921225E+02 -0.24699498493E+02  0.73497971769E+02  0.47000000000E+01 0.  1.
         13    1    4    4    0    0 -0.18981696312E+01  0.80318815851E+01  0.20921018215E+01  0.85141681788E+01  0.00000000000E+00 0. -1.
        -14    1    4    4    0    0  0.13551557276E+03  0.19365595962E+03 -0.36277502323E+03  0.43298131442E+03  0.00000000000E+00 0.  1.
</event>
<event>
12    1  0.8113184E-002  0.1960677E+03  0.7818608E-02  0.1153270E+00
         21   -1    0    0  503  502  0.00000000000E+00  0.00000000000E+00  0.59653851622E+02  0.59653851622E+02  0.00000000000E+00 0. -1.
         21   -1    0    0  501  503 -0.00000000000E+00 -0.00000000000E+00 -0.75838320941E+03  0.75838320941E+03  0.00000000000E+00 0. -1.
          6    2    1    2  501    0  0.60179403827E+02  0.70810322532E+02 -0.50910592201E+03  0.54527419753E+03  0.17175403413E+03 0.  0.
         24    2    3    3    0    0  0.93019375606E+02  0.90498977395E+02 -0.44236564283E+03  0.46818683318E+03  0.81663208727E+02 0.  0.
         -6    2    1    2    0  502 -0.60179403827E+02 -0.70810322532E+02 -0.18962343578E+03  0.27276286351E+03  0.17264666197E+03 0.  0.
        -24    2    5    5    0    0 -0.10134031573E+03 -0.33853621233E+02 -0.97005436915E+02  0.16478044756E+03  0.79540014108E+02 0.  0.
          5    1    3    3  501    0 -0.32839971779E+02 -0.19688654864E+02 -0.66740279178E+02  0.77087364344E+02  0.47000000000E+01 0. -1.
        -11    1    4    4    0    0  0.66125502950E+01  0.18871524096E+02 -0.11767302486E+02  0.23201932051E+02  0.00000000000E+00 0.  1.
         12    1    4    4    0    0  0.86406825311E+02  0.71627453300E+02 -0.43059834034E+03  0.44498490113E+03  0.00000000000E+00 0. -1.
         -5    1    5    5    0  502  0.41160911905E+02 -0.36956701299E+02 -0.92617998865E+02  0.10798241595E+03  0.47000000000E+01 0.  1.
         11    1    6    6    0    0 -0.15147846074E+02 -0.42009623307E+02 -0.46851683699E+02  0.64725157061E+02  0.00000000000E+00 0. -1.
        -12    1    6    6    0    0 -0.86192469658E+02  0.81560020741E+01 -0.50153753216E+02  0.10005529050E+03  0.00000000000E+00 0.  1.
</event>
<event>
12    1  0.8113184E-002  0.2669669E+03  0.7818608E-02  0.1103448E+00
         21   -1    0    0  503  502  0.00000000000E+00  0.00000000000E+00  0.17169332508E+03  0.17169332508E+03  0.00000000000E+00 0. -1.
         21   -1    0    0  501  503 -0.00000000000E+00 -0.00000000000E+00 -0.64728304375E+03  0.64728304375E+03  0.00000000000E+00 0.  1.
          6    2    1    2  501    0  0.17453825048E+03  0.10651191246E+03 -0.48620135961E+03  0.55467385654E+03  0.17164771092E+03 0.  0.
         24    2    3    3    0    0  0.45282838886E+02  0.36427850323E+02 -0.30867533095E+03  0.32411731674E+03  0.79962811958E+02 0.  0.
         -6    2    1    2    0  502 -0.17453825048E+03 -0.10651191246E+03  0.10611640935E+02  0.26430251229E+03  0.16713713740E+03 0.  0.
        -24    2    5    5    0    0 -0.23845749486E+02 -0.97905104058E+01  0.17104364423E+02  0.85061041273E+02  0.79236024620E+02 0.  0.
          5    1    3    3  501    0  0.12925541160E+03  0.70084062141E+02 -0.17752602865E+03  0.23055653980E+03  0.47000000000E+01 0. -1.
        -11    1    4    4    0    0  0.32587363584E+01  0.47445067004E+02 -0.22348430043E+03  0.22848826290E+03  0.00000000000E+00 0.  1.
         12    1    4    4    0    0  0.42024102527E+02 -0.11017216681E+02 -0.85191030527E+02  0.95629053843E+02  0.00000000000E+00 0. -1.
         -5    1    5    5    0  502 -0.15069250100E+03 -0.96721402059E+02 -0.64927234881E+01  0.17924147101E+03  0.47000000000E+01 0.  1.
         13    1    6    6    0    0 -0.21240234342E+02  0.33422278865E+02  0.12495666168E+02  0.41525148433E+02  0.00000000000E+00 0. -1.
        -14    1    6    6    0    0 -0.26055151443E+01 -0.43212789271E+02  0.46086982546E+01  0.43535892840E+02  0.00000000000E+00 0.  1.
</event>
<event>
12    1  0.8113184E-002  0.1836863E+03  0.7818608E-02  0.1164908E+00
         21   -1    0    0  501  502  0.00000000000E+00  0.00000000000E+00  0.19949143711E+03  0.19949143711E+03  0.00000000000E+00 0. -1.
         21   -1    0    0  502  503 -0.00000000000E+00 -0.00000000000E+00 -0.42406015687E+03  0.42406015687E+03  0.00000000000E+00 0. -1.
         -6    2    1    2    0  503 -0.54776585437E+02  0.32468473454E+02 -0.35547684091E+03  0.40013051963E+03  0.17229617592E+03 0.  0.
        -24    2    3    3    0    0 -0.58934054098E+02  0.68557707878E+02 -0.15599890280E+03  0.19731716904E+03  0.80156256650E+02 0.  0.
          6    2    1    2  501    0  0.54776585437E+02 -0.32468473454E+02  0.13090812115E+03  0.22342107435E+03  0.16948558700E+03 0.  0.
         24    2    5    5    0    0  0.88127073103E+02 -0.46622736298E+02  0.55313593928E+02  0.13946143684E+03  0.80310884319E+02 0.  0.
          5    1    5    5  501    0 -0.33350487665E+02  0.14154262844E+02  0.75594527217E+02  0.83959637502E+02  0.47000000000E+01 0. -1.
        -11    1    6    6    0    0  0.97456098061E+02 -0.48290701170E+02  0.64343280133E+02  0.12637143889E+03  0.00000000000E+00 0.  1.
         12    1    6    6    0    0 -0.93290249585E+01  0.16679648725E+01 -0.90296862054E+01  0.13089997955E+02  0.00000000000E+00 0. -1.
         -5    1    3    3    0  503  0.41574686603E+01 -0.36089234424E+02 -0.19947793811E+03  0.20281335060E+03  0.47000000000E+01 0.  1.
         13    1    4    4    0    0 -0.44853465716E+02 -0.10678520334E+01 -0.89006623260E+02  0.99675236036E+02  0.00000000000E+00 0. -1.
        -14    1    4    4    0    0 -0.14080588382E+02  0.69625559912E+02 -0.66992279539E+02  0.97641933000E+02  0.00000000000E+00 0.  1.
</event>
<event>
12    1  0.8113184E-002  0.3288811E+03  0.7818608E-02  0.1071784E+00
         21   -1    0    0  501  502  0.00000000000E+00  0.00000000000E+00  0.70885582254E+02  0.70885582254E+02  0.00000000000E+00 0. -1.
         21   -1    0    0  502  503 -0.00000000000E+00 -0.00000000000E+00 -0.25366590002E+04  0.25366590002E+04  0.00000000000E+00 0.  1.
         -6    2    1    2    0  503  0.26528264994E+03  0.87880768741E+02 -0.20569162318E+04  0.20828284731E+04  0.17079856423E+03 0.  0.
        -24    2    3    3    0    0  0.43125230215E+02  0.44021934506E+02 -0.65476136381E+03  0.66249827188E+03  0.79961243746E+02 0.  0.
          6    2    1    2  501    0 -0.26528264994E+03 -0.87880768741E+02 -0.40885718614E+03  0.52471610942E+03  0.17339228056E+03 0.  0.
         24    2    5    5    0    0 -0.24057017606E+03 -0.83240496509E+02 -0.41731599735E+03  0.49777394955E+03  0.93932280591E+02 0.  0.
          5    1    5    5  501    0 -0.24712473873E+02 -0.46402722321E+01  0.84588112111E+01  0.26942159869E+02  0.47000000000E+01 0. -1.
        -11    1    6    6    0    0  0.42114352236E+01  0.39672092610E+01 -0.35213893898E+02  0.35686037317E+02  0.00000000000E+00 0.  1.
         12    1    6    6    0    0 -0.24478161129E+03 -0.87207705770E+02 -0.38210210346E+03  0.46208791224E+03  0.00000000000E+00 0. -1.
         -5    1    3    3    0  503  0.22215741972E+03  0.43858834236E+02 -0.14021548680E+04  0.14203302012E+04  0.47000000000E+01 0.  1.
         13    1    4    4    0    0  0.28350732571E+02 -0.19611694574E+02 -0.27601891342E+03  0.27816330305E+03  0.00000000000E+00 0. -1.
        -14    1    4    4    0    0  0.14774497644E+02  0.63633629079E+02 -0.37874245039E+03  0.38433496882E+03  0.00000000000E+00 0.  1.
</event>
<event>
12    1  0.8113184E-002  0.1960051E+03  0.7818608E-02  0.1153419E+00
         21   -1    0    0  503  502  0.00000000000E+00  0.00000000000E+00  0.84074565699E+02  0.84074565699E+02  0.00000000000E+00 0.  1.
         21   -1    0    0  501  503 -0.00000000000E+00 -0.00000000000E+00 -0.62656371920E+03  0.62656371920E+03  0.00000000000E+00 0.  1.
          6    2    1    2  501    0  0.34202704534E+02  0.86204690894E+02 -0.45704191171E+03  0.49681771282E+03  0.17128764398E+03 0.  0.
         24    2    3    3    0    0  0.49092759590E+02  0.41092506034E+00 -0.33106021980E+03  0.34359969595E+03  0.77779264719E+02 0.  0.
         -6    2    1    2    0  502 -0.34202704534E+02 -0.86204690894E+02 -0.85447241796E+02  0.21382057209E+03  0.17267580082E+03 0.  0.
        -24    2    5    5    0    0 -0.53197715994E+02 -0.62068784817E+02 -0.12141446104E+03  0.16629075742E+03  0.78921566246E+02 0.  0.
          5    1    3    3  501    0 -0.14890055056E+02  0.85793765833E+02 -0.12598169191E+03  0.15321801686E+03  0.47000000000E+01 0. -1.
        -13    1    4    4    0    0  0.84936390858E+01 -0.35394571776E+02 -0.10434624761E+03  0.11051270066E+03  0.00000000000E+00 0.  1.
         14    1    4    4    0    0  0.40599120505E+02  0.35805496836E+02 -0.22671397219E+03  0.23308699529E+03  0.00000000000E+00 0. -1.
         -5    1    5    5    0  502  0.18995011460E+02 -0.24135906077E+02  0.35967219241E+02  0.47529814669E+02  0.47000000000E+01 0.  1.
         13    1    6    6    0    0 -0.73303979320E+01  0.12488861311E+02  0.23781774593E+01  0.14675221249E+02  0.00000000000E+00 0. -1.
        -14    1    6    6    0    0 -0.45867318062E+02 -0.74557646128E+02 -0.12379263850E+03  0.15161553617E+03  0.00000000000E+00 0.  1.
</event>
<event>
12    1  0.8113184E-002  0.1864294E+03  0.7818608E-02  0.1161918E+00
         21   -1    0    0  501  502  0.00000000000E+00  0.00000000000E+00  0.48475026579E+02  0.48475026579E+02  0.00000000000E+00 0. -1.
         21   -1    0    0  502  503 -0.00000000000E+00 -0.00000000000E+00 -0.84355837778E+03  0.84355837778E+03  0.00000000000E+00 0. -1.
         -6    2    1    2    0  503  0.69376832512E+02  0.65269832088E+01 -0.57175005536E+03  0.60111471413E+03  0.17200298644E+03 0.  0.
        -24    2    3    3    0    0  0.98670996091E+02  0.42250675133E+02 -0.44824402090E+03  0.46916714601E+03  0.87601504596E+02 0.  0.
          6    2    1    2  501    0 -0.69376832512E+02 -0.65269832088E+01 -0.22333329584E+03  0.29091869022E+03  0.17291667615E+03 0.  0.
         24    2    5    5    0    0 -0.25596038498E+02  0.50888557935E+02 -0.67020543657E+02  0.11867157476E+03  0.79664213228E+02 0.  0.
          5    1    5    5  501    0 -0.43780794014E+02 -0.57415541144E+02 -0.15631275218E+03  0.17224711546E+03  0.47000000000E+01 0. -1.
        -13    1    6    6    0    0 -0.16830899339E+02  0.54778964419E+02 -0.82507194940E+02  0.10045621600E+03  0.00000000000E+00 0.  1.
         14    1    6    6    0    0 -0.87651391595E+01 -0.38904064839E+01  0.15486651283E+02  0.18215358768E+02  0.00000000000E+00 0. -1.
         -5    1    3    3    0  503 -0.29294163579E+02 -0.35723691924E+02 -0.12350603446E+03  0.13194756812E+03  0.47000000000E+01 0.  1.
         13    1    4    4    0    0  0.51318394425E+01  0.31628907120E+02 -0.46040605228E+02  0.56093322878E+02  0.00000000000E+00 0. -1.
        -14    1    4    4    0    0  0.93539156649E+02  0.10621768013E+02 -0.40220341567E+03  0.41307382313E+03  0.00000000000E+00 0.  1.
</event>
<event>
12    1  0.8113184E-002  0.2425894E+03  0.7818608E-02  0.1118179E+00
         21   -1    0    0  503  502  0.00000000000E+00  0.00000000000E+00  0.29192121196E+03  0.29192121196E+03  0.00000000000E+00 0. -1.
         21   -1    0    0  501  503 -0.00000000000E+00 -0.00000000000E+00 -0.14434126329E+04  0.14434126329E+04  0.00000000000E+00 0. -1.
          6    2    1    2  501    0  0.22289447468E+02 -0.17000592837E+03 -0.13806057351E+04  0.14016528748E+04  0.17076226302E+03 0.  0.
         24    2    3    3    0    0 -0.65088326943E+01 -0.16462266278E+03 -0.82136572633E+03  0.84162627016E+03  0.80932911884E+02 0.  0.
         -6    2    1    2    0  502 -0.22289447468E+02  0.17000592837E+03  0.22911431420E+03  0.33368097003E+03  0.17161231203E+03 0.  0.
        -24    2    5    5    0    0 -0.10504020266E+01  0.67493048267E+02  0.19834047333E+03  0.22446051901E+03  0.80542947101E+02 0.  0.
          5    1    3    3  501    0  0.28798280163E+02 -0.53832655880E+01 -0.55924000876E+03  0.56002660463E+03  0.47000000000E+01 0. -1.
        -11    1    4    4    0    0 -0.27176828240E+02 -0.87260618737E+02 -0.58423289293E+03  0.59133837078E+03  0.00000000000E+00 0.  1.
         12    1    4    4    0    0  0.20667995546E+02 -0.77362044045E+02 -0.23713283340E+03  0.25028789938E+03  0.00000000000E+00 0. -1.
         -5    1    5    5    0  502 -0.21239045442E+02  0.10251288010E+03  0.30773840875E+02  0.10922045102E+03  0.47000000000E+01 0.  1.
         11    1    6    6    0    0 -0.19981037304E+02  0.52209640483E+02  0.52783790614E+02  0.76884439015E+02  0.00000000000E+00 0. -1.
        -12    1    6    6    0    0  0.18930635277E+02  0.15283407784E+02  0.14555668271E+03  0.14757608000E+03  0.00000000000E+00 0.  1.
</event>
<event>
12    1  0.8113184E-002  0.1970236E+03  0.7818608E-02  0.1154937E+00
         21   -1    0    0  503  502  0.00000000000E+00  0.00000000000E+00  0.24627444716E+03  0.24627444716E+03  0.00000000000E+00 0.  1.
         21   -1    0    0  501  503 -0.00000000000E+00 -0.00000000000E+00 -0.18572114796E+03  0.18572114796E+03  0.00000000000E+00 0.  1.
          6    2    1    2  501    0 -0.30523595245E+02  0.63429571480E+02 -0.66027347713E+02  0.20779293964E+03  0.18401982153E+03 0.  0.
         24    2    3    3    0    0 -0.80846877604E+02  0.49823978416E+02 -0.93826776268E+00  0.12426915118E+03  0.80145462413E+02 0.  0.
         -6    2    1    2    0  502  0.30523595245E+02 -0.63429571480E+02  0.12658064691E+03  0.22420265547E+03  0.17114079041E+03 0.  0.
        -24    2    5    5    0    0  0.54395075972E+01 -0.85768055405E+02  0.14472032033E+03  0.18574024436E+03  0.78547563210E+02 0.  0.
          5    1    3    3  501    0  0.50323282359E+02  0.13605593064E+02 -0.65089079951E+02  0.83523788461E+02  0.47000000000E+01 0. -1.
        -11    1    4    4    0    0 -0.15214564878E+02  0.37476666166E+02 -0.31069457457E+02  0.51002888918E+02  0.00000000000E+00 0.  1.
         12    1    4    4    0    0 -0.65632312727E+02  0.12347312249E+02  0.30131189694E+02  0.73266262263E+02  0.00000000000E+00 0. -1.
         -5    1    5    5    0  502  0.25084087648E+02  0.22338483925E+02 -0.18139673414E+02  0.38462411115E+02  0.47000000000E+01 0.  1.
         11    1    6    6    0    0  0.39294375378E+01 -0.97667062081E+02  0.10161030250E+03  0.14099272700E+03  0.00000000000E+00 0. -1.
        -12    1    6    6    0    0  0.15100700595E+01  0.11899006676E+02  0.43110017834E+02  0.44747517351E+02  0.00000000000E+00 0.  1.
</event>
<event>
12    1  0.8113184E-002  0.1740778E+03  0.7818608E-02  0.1173753E+00
         21   -1    0    0  503  502  0.00000000000E+00  0.00000000000E+00  0.10571903012E+04  0.10571903012E+04  0.00000000000E+00 0.  1.
         21   -1    0    0  501  503 -0.00000000000E+00 -0.00000000000E+00 -0.10283889301E+03  0.10283889301E+03  0.00000000000E+00 0.  1.
          6    2    1    2  501    0  0.28307733582E+02  0.11630671162E+02 -0.15755812996E+02  0.17442728905E+03  0.17099717316E+03 0.  0.
         24    2    3    3    0    0  0.30461369677E+02  0.72279995968E+02 -0.13426966538E+02  0.11351347884E+03  0.80948956688E+02 0.  0.
         -6    2    1    2    0  502 -0.28307733582E+02 -0.11630671162E+02  0.97010722115E+03  0.98560190513E+03  0.17136655030E+03 0.  0.
        -24    2    5    5    0    0  0.41544294730E+02  0.25957249845E+02  0.49170778391E+03  0.50064802152E+03  0.80449918920E+02 0.  0.
          5    1    3    3  501    0 -0.21536360952E+01 -0.60649324807E+02 -0.23288464581E+01  0.60913810206E+02  0.47000000000E+01 0. -1.
        -11    1    4    4    0    0  0.45947976192E+02  0.48314541560E+02  0.19956541056E+02  0.69597233949E+02  0.00000000000E+00 0.  1.
         12    1    4    4    0    0 -0.15486606515E+02  0.23965454408E+02 -0.33383507594E+02  0.43916244894E+02  0.00000000000E+00 0. -1.
         -5    1    5    5    0  502 -0.69852028313E+02 -0.37587921006E+02  0.47839943725E+03  0.48495388360E+03  0.47000000000E+01 0.  1.
         13    1    6    6    0    0  0.10921675737E+02  0.74479629639E+01  0.76578517536E+01  0.15277363866E+02  0.00000000000E+00 0. -1.
        -14    1    6    6    0    0  0.30622618993E+02  0.18509286881E+02  0.48404993215E+03  0.48537065766E+03  0.00000000000E+00 0.  1.
</event>
<event>
12    1  0.8113184E-002  0.1948820E+03  0.7818608E-02  0.1154356E+00
         21   -1    0    0  503  502  0.00000000000E+00  0.00000000000E+00  0.20933945560E+03  0.20933945560E+03  0.00000000000E+00 0. -1.
         21   -1    0    0  501  503 -0.00000000000E+00 -0.00000000000E+00 -0.36499792307E+03  0.36499792307E+03  0.00000000000E+00 0.  1.
          6    2    1    2  501    0  0.50720293444E+02  0.74114366547E+02 -0.28211902359E+03  0.34288504194E+03  0.17295525728E+03 0.  0.
         24    2    3    3    0    0 -0.14436354491E+02  0.77476971476E+02 -0.24068442340E+03  0.26545370478E+03  0.79533566958E+02 0.  0.
         -6    2    1    2    0  502 -0.50720293444E+02 -0.74114366547E+02  0.12646055613E+03  0.23145233673E+03  0.17179180547E+03 0.  0.
        -24    2    5    5    0    0 -0.65208630501E+02 -0.85307234246E+02  0.15093460501E+03  0.20052886237E+03  0.76818487010E+02 0.  0.
          5    1    3    3  501    0  0.65156647935E+02 -0.33626049287E+01 -0.41434600195E+02  0.77431337167E+02  0.47000000000E+01 0. -1.
        -11    1    4    4    0    0  0.71922084274E+01  0.28805038709E+01 -0.13003708280E+03  0.13026767852E+03  0.00000000000E+00 0.  1.
         12    1    4    4    0    0 -0.21628562918E+02  0.74596467605E+02 -0.11064734060E+03  0.13518602626E+03  0.00000000000E+00 0. -1.
         -5    1    5    5    0  502  0.14488337056E+02  0.11192867699E+02 -0.24474048883E+02  0.30923474364E+02  0.47000000000E+01 0.  1.
         11    1    6    6    0    0  0.84064890357E-01 -0.54620366606E+02  0.93620850309E+02  0.10838936815E+03  0.00000000000E+00 0. -1.
        -12    1    6    6    0    0 -0.65292695391E+02 -0.30686867640E+02  0.57313754699E+02  0.92139494218E+02  0.00000000000E+00 0.  1.
</event>
<event>
12    1  0.8113184E-002  0.2250742E+03  0.7818608E-02  0.1130555E+00
         21   -1    0    0  503  502  0.00000000000E+00  0.00000000000E+00  0.15304245646E+03  0.15304245646E+03  0.00000000000E+00 0.  1.
         21   -1    0    0  501  503 -0.00000000000E+00 -0.00000000000E+00 -0.33194101374E+03  0.33194101374E+03  0.00000000000E+00 0. -1.
          6    2    1    2  501    0  0.13907997700E+03  0.41124503377E+02 -0.61888401477E+02  0.23131089819E+03  0.16923384000E+03 0.  0.
         24    2    3    3    0    0  0.83312650371E+02  0.85954546343E+02 -0.69100462924E+02  0.15924265759E+03  0.79083299577E+02 0.  0.
         -6    2    1    2    0  502 -0.13907997700E+03 -0.41124503377E+02 -0.11701015580E+03  0.25367257201E+03  0.17211604356E+03 0.  0.
        -24    2    5    5    0    0 -0.14110783506E+03 -0.76822387040E+02 -0.69695540187E+02  0.19418127890E+03  0.83879678631E+02 0.  0.
          5    1    3    3  501    0  0.55767326633E+02 -0.44830042966E+02  0.72120614471E+01  0.72068240595E+02  0.47000000000E+01 0. -1.
        -13    1    4    4    0    0  0.57720763502E+02  0.50114534738E+02  0.10111300653E+01  0.76447207374E+02  0.00000000000E+00 0.  1.
         14    1    4    4    0    0  0.25591886869E+02  0.35840011605E+02 -0.70111592990E+02  0.82795450219E+02  0.00000000000E+00 0. -1.
         -5    1    5    5    0  502  0.20278580529E+01  0.35697883663E+02 -0.47314615610E+02  0.59491293116E+02  0.47000000000E+01 0.  1.
         13    1    6    6    0    0 -0.12677445000E+03 -0.70821555262E+02 -0.88290089212E+02  0.16994879733E+03  0.00000000000E+00 0. -1.
        -14    1    6    6    0    0 -0.14333385058E+02 -0.60008317774E+01  0.18594549025E+02  0.24232481563E+02  0.00000000000E+00 0.  1.
</event>
<event>
12    1  0.8113184E-002  0.1782502E+03  0.7818608E-02  0.1169832E+00
         21   -1    0    0  501  502  0.00000000000E+00  0.00000000000E+00  0.23953182262E+03  0.23953182262E+03  0.00000000000E+00 0.  1.
         21   -1    0    0  502  503 -0.00000000000E+00 -0.00000000000E+00 -0.31073239688E+03  0.31073239688E+03  0.00000000000E+00 0.  1.
         -6    2    1    2    0  503 -0.26965614701E+02  0.24329895103E+02 -0.24440271674E+03  0.30172428549E+03  0.17316399259E+03 0.  0.
        -24    2    3    3    0    0  0.31684208876E+01  0.56816475505E+02 -0.65763743051E+02  0.11761179018E+03  0.79180253280E+02 0.  0.
          6    2    1    2  501    0  0.26965614701E+02 -0.24329895103E+02  0.17320214248E+03  0.24853993401E+03  0.17451082621E+03 0.  0.
         24    2    5    5    0    0 -0.28360273684E+02 -0.21734929137E+02  0.17118415803E+03  0.19291754611E+03  0.81464417817E+02 0.  0.
          5    1    5    5  501    0  0.55325888384E+02 -0.25949659659E+01  0.20179844535E+01  0.55622387895E+02  0.47000000000E+01 0. -1.
        -11    1    6    6    0    0 -0.45840795100E+02 -0.27624985216E+02  0.60792520262E+02  0.80995362975E+02  0.00000000000E+00 0.  1.
         12    1    6    6    0    0  0.17480521417E+02  0.58900560783E+01  0.11039163777E+03  0.11192218314E+03  0.00000000000E+00 0. -1.
         -5    1    3    3    0  503 -0.30134035588E+02 -0.32486580402E+02 -0.17863897369E+03  0.18411249531E+03  0.47000000000E+01 0.  1.
         11    1    4    4    0    0  0.34531456341E+02  0.36512858837E+02 -0.11209581224E+02  0.51490436478E+02  0.00000000000E+00 0. -1.
        -12    1    4    4    0    0 -0.31363035453E+02  0.20303616667E+02 -0.54554161827E+02  0.66121353701E+02  0.00000000000E+00 0.  1.
</event>
<event>
12    1  0.8113184E-002  0.1816212E+03  0.7818608E-02  0.1167097E+00
         21   -1    0    0  503  502  0.00000000000E+00  0.00000000000E+00  0.23630518607E+03  0.23630518607E+03  0.00000000000E+00 0. -1.
         21   -1    0    0  501  503 -0.00000000000E+00 -0.00000000000E+00 -0.17077328086E+03  0.17077328086E+03  0.00000000000E+00 0. -1.
          6    2    1    2  501    0  0.28666735437E+02 -0.47029203646E+02 -0.57634540234E+02  0.19054660329E+03  0.17306859935E+03 0.  0.
         24    2    3    3    0    0 -0.40173092469E+02 -0.66270869636E+02 -0.48467278060E+02  0.11832962251E+03  0.75147302018E+02 0.  0.
         -6    2    1    2    0  502 -0.28666735437E+02  0.47029203646E+02  0.12316644545E+03  0.21653186364E+03  0.16935922464E+03 0.  0.
        -24    2    5    5    0    0  0.50960098706E+01  0.56128309056E+02  0.14558225796E+03  0.17473144091E+03  0.78489019700E+02 0.  0.
          5    1    3    3  501    0  0.68839827905E+02  0.19241665990E+02 -0.91672621731E+01  0.72216980772E+02  0.47000000000E+01 0. -1.
        -11    1    4    4    0    0 -0.12327655164E+02 -0.65235209973E+02 -0.48438305164E+01  0.66566255686E+02  0.00000000000E+00 0.  1.
         12    1    4    4    0    0 -0.27845437304E+02 -0.10356596639E+01 -0.43623447544E+02  0.51763366827E+02  0.00000000000E+00 0. -1.
         -5    1    5    5    0  502 -0.33762745307E+02 -0.90991054100E+01 -0.22415812517E+02  0.41800422734E+02  0.47000000000E+01 0. -1.
         11    1    6    6    0    0  0.81338820670E+01  0.41329263424E+02  0.15243105322E+03  0.15814390295E+03  0.00000000000E+00 0. -1.
        -12    1    6    6    0    0 -0.30378721964E+01  0.14799045632E+02 -0.68487952585E+01  0.16587537960E+02  0.00000000000E+00 0.  1.
</event>
<event>
12    1  0.8113184E-002  0.1844783E+03  0.7818608E-02  0.1163946E+00
         21   -1    0    0  501  502  0.00000000000E+00  0.00000000000E+00  0.58524763163E+03  0.58524763163E+03  0.00000000000E+00 0. -1.
         21   -1    0    0  502  503 -0.00000000000E+00 -0.00000000000E+00 -0.18579241280E+03  0.18579241280E+03  0.00000000000E+00 0. -1.
         -6    2    1    2    0  503 -0.45231917098E+02  0.44210991264E+02 -0.12020389830E+03  0.22018454515E+03  0.17329662053E+03 0.  0.
        -24    2    3    3    0    0 -0.84217249053E+02  0.81339552433E+00 -0.11472383312E+03  0.16140250251E+03  0.76131486775E+02 0.  0.
          6    2    1    2  501    0  0.45231917098E+02 -0.44210991264E+02  0.51965911713E+03  0.55085549928E+03  0.17145158206E+03 0.  0.
         24    2    5    5    0    0  0.54762356231E+02 -0.24994835614E+02  0.15752900521E+03  0.18806024315E+03  0.83232266001E+02 0.  0.
          5    1    5    5  501    0 -0.95304391338E+01 -0.19216155650E+02  0.36213011192E+03  0.36279525613E+03  0.47000000000E+01 0. -1.
        -11    1    6    6    0    0 -0.21879331004E+02 -0.97122919050E+01  0.28612940553E+02  0.37305952693E+02  0.00000000000E+00 0.  1.
         12    1    6    6    0    0  0.76641687235E+02 -0.15282543709E+02  0.12891606466E+03  0.15075429046E+03  0.00000000000E+00 0. -1.
         -5    1    3    3    0  503  0.38985331955E+02  0.43397595740E+02 -0.54800651754E+01  0.58782042649E+02  0.47000000000E+01 0.  1.
         13    1    4    4    0    0 -0.91031541271E+01  0.15149340944E+02 -0.71311695596E+02  0.73469230804E+02  0.00000000000E+00 0. -1.
        -14    1    4    4    0    0 -0.75114094926E+02 -0.14335945420E+02 -0.43412137525E+02  0.87933271701E+02  0.00000000000E+00 0.  1.
</event>
<event>
12    1  0.8113184E-002  0.1942368E+03  0.7818608E-02  0.1154830E+00
         21   -1    0    0  501  502  0.00000000000E+00  0.00000000000E+00  0.20647912075E+03  0.20647912075E+03  0.00000000000E+00 0. -1.
         21   -1    0    0  502  503 -0.00000000000E+00 -0.00000000000E+00 -0.20658025659E+03  0.20658025659E+03  0.00000000000E+00 0. -1.
         -6    2    1    2    0  503  0.15533738689E+02  0.87608075458E+02 -0.71086726894E+02  0.20625783863E+03  0.17196657039E+03 0.  0.
        -24    2    3    3    0    0  0.32677598749E+02  0.39532598893E+02 -0.10790035246E+03  0.14315081515E+03  0.78860750567E+02 0.  0.
          6    2    1    2  501    0 -0.15533738689E+02 -0.87608075458E+02  0.70985591054E+02  0.20680153871E+03  0.17265992688E+03 0.  0.
         24    2    5    5    0    0 -0.55224241841E+02 -0.35785186823E+02  0.91387323638E+02  0.13825032778E+03  0.80194848507E+02 0.  0.
          5    1    5    5  501    0  0.39690503152E+02 -0.51822888634E+02 -0.20401732584E+02  0.68551210925E+02  0.47000000000E+01 0. -1.
        -11    1    6    6    0    0 -0.56653961819E+02 -0.11315116562E+02  0.17442246971E+02  0.60348448464E+02  0.00000000000E+00 0.  1.
         12    1    6    6    0    0  0.14297199782E+01 -0.24470070262E+02  0.73945076667E+02  0.77901879317E+02  0.00000000000E+00 0. -1.
         -5    1    3    3    0  503 -0.17143860060E+02  0.48075476565E+02  0.36813625571E+02  0.63107023479E+02  0.47000000000E+01 0.  1.
         11    1    4    4    0    0 -0.24062683835E+02  0.19659341113E+02 -0.54518436598E+02  0.62751592613E+02  0.00000000000E+00 0. -1.
        -12    1    4    4    0    0  0.56740282584E+02  0.19873257780E+02 -0.53381915867E+02  0.80399222534E+02  0.00000000000E+00 0.  1.
</event>
<event>
12    1  0.8113184E-002  0.1972324E+03  0.7818608E-02  0.1152614E+00
         21   -1    0    0  501  502  0.00000000000E+00  0.00000000000E+00  0.35879084396E+03  0.35879084396E+03  0.00000000000E+00 0. -1.
         21   -1    0    0  502  503 -0.00000000000E+00 -0.00000000000E+00 -0.39976863726E+03  0.39976863726E+03  0.00000000000E+00 0. -1.
         -6    2    1    2    0  503 -0.74251806208E+01 -0.95050505962E+02 -0.34497202056E+03  0.39618797505E+03  0.16991022516E+03 0.  0.
        -24    2    3    3    0    0 -0.44234901333E+02 -0.11914814806E+03 -0.25016863196E+03  0.29156759280E+03  0.79210536355E+02 0.  0.
          6    2    1    2  501    0  0.74251806208E+01  0.95050505962E+02  0.30399422725E+03  0.36237150617E+03  0.17265829344E+03 0.  0.
         24    2    5    5    0    0 -0.47277530957E+01  0.67266452368E+02  0.68108767751E+02  0.12449824699E+03  0.79459939560E+02 0.  0.
          5    1    5    5  501    0  0.12152933717E+02  0.27784053595E+02  0.23588545950E+03  0.23787325919E+03  0.47000000000E+01 0. -1.
        -13    1    6    6    0    0 -0.29868808998E+02 -0.20543000110E+01  0.14085020896E+02  0.33087062625E+02  0.00000000000E+00 0.  1.
         14    1    6    6    0    0  0.25141055902E+02  0.69320752379E+02  0.54023746855E+02  0.91411184362E+02  0.00000000000E+00 0. -1.
         -5    1    3    3    0  503  0.36809720712E+02  0.24097642093E+02 -0.94803388593E+02  0.10462038225E+03  0.47000000000E+01 0.  1.
         13    1    4    4    0    0 -0.53781306233E+02 -0.74662347086E+02 -0.21563726757E+03  0.23444898409E+03  0.00000000000E+00 0. -1.
        -14    1    4    4    0    0  0.95464048999E+01 -0.44485800969E+02 -0.34531364391E+02  0.57118608711E+02  0.00000000000E+00 0.  1.
</event>
<event>
12    1  0.8113184E-002  0.1890168E+03  0.7818608E-02  0.1159525E+00
         21   -1    0    0  503  502  0.00000000000E+00  0.00000000000E+00  0.23522187038E+03  0.23522187038E+03  0.00000000000E+00 0.  1.
         21   -1    0    0  501  503 -0.00000000000E+00 -0.00000000000E+00 -0.26993842596E+03  0.26993842596E+03  0.00000000000E+00 0. -1.
          6    2    1    2  501    0 -0.70005678893E+02  0.31497636920E+02 -0.18480315090E+03  0.26380302160E+03  0.17189221453E+03 0.  0.
         24    2    3    3    0    0  0.24315374477E+01  0.10492296510E+02 -0.16744577699E+03  0.18626759057E+03  0.80879703282E+02 0.  0.
         -6    2    1    2    0  502  0.70005678893E+02 -0.31497636920E+02  0.15008659532E+03  0.24135727474E+03  0.17272652305E+03 0.  0.
        -24    2    5    5    0    0  0.95709140808E+02 -0.66615235487E+02  0.94931438367E+02  0.17094353302E+03  0.81313493709E+02 0.  0.
          5    1    3    3  501    0 -0.72437216341E+02  0.21005340411E+02 -0.17357373912E+02  0.77535431037E+02  0.47000000000E+01 0. -1.
        -11    1    4    4    0    0 -0.93588196672E+01  0.43915053274E+02 -0.10941766902E+03  0.11827233702E+03  0.00000000000E+00 0.  1.
         12    1    4    4    0    0  0.11790357115E+02 -0.33422756764E+02 -0.58028107969E+02  0.67995253548E+02  0.00000000000E+00 0. -1.
         -5    1    5    5    0  502 -0.25703461915E+02  0.35117598567E+02  0.55155156951E+02  0.70413741711E+02  0.47000000000E+01 0.  1.
         11    1    6    6    0    0  0.25581343189E+02 -0.66451216306E+02  0.57033159808E+02  0.91230206542E+02  0.00000000000E+00 0. -1.
        -12    1    6    6    0    0  0.70127797619E+02 -0.16401918090E+00  0.37898278559E+02  0.79713326483E+02  0.00000000000E+00 0.  1.
</event>
<event>
12    1  0.8113184E-002  0.2068030E+03  0.7818608E-02  0.1144282E+00
         21   -1    0    0  501  502  0.00000000000E+00  0.00000000000E+00  0.23537380247E+03  0.23537380247E+03  0.00000000000E+00 0.  1.
         21   -1    0    0  502  503 -0.00000000000E+00 -0.00000000000E+00 -0.25741651501E+03  0.25741651501E+03  0.00000000000E+00 0. -1.
         -6    2    1    2    0  503 -0.75840969531E+02 -0.85953795632E+02 -0.14527392591E+03  0.25272907613E+03  0.17212659506E+03 0.  0.
        -24    2    3    3    0    0 -0.42346169362E+02 -0.11537412472E+03 -0.14802984026E+03  0.20781646692E+03  0.78552298494E+02 0.  0.
          6    2    1    2  501    0  0.75840969531E+02  0.85953795632E+02  0.12323121337E+03  0.24006124135E+03  0.17118282626E+03 0.  0.
         24    2    5    5    0    0  0.53550659427E+01 -0.15105700960E+02  0.66814982966E+02  0.10446564589E+03  0.78689073504E+02 0.  0.
          5    1    5    5  501    0  0.70485903589E+02  0.10105949659E+03  0.56416230403E+02  0.13559559546E+03  0.47000000000E+01 0. -1.
        -13    1    6    6    0    0 -0.28066382379E+02  0.10982282701E+02  0.66513942039E+01  0.30863787810E+02  0.00000000000E+00 0.  1.
         14    1    6    6    0    0  0.33421448321E+02 -0.26087983661E+02  0.60163588762E+02  0.73601858075E+02  0.00000000000E+00 0. -1.
         -5    1    3    3    0  503 -0.33494800170E+02  0.29420329090E+02  0.27559143496E+01  0.44912609210E+02  0.47000000000E+01 0.  1.
         13    1    4    4    0    0 -0.51450659876E+02 -0.29232507725E+02 -0.57110088200E+02  0.82239115290E+02  0.00000000000E+00 0. -1.
        -14    1    4    4    0    0  0.91044905142E+01 -0.86141616998E+02 -0.90919752063E+02  0.12557735163E+03  0.00000000000E+00 0.  1.
</event>
<event>
12    1  0.8113184E-002  0.2209874E+03  0.7818608E-02  0.1133157E+00
         21   -1    0    0  501  502  0.00000000000E+00  0.00000000000E+00  0.83999847355E+03  0.83999847355E+03  0.00000000000E+00 0.  1.
         21   -1    0    0  502  503 -0.00000000000E+00 -0.00000000000E+00 -0.31091068647E+03  0.31091068647E+03  0.00000000000E+00 0.  1.
         -6    2    1    2    0  503  0.43619071025E+02  0.13159801019E+03 -0.25433288976E+03  0.33692824507E+03  0.17208940661E+03 0.  0.
        -24    2    3    3    0    0  0.59344353658E+02  0.56532263562E+02 -0.36845855590E+02  0.10626647784E+03  0.56721231501E+02 0.  0.
          6    2    1    2  501    0 -0.43619071025E+02 -0.13159801019E+03  0.78342067685E+03  0.81398091495E+03  0.17203579086E+03 0.  0.
         24    2    5    5    0    0 -0.75048188836E+02 -0.90697212468E+02  0.71117459219E+03  0.72508630628E+03  0.78247274639E+02 0.  0.
          5    1    5    5  501    0  0.31429117811E+02 -0.40900797718E+02  0.72246084664E+02  0.88894608665E+02  0.47000000000E+01 0. -1.
        -11    1    6    6    0    0 -0.64385660971E+02 -0.10520833512E+03  0.62034070335E+03  0.63248469970E+03  0.00000000000E+00 0.  1.
         12    1    6    6    0    0 -0.10662527864E+02  0.14511122650E+02  0.90833888831E+02  0.92601606580E+02  0.00000000000E+00 0. -1.
         -5    1    3    3    0  503 -0.15725282633E+02  0.75065746623E+02 -0.21748703417E+03  0.23066176723E+03  0.47000000000E+01 0.  1.
         11    1    4    4    0    0  0.64234368176E+01  0.15488410033E+02  0.14268981856E+02  0.22017157608E+02  0.00000000000E+00 0. -1.
        -12    1    4    4    0    0  0.52920916840E+02  0.41043853529E+02 -0.51114837447E+02  0.84249320228E+02  0.00000000000E+00 0.  1.
</event>
<event>
12    1  0.8113184E-002  0.1920429E+03  0.7818608E-02  0.1158376E+00
         21   -1    0    0  503  502  0.00000000000E+00  0.00000000000E+00  0.82129132110E+02  0.82129132110E+02  0.00000000000E+00 0. -1.
         21   -1    0    0  501  503 -0.00000000000E+00 -0.00000000000E+00 -0.51667510324E+03  0.51667510324E+03  0.00000000000E+00 0. -1.
          6    2    1    2  501    0  0.14602923324E+02  0.63934688956E+02 -0.34266908546E+03  0.39281364574E+03  0.18049811169E+03 0.  0.
         24    2    3    3    0    0 -0.11257939381E+02  0.38133212963E+02 -0.34463988096E+03  0.35592903624E+03  0.79548401351E+02 0.  0.
         -6    2    1    2    0  502 -0.14602923324E+02 -0.63934688956E+02 -0.91876885669E+02  0.20599058962E+03  0.17230748988E+03 0.  0.
        -24    2    5    5    0    0  0.33317880265E+02 -0.13755690175E+02  0.16939473631E+01  0.89406173291E+02  0.81800331340E+02 0.  0.
          5    1    3    3  501    0  0.25860862705E+02  0.25801475993E+02  0.19707954966E+01  0.36884609502E+02  0.47000000000E+01 0. -1.
        -13    1    4    4    0    0 -0.28796550118E+02 -0.12217233244E+02 -0.78539243548E+02  0.84539427866E+02  0.00000000000E+00 0.  1.
         14    1    4    4    0    0  0.17538610737E+02  0.50350446208E+02 -0.26610063741E+03  0.27138960837E+03  0.00000000000E+00 0. -1.
         -5    1    5    5    0  502 -0.47920803590E+02 -0.50178998781E+02 -0.93570833033E+02  0.11658441632E+03  0.47000000000E+01 0.  1.
         11    1    6    6    0    0 -0.22542353193E+02 -0.12330190011E+02 -0.16622593052E+02  0.30602318098E+02  0.00000000000E+00 0. -1.
        -12    1    6    6    0    0  0.55860233459E+02 -0.14255001646E+01  0.18316540415E+02  0.58803855193E+02  0.00000000000E+00 0.  1.
</event>
<event>
12    1  0.8113184E-002  0.1883447E+03  0.7818608E-02  0.1160004E+00
         21   -1    0    0  501  502  0.00000000000E+00  0.00000000000E+00  0.57469111982E+02  0.57469111982E+02  0.00000000000E+00 0. -1.
         21   -1    0    0  502  503 -0.00000000000E+00 -0.00000000000E+00 -0.66555618356E+03  0.66555618356E+03  0.00000000000E+00 0.  1.
         -6    2    1    2    0  503  0.25033855310E+02 -0.73023271854E+02 -0.20593993075E+03  0.27895768042E+03  0.17160139931E+03 0.  0.
        -24    2    3    3    0    0  0.71671651924E+02 -0.53410099366E+02 -0.86621123541E+02  0.14927025481E+03  0.82394936277E+02 0.  0.
          6    2    1    2  501    0 -0.25033855310E+02  0.73023271854E+02 -0.40214714083E+03  0.44406761512E+03  0.17179822984E+03 0.  0.
         24    2    5    5    0    0  0.18143952275E+01  0.52426595589E+02 -0.39850591275E+03  0.40971066281E+03  0.79397888927E+02 0.  0.
          5    1    5    5  501    0 -0.26848250538E+02  0.20596676265E+02 -0.36412280748E+01  0.34356952309E+02  0.47000000000E+01 0. -1.
        -13    1    6    6    0    0  0.23796931130E+02 -0.59395898088E+01 -0.20352838684E+03  0.20500091928E+03  0.00000000000E+00 0.  1.
         14    1    6    6    0    0 -0.21982535903E+02  0.58366185398E+02 -0.19497752591E+03  0.20470974353E+03  0.00000000000E+00 0. -1.
         -5    1    3    3    0  503 -0.46637796614E+02 -0.19613172488E+02 -0.11931880721E+03  0.12968742561E+03  0.47000000000E+01 0.  1.
         13    1    4    4    0    0  0.49156279141E+02  0.12748116504E+02 -0.27605861959E+02  0.57800846602E+02  0.00000000000E+00 0. -1.
        -14    1    4    4    0    0  0.22515372783E+02 -0.66158215870E+02 -0.59015261582E+02  0.91469408209E+02  0.00000000000E+00 0.  1.
</event>
<event>
12    1  0.8113184E-002  0.1766563E+03  0.7818608E-02  0.1171604E+00
         21   -1    0    0  503  502  0.00000000000E+00  0.00000000000E+00  0.58119828858E+02  0.58119828858E+02  0.00000000000E+00 0.  1.
         21   -1    0    0  501  503 -0.00000000000E+00 -0.00000000000E+00 -0.53077699850E+03  0.53077699850E+03  0.00000000000E+00 0. -1.
          6    2    1    2  501    0 -0.38986882654E+02 -0.11328229958E+01 -0.23193072818E+03  0.29154642700E+03  0.17229682562E+03 0.  0.
         24    2    3    3    0    0  0.17191891172E+02 -0.34676495945E+02 -0.57560161150E+02  0.10524447514E+03  0.79153059968E+02 0.  0.
         -6    2    1    2    0  502  0.38986882654E+02  0.11328229958E+01 -0.24072644146E+03  0.29735040035E+03  0.17013753455E+03 0.  0.
        -24    2    5    5    0    0  0.77086593530E+02  0.14449851775E+02 -0.10738034635E+03  0.15795096597E+03  0.85245690511E+02 0.  0.
          5    1    3    3  501    0 -0.56178773826E+02  0.33543672949E+02 -0.17437056703E+03  0.18630195187E+03  0.47000000000E+01 0. -1.
        -13    1    4    4    0    0 -0.31146339628E+02 -0.13462748098E+02 -0.13625024762E+02  0.36564755685E+02  0.00000000000E+00 0.  1.
         14    1    4    4    0    0  0.48338230800E+02 -0.21213747847E+02 -0.43935136388E+02  0.68679719452E+02  0.00000000000E+00 0. -1.
         -5    1    5    5    0  502 -0.38099710875E+02 -0.13317028779E+02 -0.13334609511E+03  0.13939943438E+03  0.47000000000E+01 0.  1.
         13    1    6    6    0    0 -0.11934799908E+02 -0.11692509456E+02 -0.91789726107E+00  0.16733103764E+02  0.00000000000E+00 0. -1.
        -14    1    6    6    0    0  0.89021393437E+02  0.26142361231E+02 -0.10646244909E+03  0.14121786221E+03  0.00000000000E+00 0.  1.
</event>
<event>
12    1  0.8113184E-002  0.3106701E+03  0.7818608E-02  0.1080607E+00
         21   -1    0    0  501  502  0.00000000000E+00  0.00000000000E+00  0.83450180549E+03  0.83450180549E+03  0.00000000000E+00 0. -1.
         21   -1    0    0  502  503 -0.00000000000E+00 -0.00000000000E+00 -0.14366192483E+03  0.14366192483E+03  0.00000000000E+00 0.  1.
         -6    2    1    2    0  503 -0.23556339742E+03  0.91141322377E+02  0.12054096663E+03  0.32873571844E+03  0.17245345196E+03 0.  0.
        -24    2    3    3    0    0 -0.17500903757E+03 -0.43995793410E+01  0.66046216000E+02  0.20309073349E+03  0.78969765425E+02 0.  0.
          6    2    1    2  501    0  0.23556339742E+03 -0.91141322377E+02  0.57029891404E+03  0.64942801188E+03  0.18088404134E+03 0.  0.
         24    2    5    5    0    0  0.22372967952E+03 -0.93594139116E+02  0.37599042345E+03  0.45468733122E+03  0.80974923707E+02 0.  0.
          5    1    5    5  501    0  0.11833717896E+02  0.24528167388E+01  0.19430849058E+03  0.19474068066E+03  0.47000000000E+01 0. -1.
        -11    1    6    6    0    0 -0.50670838797E+01 -0.11469417445E+02  0.16550244024E+02  0.20763753342E+02  0.00000000000E+00 0.  1.
         12    1    6    6    0    0  0.22879676340E+03 -0.82124721671E+02  0.35944017943E+03  0.43392357788E+03  0.00000000000E+00 0. -1.
         -5    1    3    3    0  503 -0.60554359851E+02  0.95540901718E+02  0.54494750629E+02  0.12564498495E+03  0.47000000000E+01 0.  1.
         11    1    4    4    0    0 -0.89713635788E+02  0.12317491804E+02 -0.51992768276E+01  0.90704407447E+02  0.00000000000E+00 0. -1.
        -12    1    4    4    0    0 -0.85295401778E+02 -0.16717071145E+02  0.71245492828E+02  0.11238632604E+03  0.00000000000E+00 0.  1.
</event>
<event>
12    1  0.8113184E-002  0.1778411E+03  0.7818608E-02  0.1170003E+00
         21   -1    0    0  501  502  0.00000000000E+00  0.00000000000E+00  0.29053629032E+02  0.29053629032E+02  0.00000000000E+00 0.  1.
         21   -1    0    0  502  503 -0.00000000000E+00 -0.00000000000E+00 -0.13773279887E+04  0.13773279887E+04  0.00000000000E+00 0.  1.
         -6    2    1    2    0  503  0.40648431236E+02 -0.16740876582E+02 -0.99797232191E+03  0.10136943458E+04  0.17232213846E+03 0.  0.
        -24    2    3    3    0    0 -0.48842988292E+01 -0.62686449585E+02 -0.43670185354E+03  0.44868916538E+03  0.81608889876E+02 0.  0.
          6    2    1    2  501    0 -0.40648431236E+02  0.16740876582E+02 -0.35030203774E+03  0.39268727196E+03  0.17192796167E+03 0.  0.
         24    2    5    5    0    0 -0.17413322990E+02 -0.39214348622E+02 -0.92887387306E+02  0.12819672442E+03  0.77235642516E+02 0.  0.
          5    1    5    5  501    0 -0.23235108246E+02  0.55955225204E+02 -0.25741465043E+03  0.26449054754E+03  0.47000000000E+01 0. -1.
        -11    1    6    6    0    0 -0.37339626507E+02 -0.76244265492E+01 -0.13444548385E+02  0.40412070835E+02  0.00000000000E+00 0.  1.
         12    1    6    6    0    0  0.19926303517E+02 -0.31589922073E+02 -0.79442838921E+02  0.87784653580E+02  0.00000000000E+00 0. -1.
         -5    1    3    3    0  503  0.45532730065E+02  0.45945573003E+02 -0.56127046837E+03  0.56500518038E+03  0.47000000000E+01 0.  1.
         11    1    4    4    0    0  0.16056845397E+02 -0.55342466969E+02 -0.40972578540E+03  0.41375817835E+03  0.00000000000E+00 0. -1.
        -12    1    4    4    0    0 -0.20941144226E+02 -0.73439826159E+01 -0.26976068141E+02  0.34930987025E+02  0.00000000000E+00 0.  1.
</event>
<event>
12    1  0.8113184E-002  0.2509511E+03  0.7818608E-02  0.1112965E+00
         21   -1    0    0  503  502  0.00000000000E+00  0.00000000000E+00  0.29290306244E+03  0.29290306244E+03  0.00000000000E+00 0.  1.
         21   -1    0    0  501  503 -0.00000000000E+00 -0.00000000000E+00 -0.55617532037E+03  0.55617532037E+03  0.00000000000E+00 0.  1.
          6    2    1    2  501    0 -0.58368322421E+02  0.17280904240E+03 -0.46465693442E+03  0.52731408985E+03  0.16995368914E+03 0.  0.
         24    2    3    3    0    0 -0.49883829990E+02  0.15983520519E+03 -0.47366672598E+03  0.50877835659E+03  0.80371384956E+02 0.  0.
         -6    2    1    2    0  502  0.58368322421E+02 -0.17280904240E+03  0.20138467650E+03  0.32176429296E+03  0.17235616060E+03 0.  0.
        -24    2    5    5    0    0 -0.39135969395E+02 -0.79068385320E+02  0.11614551400E+03  0.16181991970E+03  0.70089031466E+02 0.  0.
          5    1    3    3  501    0 -0.84844924318E+01  0.12973837212E+02  0.90097915548E+01  0.18535733265E+02  0.47000000000E+01 0. -1.
        -13    1    4    4    0    0 -0.34819830225E+02  0.14258534308E+03 -0.30405700132E+03  0.33762947249E+03  0.00000000000E+00 0.  1.
         14    1    4    4    0    0 -0.15063999765E+02  0.17249862116E+02 -0.16960972465E+03  0.17114888410E+03  0.00000000000E+00 0. -1.
         -5    1    5    5    0  502  0.97504291817E+02 -0.93740657084E+02  0.85239162497E+02  0.15994437326E+03  0.47000000000E+01 0.  1.
         13    1    6    6    0    0  0.61922053438E+01 -0.56265346611E+02  0.36394351130E+02  0.67295478529E+02  0.00000000000E+00 0. -1.
        -14    1    6    6    0    0 -0.45328174739E+02 -0.22803038709E+02  0.79751162872E+02  0.94524441173E+02  0.00000000000E+00 0.  1.
</event>
<event>
12    1  0.8113184E-002  0.1833250E+03  0.7818608E-02  0.1164694E+00
         21   -1    0    0  501  502  0.00000000000E+00  0.00000000000E+00  0.83401914404E+02  0.83401914404E+02  0.00000000000E+00 0. -1.
         21   -1    0    0  502  503 -0.00000000000E+00 -0.00000000000E+00 -0.42779617670E+03  0.42779617670E+03  0.00000000000E+00 0. -1.
         -6    2    1    2    0  503  0.56585376050E+02 -0.20778164476E+02 -0.23445245584E+03  0.29743358452E+03  0.17281535306E+03 0.  0.
        -24    2    3    3    0    0  0.19820145376E+02  0.36476418256E+02 -0.63767503463E+02  0.11362604279E+03  0.84387296741E+02 0.  0.
          6    2    1    2  501    0 -0.56585376050E+02  0.20778164476E+02 -0.10994180646E+03  0.21376450658E+03  0.17313124087E+03 0.  0.
         24    2    5    5    0    0 -0.34298397457E+02  0.51840796904E+02 -0.13403139561E+03  0.16833329646E+03  0.80671155904E+02 0.  0.
          5    1    5    5  501    0 -0.22286978593E+02 -0.31062632428E+02  0.24089589150E+02  0.45431210127E+02  0.47000000000E+01 0. -1.
        -13    1    6    6    0    0  0.21161127363E+02  0.31752167150E+02 -0.78677499984E+02  0.87442223403E+02  0.00000000000E+00 0.  1.
         14    1    6    6    0    0 -0.55459524820E+02  0.20088629754E+02 -0.55353895625E+02  0.80891073052E+02  0.00000000000E+00 0. -1.
         -5    1    3    3    0  503  0.36765230674E+02 -0.57254582732E+02 -0.17068495237E+03  0.18380754173E+03  0.47000000000E+01 0.  1.
         11    1    4    4    0    0  0.34982896250E+02  0.33059301573E+02 -0.78583692162E+02  0.92152683761E+02  0.00000000000E+00 0. -1.
        -12    1    4    4    0    0 -0.15162750874E+02  0.34171166830E+01  0.14816188699E+02  0.21473359031E+02  0.00000000000E+00 0.  1.
</event>
<event>
12    1  0.8113184E-002  0.2674462E+03  0.7818608E-02  0.1102879E+00
         21   -1    0    0  503  502  0.00000000000E+00  0.00000000000E+00  0.75794195677E+03  0.75794195677E+03  0.00000000000E+00 0. -1.
         21   -1    0    0  501  503 -0.00000000000E+00 -0.00000000000E+00 -0.94324505000E+02  0.94324505000E+02  0.00000000000E+00 0.  1.
          6    2    1    2  501    0  0.18729030974E+03  0.82699357112E+02  0.35391076352E+03  0.44306517741E+03  0.17069586729E+03 0.  0.
         24    2    3    3    0    0  0.17428302939E+03  0.11826251830E+02  0.27384127029E+03  0.33524402855E+03  0.82976399071E+02 0.  0.
         -6    2    1    2    0  502 -0.18729030974E+03 -0.82699357112E+02  0.30970668825E+03  0.40920128436E+03  0.17207735059E+03 0.  0.
        -24    2    5    5    0    0 -0.20779673959E+03 -0.53902387934E+02  0.28496265944E+03  0.36579464822E+03  0.80728278708E+02 0.  0.
          5    1    3    3  501    0  0.13007280351E+02  0.70873105282E+02  0.80069493237E+02  0.10782114886E+03  0.47000000000E+01 0. -1.
        -13    1    4    4    0    0  0.26967763722E+02 -0.29888788686E+02  0.54830853414E+02  0.68022220307E+02  0.00000000000E+00 0.  1.
         14    1    4    4    0    0  0.14731526567E+03  0.41715040516E+02  0.21901041687E+03  0.26722180824E+03  0.00000000000E+00 0. -1.
         -5    1    5    5    0  502  0.20506429850E+02 -0.28796969178E+02  0.24744028804E+02  0.43406636134E+02  0.47000000000E+01 0.  1.
         13    1    6    6    0    0 -0.18683681739E+01  0.58397532060E+01  0.39056529510E+02  0.39534870867E+02  0.00000000000E+00 0. -1.
        -14    1    6    6    0    0 -0.20592837141E+03 -0.59742141140E+02  0.24590612993E+03  0.32625977736E+03  0.00000000000E+00 0.  1.
</event>
<event>
12    1  0.8113184E-002  0.1755506E+03  0.7818608E-02  0.1172367E+00
         21   -1    0    0  503  502  0.00000000000E+00  0.00000000000E+00  0.44232014178E+03  0.44232014178E+03  0.00000000000E+00 0.  1.
         21   -1    0    0  501  503 -0.00000000000E+00 -0.00000000000E+00 -0.16430291930E+03  0.16430291930E+03  0.00000000000E+00 0.  1.
          6    2    1    2  501    0  0.34456950640E+02  0.69421553805E+01 -0.91411373165E+02  0.19792435775E+03  0.17199574784E+03 0.  0.
         24    2    3    3    0    0 -0.31959623373E+02  0.21764700950E+02 -0.95767334172E+02  0.12957281382E+03  0.78247121692E+02 0.  0.
         -6    2    1    2    0  502 -0.34456950640E+02 -0.69421553805E+01  0.36942859564E+03  0.40869870333E+03  0.17123570848E+03 0.  0.
        -24    2    5    5    0    0  0.12290642846E+02 -0.53878506837E+02  0.28760202568E+03  0.30331352346E+03  0.78931710600E+02 0.  0.
          5    1    3    3  501    0  0.66416574013E+02 -0.14822545569E+02  0.43559610070E+01  0.68351543926E+02  0.47000000000E+01 0. -1.
        -11    1    4    4    0    0  0.26209330392E+02  0.82380667268E+01 -0.27551388828E+02  0.38908530804E+02  0.00000000000E+00 0.  1.
         12    1    4    4    0    0 -0.58168953765E+02  0.13526634223E+02 -0.68215945344E+02  0.90664283016E+02  0.00000000000E+00 0. -1.
         -5    1    5    5    0  502 -0.46747593486E+02  0.46936351457E+02  0.81826569965E+02  0.10538517987E+03  0.47000000000E+01 0.  1.
         13    1    6    6    0    0 -0.56335793256E+01  0.19545098346E+02  0.73510522714E+02  0.76272832876E+02  0.00000000000E+00 0. -1.
        -14    1    6    6    0    0  0.17924222172E+02 -0.73423605183E+02  0.21409150296E+03  0.22704069058E+03  0.00000000000E+00 0.  1.
</event>
<event>
12    1  0.8113184E-002  0.2245229E+03  0.7818608E-02  0.1131905E+00
         21   -1    0    0  503  502  0.00000000000E+00  0.00000000000E+00  0.78744401784E+03  0.78744401784E+03  0.00000000000E+00 0.  1.
         21   -1    0    0  501  503 -0.00000000000E+00 -0.00000000000E+00 -0.97645750145E+02  0.97645750145E+02  0.00000000000E+00 0.  1.
          6    2    1    2  501    0  0.97849229182E+02  0.89910361245E+02  0.80977734291E+02  0.23867954174E+03  0.18097564887E+03 0.  0.
         24    2    3    3    0    0  0.82339781222E+02  0.98382487610E+02  0.12206489718E+03  0.19370660704E+03  0.78507687816E+02 0.  0.
         -6    2    1    2    0  502 -0.97849229182E+02 -0.89910361245E+02  0.60882053340E+03  0.64641022624E+03  0.17182954924E+03 0.  0.
        -24    2    5    5    0    0 -0.90633721162E+01  0.98598672910E+01  0.26296732957E+03  0.27563596133E+03  0.81510766555E+02 0.  0.
          5    1    3    3  501    0  0.15509447960E+02 -0.84721263647E+01 -0.41087162891E+02  0.44972934701E+02  0.47000000000E+01 0. -1.
        -11    1    4    4    0    0  0.57059652791E+02  0.87961587816E+02  0.49077757972E+02  0.11576558744E+03  0.00000000000E+00 0.  1.
         12    1    4    4    0    0  0.25280128430E+02  0.10420899794E+02  0.72987139209E+02  0.77941019598E+02  0.00000000000E+00 0. -1.
         -5    1    5    5    0  502 -0.88785857066E+02 -0.99770228536E+02  0.34585320383E+03  0.37077426491E+03  0.47000000000E+01 0.  1.
         13    1    6    6    0    0 -0.31226084333E+02  0.28831173669E+02  0.82277083099E+02  0.92605741297E+02  0.00000000000E+00 0. -1.
        -14    1    6    6    0    0  0.22162712217E+02 -0.18971306378E+02  0.18069024647E+03  0.18303022004E+03  0.00000000000E+00 0.  1.
</event>
<event>
12    1  0.8113184E-002  0.1771612E+03  0.7818608E-02  0.1170660E+00
         21   -1    0    0  501  502  0.00000000000E+00  0.00000000000E+00  0.23885913188E+02  0.23885913188E+02  0.00000000000E+00 0.  1.
         21   -1    0    0  502  503 -0.00000000000E+00 -0.00000000000E+00 -0.13731286025E+04  0.13731286025E+04  0.00000000000E+00 0.  1.
         -6    2    1    2    0  503 -0.97673798872E+01 -0.37309986449E+02 -0.82313082331E+03  0.84198006754E+03  0.17291224669E+03 0.  0.
        -24    2    3    3    0    0  0.32315096266E+02  0.16179027042E+02 -0.25477005178E+03  0.26953962000E+03  0.80235909075E+02 0.  0.
          6    2    1    2  501    0  0.97673798872E+01  0.37309986449E+02 -0.52611186600E+03  0.55503444814E+03  0.17257492947E+03 0.  0.
         24    2    5    5    0    0  0.44177906322E+02 -0.28614404706E+02 -0.36880397018E+03  0.38097131659E+03  0.79701343032E+02 0.  0.
          5    1    5    5  501    0 -0.34410526434E+02  0.65924391155E+02 -0.15730789582E+03  0.17406313155E+03  0.47000000000E+01 0. -1.
        -13    1    6    6    0    0  0.32227165421E+02  0.24871426628E+02 -0.15694702240E+03  0.16214051280E+03  0.00000000000E+00 0.  1.
         14    1    6    6    0    0  0.11950740900E+02 -0.53485831334E+02 -0.21185694778E+03  0.21883080378E+03  0.00000000000E+00 0. -1.
         -5    1    3    3    0  503 -0.42082476153E+02 -0.53489013492E+02 -0.56836077153E+03  0.57244044754E+03  0.47000000000E+01 0.  1.
         13    1    4    4    0    0  0.30242446164E+02  0.64320841272E+01 -0.25738653018E+03  0.25923696336E+03  0.00000000000E+00 0. -1.
        -14    1    4    4    0    0  0.20726501021E+01  0.97469429153E+01  0.26164783990E+01  0.10302656641E+02  0.00000000000E+00 0.  1.
</event>
<event>
12    1  0.8113184E-002  0.2960229E+03  0.7818608E-02  0.1087324E+00
         21   -1    0    0  503  502  0.00000000000E+00  0.00000000000E+00  0.13019377586E+04  0.13019377586E+04  0.00000000000E+00 0. -1.
         21   -1    0    0  501  503 -0.00000000000E+00 -0.00000000000E+00 -0.98706039950E+02  0.98706039950E+02  0.00000000000E+00 0.  1.
          6    2    1    2  501    0  0.22119053458E+03  0.93768258940E+02  0.20532221153E+03  0.35975334714E+03  0.17189392443E+03 0.  0.
         24    2    3    3    0    0  0.17956462933E+03  0.46198211015E+02  0.21569381055E+03  0.29552496156E+03  0.80208803679E+02 0.  0.
         -6    2    1    2    0  502 -0.22119053458E+03 -0.93768258940E+02  0.99790950716E+03  0.10408904515E+04  0.17295030638E+03 0.  0.
        -24    2    5    5    0    0 -0.76675867382E+02 -0.80505410905E+02  0.33042019454E+03  0.35779128981E+03  0.80478520628E+02 0.  0.
          5    1    3    3  501    0  0.41625905248E+02  0.47570047925E+02 -0.10371599022E+02  0.64228385575E+02  0.47000000000E+01 0. -1.
        -13    1    4    4    0    0  0.52524558913E+02 -0.18702704773E+02  0.87368297327E+02  0.10364284747E+03  0.00000000000E+00 0.  1.
         14    1    4    4    0    0  0.12704007042E+03  0.64900915788E+02  0.12832551323E+03  0.19188211409E+03  0.00000000000E+00 0. -1.
         -5    1    5    5    0  502 -0.14451466720E+03 -0.13262848035E+02  0.66748931263E+03  0.68309916165E+03  0.47000000000E+01 0.  1.
         11    1    6    6    0    0 -0.70801297842E+02 -0.51328390293E+02  0.30896264391E+03  0.32110020673E+03  0.00000000000E+00 0. -1.
        -12    1    6    6    0    0 -0.58745695395E+01 -0.29177020612E+02  0.21457550623E+02  0.36691083083E+02  0.00000000000E+00 0.  1.
</event>
<event>
12    1  0.8113184E-002  0.5853849E+03  0.7818608E-02  0.9936451E-01
         21   -1    0    0  503  502  0.00000000000E+00  0.00000000000E+00  0.19537481875E+03  0.19537481875E+03  0.00000000000E+00 0.  1.
         21   -1    0    0  501  503 -0.00000000000E+00 -0.00000000000E+00 -0.17779244437E+04  0.17779244437E+04  0.00000000000E+00 0. -1.
          6    2    1    2  501    0 -0.25310224885E+03  0.49823991604E+03 -0.67306122096E+03  0.89170571362E+03  0.17269600528E+03 0.  0.
         24    2    3    3    0    0 -0.16011484699E+03  0.20798748542E+03 -0.26186262786E+03  0.37984684308E+03  0.82559251506E+02 0.  0.
         -6    2    1    2    0  502  0.25310224885E+03 -0.49823991604E+03 -0.90948840399E+03  0.10815935488E+04  0.17427474155E+03 0.  0.
        -24    2    5    5    0    0  0.11947668852E+03 -0.28476449995E+03 -0.38339858358E+03  0.49830962756E+03  0.77152521051E+02 0.  0.
          5    1    3    3  501    0 -0.92987401859E+02  0.29025243062E+03 -0.41119859310E+03  0.51185887055E+03  0.47000000000E+01 0. -1.
        -13    1    4    4    0    0 -0.13969013228E+03  0.13500487104E+03 -0.21912524314E+03  0.29284043513E+03  0.00000000000E+00 0.  1.
         14    1    4    4    0    0 -0.20424714712E+02  0.72982614380E+02 -0.42737384713E+02  0.87006407953E+02  0.00000000000E+00 0. -1.
         -5    1    5    5    0  502  0.13362556034E+03 -0.21347541609E+03 -0.52608982042E+03  0.58328392126E+03  0.47000000000E+01 0.  1.
         11    1    6    6    0    0  0.15117325848E+02 -0.10791294260E+03 -0.17186852756E+03  0.20350068178E+03  0.00000000000E+00 0. -1.
        -12    1    6    6    0    0  0.10435936267E+03 -0.17685155735E+03 -0.21153005602E+03  0.29480894578E+03  0.00000000000E+00 0.  1.
</event>
<event>
12    1  0.8113184E-002  0.1756461E+03  0.7818608E-02  0.1172532E+00
         21   -1    0    0  503  502  0.00000000000E+00  0.00000000000E+00  0.43896045169E+03  0.43896045169E+03  0.00000000000E+00 0. -1.
         21   -1    0    0  501  503 -0.00000000000E+00 -0.00000000000E+00 -0.22294571230E+03  0.22294571230E+03  0.00000000000E+00 0.  1.
          6    2    1    2  501    0 -0.28344672949E+02  0.13860058087E+02 -0.16666235168E+03  0.24084406404E+03  0.17097953685E+03 0.  0.
         24    2    3    3    0    0 -0.74977386568E+02  0.43522823928E+02 -0.97411633383E+02  0.15211841024E+03  0.78327132698E+02 0.  0.
         -6    2    1    2    0  502  0.28344672949E+02 -0.13860058087E+02  0.38267709108E+03  0.42106209995E+03  0.17278892986E+03 0.  0.
        -24    2    5    5    0    0  0.10183400494E+02  0.50275303099E+02  0.29912968875E+03  0.31407876103E+03  0.80842994059E+02 0.  0.
          5    1    3    3  501    0  0.46632713620E+02 -0.29662765841E+02 -0.69250718302E+02  0.88725653800E+02  0.47000000000E+01 0. -1.
        -13    1    4    4    0    0 -0.46316984830E+01 -0.11423583683E+02 -0.49095361348E+02  0.50619219678E+02  0.00000000000E+00 0.  1.
         14    1    4    4    0    0 -0.70345688085E+02  0.54946407611E+02 -0.48316272035E+02  0.10149919056E+03  0.00000000000E+00 0. -1.
         -5    1    5    5    0  502  0.18161272454E+02 -0.64135361186E+02  0.83547402329E+02  0.10698333893E+03  0.47000000000E+01 0.  1.
         11    1    6    6    0    0  0.13169704739E+02  0.13861185053E+02  0.25939834330E+03  0.26010204552E+03  0.00000000000E+00 0. -1.
        -12    1    6    6    0    0 -0.29863042452E+01  0.36414118046E+02  0.39731345450E+02  0.53976715511E+02  0.00000000000E+00 0.  1.
</event>
<event>
12    1  0.8113184E-002  0.1999210E+03  0.7818608E-02  0.1150211E+00
         21   -1    0    0  501  502  0.00000000000E+00  0.00000000000E+00  0.82463089410E+02  0.82463089410E+02  0.00000000000E+00 0.  1.
         21   -1    0    0  502  503 -0.00000000000E+00 -0.00000000000E+00 -0.11735671576E+04  0.11735671576E+04  0.00000000000E+00 0.  1.
         -6    2    1    2    0  503 -0.38556532013E+01 -0.10237275441E+03 -0.10272495735E+04  0.10461592884E+04  0.16944770159E+03 0.  0.
        -24    2    3    3    0    0  0.51052897123E+02 -0.10332240424E+03 -0.64866195533E+03  0.66358050520E+03  0.79340009252E+02 0.  0.
          6    2    1    2  501    0  0.38556532013E+01  0.10237275441E+03 -0.63854494754E+02  0.20987095866E+03  0.17167811707E+03 0.  0.
         24    2    5    5    0    0  0.55370429326E+02  0.93673702176E+02 -0.12923273737E+02  0.13675786173E+03  0.81823314627E+02 0.  0.
          5    1    5    5  501    0 -0.51514776125E+02  0.86990522327E+01 -0.50931221017E+02  0.73113096934E+02  0.47000000000E+01 0. -1.
        -11    1    6    6    0    0  0.25176942702E+02  0.85483405838E+02  0.20011197621E+02  0.91333121855E+02  0.00000000000E+00 0.  1.
         12    1    6    6    0    0  0.30193486624E+02  0.81902963373E+01 -0.32934471358E+02  0.45424739870E+02  0.00000000000E+00 0. -1.
         -5    1    3    3    0  503 -0.54908550325E+02  0.94964983410E+00 -0.37858761814E+03  0.38257878318E+03  0.47000000000E+01 0.  1.
         11    1    4    4    0    0  0.19730072997E+02 -0.32599032278E+02 -0.69362439457E+02  0.79139880549E+02  0.00000000000E+00 0. -1.
        -12    1    4    4    0    0  0.31322824126E+02 -0.70723371965E+02 -0.57929951587E+03  0.58444062465E+03  0.00000000000E+00 0.  1.
</event>
<event>
12    1  0.8113184E-002  0.2264041E+03  0.7818608E-02  0.1129212E+00
         21   -1    0    0  503  502  0.00000000000E+00  0.00000000000E+00  0.48060804103E+03  0.48060804103E+03  0.00000000000E+00 0. -1.
         21   -1    0    0  501  503 -0.00000000000E+00 -0.00000000000E+00 -0.10933452817E+03  0.10933452817E+03  0.00000000000E+00 0.  1.
          6    2    1    2  501    0  0.90473336047E+02  0.11669289642E+03  0.23220422022E+03  0.32431096102E+03  0.17162792006E+03 0.  0.
         24    2    3    3    0    0  0.18105004731E+02  0.10504839408E+03  0.81367754245E+02  0.15654177649E+03  0.80756795759E+02 0.  0.
         -6    2    1    2    0  502 -0.90473336047E+02 -0.11669289642E+03  0.13906929265E+03  0.26563160817E+03  0.17151450811E+03 0.  0.
        -24    2    5    5    0    0 -0.70295103929E+01 -0.54029124074E+00  0.60106699824E+02  0.10219513490E+03  0.82348796604E+02 0.  0.
          5    1    3    3  501    0  0.72368331316E+02  0.11644502347E+02  0.15083646597E+03  0.16776918453E+03  0.47000000000E+01 0. -1.
        -11    1    4    4    0    0 -0.46567990646E+00  0.81070056000E+02  0.13476084585E+02  0.82183792158E+02  0.00000000000E+00 0.  1.
         12    1    4    4    0    0  0.18570684638E+02  0.23978338078E+02  0.67891669660E+02  0.74357984333E+02  0.00000000000E+00 0. -1.
         -5    1    5    5    0  502 -0.83443825654E+02 -0.11615260518E+03  0.78962592824E+02  0.16343647327E+03  0.47000000000E+01 0.  1.
         11    1    6    6    0    0 -0.27441803536E+02  0.28992922098E+02  0.11080529506E+02  0.41429702475E+02  0.00000000000E+00 0. -1.
        -12    1    6    6    0    0  0.20412293143E+02 -0.29533213339E+02  0.49026170319E+02  0.60765432423E+02  0.00000000000E+00 0.  1.
</event>
<event>
12    1  0.8113184E-002  0.2192081E+03  0.7818608E-02  0.1134562E+00
         21   -1    0    0  503  502  0.00000000000E+00  0.00000000000E+00  0.26873514741E+03  0.26873514741E+03  0.00000000000E+00 0.  1.
         21   -1    0    0  501  503 -0.00000000000E+00 -0.00000000000E+00 -0.17952266786E+03  0.17952266786E+03  0.00000000000E+00 0.  1.
          6    2    1    2  501    0 -0.13547612461E+03  0.49074704222E+00  0.27164069159E+02  0.22088476634E+03  0.17233157627E+03 0.  0.
         24    2    3    3    0    0 -0.54813782947E+02  0.20773794963E+01 -0.41866541045E+02  0.11460096744E+03  0.91497039145E+02 0.  0.
         -6    2    1    2    0  502  0.13547612461E+03 -0.49074704222E+00  0.62048410390E+02  0.22737304893E+03  0.17173956147E+03 0.  0.
        -24    2    5    5    0    0  0.88018903817E+02 -0.48606214278E+02 -0.97973700075E+01  0.12862492412E+03  0.79614641553E+02 0.  0.
          5    1    3    3  501    0 -0.80662341659E+02 -0.15866324541E+01  0.69030610203E+02  0.10628379890E+03  0.47000000000E+01 0. -1.
        -11    1    4    4    0    0 -0.79717377430E+02  0.76690319675E+01 -0.24573491290E+02  0.83770703649E+02  0.00000000000E+00 0.  1.
         12    1    4    4    0    0  0.24903594483E+02 -0.55916524712E+01 -0.17293049755E+02  0.30830263790E+02  0.00000000000E+00 0. -1.
         -5    1    5    5    0  502  0.47457220789E+02  0.48115467236E+02  0.71845780398E+02  0.98748124809E+02  0.47000000000E+01 0.  1.
         11    1    6    6    0    0  0.79087304851E+02 -0.69249599841E+02 -0.31387362417E+01  0.10516729783E+03  0.00000000000E+00 0. -1.
        -12    1    6    6    0    0  0.89315989656E+01  0.20643385564E+02 -0.66586337658E+01  0.23457626292E+02  0.00000000000E+00 0.  1.
</event>
<event>
12    1  0.8113184E-002  0.2298551E+03  0.7818608E-02  0.1126904E+00
         21   -1    0    0  501  502  0.00000000000E+00  0.00000000000E+00  0.19517861486E+04  0.19517861486E+04  0.00000000000E+00 0. -1.
         21   -1    0    0  502  503 -0.00000000000E+00 -0.00000000000E+00 -0.76399068757E+02  0.76399068757E+02  0.00000000000E+00 0.  1.
         -6    2    1    2    0  503 -0.73009161203E+02  0.13242029476E+03  0.12259389774E+03  0.26050457145E+03  0.17311237939E+03 0.  0.
        -24    2    3    3    0    0 -0.58580931188E+02  0.14221984046E+02  0.91474461348E+02  0.13733995072E+03  0.82829310373E+02 0.  0.
          6    2    1    2  501    0  0.73009161203E+02 -0.13242029476E+03  0.17527931821E+04  0.17676806459E+04  0.17188791290E+03 0.  0.
         24    2    5    5    0    0  0.83044329957E+02 -0.22099327461E+02  0.95953649546E+03  0.96671268066E+03  0.80239515370E+02 0.  0.
          5    1    5    5  501    0 -0.10035168754E+02 -0.11032096730E+03  0.79325668664E+03  0.80096796524E+03  0.47000000000E+01 0. -1.
        -11    1    6    6    0    0  0.56158061024E+02 -0.39314334431E+02  0.84600507628E+03  0.84877790605E+03  0.00000000000E+00 0.  1.
         12    1    6    6    0    0  0.26886268933E+02  0.17215006970E+02  0.11353141918E+03  0.11793477461E+03  0.00000000000E+00 0. -1.
         -5    1    3    3    0  503 -0.14428230015E+02  0.11819831072E+03  0.31119436395E+02  0.12316462073E+03  0.47000000000E+01 0.  1.
         13    1    4    4    0    0  0.50958817661E+01 -0.24899882351E+02  0.36874419458E+02  0.44784985904E+02  0.00000000000E+00 0. -1.
        -14    1    4    4    0    0 -0.63676812954E+02  0.39121866397E+02  0.54600041890E+02  0.92554964820E+02  0.00000000000E+00 0.  1.
</event>
<event>
12    1  0.8113184E-002  0.2362905E+03  0.7818608E-02  0.1122376E+00
         21   -1    0    0  501  502  0.00000000000E+00  0.00000000000E+00  0.17201501743E+03  0.17201501743E+03  0.00000000000E+00 0.  1.
         21   -1    0    0  502  503 -0.00000000000E+00 -0.00000000000E+00 -0.45330894954E+03  0.45330894954E+03  0.00000000000E+00 0. -1.
         -6    2    1    2    0  503  0.14879012873E+03  0.62839378471E+02 -0.30760729895E+03  0.38757288046E+03  0.17176494814E+03 0.  0.
        -24    2    3    3    0    0  0.26176891391E+02  0.62520269975E+02 -0.88485486563E+02  0.13643434009E+03  0.78680582239E+02 0.  0.
          6    2    1    2  501    0 -0.14879012873E+03 -0.62839378471E+02  0.26313366831E+02  0.23775108651E+03  0.17246998570E+03 0.  0.
         24    2    5    5    0    0 -0.17304557326E+03 -0.26125203740E+02  0.27448915943E+02  0.19348330265E+03  0.77814193586E+02 0.  0.
          5    1    5    5  501    0  0.24255444534E+02 -0.36714174731E+02 -0.11355491121E+01  0.44267783855E+02  0.47000000000E+01 0. -1.
        -13    1    6    6    0    0 -0.13628228960E+03  0.29279238499E+01 -0.51346947974E+01  0.13641041122E+03  0.00000000000E+00 0.  1.
         14    1    6    6    0    0 -0.36763283659E+02 -0.29053127590E+02  0.32583610741E+02  0.57072891438E+02  0.00000000000E+00 0. -1.
         -5    1    3    3    0  503  0.12261323734E+03  0.31910849571E+00 -0.21912181238E+03  0.25113854038E+03  0.47000000000E+01 0.  1.
         11    1    4    4    0    0  0.51913771031E+02  0.57159533402E+02 -0.70703972492E+02  0.10469624448E+03  0.00000000000E+00 0. -1.
        -12    1    4    4    0    0 -0.25736879639E+02  0.53607365729E+01 -0.17781514071E+02  0.31738095608E+02  0.00000000000E+00 0.  1.
</event>
<event>
12    1  0.8113184E-002  0.2290589E+03  0.7818608E-02  0.1128062E+00
         21   -1    0    0  503  502  0.00000000000E+00  0.00000000000E+00  0.62537128261E+03  0.62537128261E+03  0.00000000000E+00 0.  1.
         21   -1    0    0  501  503 -0.00000000000E+00 -0.00000000000E+00 -0.15411298678E+03  0.15411298678E+03  0.00000000000E+00 0.  1.
          6    2    1    2  501    0  0.18083951557E+02  0.14995757818E+03 -0.31493281659E+02  0.22701060715E+03  0.16651631876E+03 0.  0.
         24    2    3    3    0    0 -0.48799136781E+02  0.88322163593E+02 -0.41686060735E+02  0.13536861579E+03  0.80029832862E+02 0.  0.
         -6    2    1    2    0  502 -0.18083951557E+02 -0.14995757818E+03  0.50275157749E+03  0.55247366224E+03  0.17220248037E+03 0.  0.
        -24    2    5    5    0    0  0.49585221539E+02 -0.75260692338E+02  0.35123415007E+03  0.37043420896E+03  0.75717956788E+02 0.  0.
          5    1    3    3  501    0  0.66883088337E+02  0.61635414585E+02  0.10192779076E+02  0.91641991368E+02  0.47000000000E+01 0. -1.
        -13    1    4    4    0    0  0.46811747645E+01  0.73011015083E+02 -0.23855362445E+02  0.76951933296E+02  0.00000000000E+00 0.  1.
         14    1    4    4    0    0 -0.53480311545E+02  0.15311148511E+02 -0.17830698289E+02  0.58416682490E+02  0.00000000000E+00 0. -1.
         -5    1    5    5    0  502 -0.67669173095E+02 -0.74696885840E+02  0.15151742742E+03  0.18203945329E+03  0.47000000000E+01 0.  1.
         13    1    6    6    0    0  0.49651364022E+02 -0.84242035988E+01  0.13401847684E+03  0.14316835297E+03  0.00000000000E+00 0. -1.
        -14    1    6    6    0    0 -0.66142483009E-01 -0.66836488739E+02  0.21721567323E+03  0.22726585599E+03  0.00000000000E+00 0.  1.
</event>
<event>
12    1  0.8113184E-002  0.2359693E+03  0.7818608E-02  0.1122639E+00
         21   -1    0    0  503  502  0.00000000000E+00  0.00000000000E+00  0.10280656828E+03  0.10280656828E+03  0.00000000000E+00 0. -1.
         21   -1    0    0  501  503 -0.00000000000E+00 -0.00000000000E+00 -0.79871482704E+03  0.79871482704E+03  0.00000000000E+00 0. -1.
          6    2    1    2  501    0 -0.90217675521E+02 -0.13431499228E+03 -0.60418735255E+03  0.64835299379E+03  0.17070296261E+03 0.  0.
         24    2    3    3    0    0 -0.13565858732E+02 -0.13785439631E+03 -0.41161961479E+03  0.44100678084E+03  0.76605524353E+02 0.  0.
         -6    2    1    2    0  502  0.90217675521E+02  0.13431499228E+03 -0.91720906201E+02  0.25316840153E+03  0.17176078940E+03 0.  0.
        -24    2    5    5    0    0  0.10357436759E+02  0.73125247305E+02  0.44279828944E+01  0.11392565846E+03  0.86630654698E+02 0.  0.
          5    1    3    3  501    0 -0.76651816788E+02  0.35394040306E+01 -0.19256773776E+03  0.20734621295E+03  0.47000000000E+01 0. -1.
        -13    1    4    4    0    0  0.11949305836E+02 -0.18288241499E+02 -0.16421139487E+02  0.27329462291E+02  0.00000000000E+00 0.  1.
         14    1    4    4    0    0 -0.25515164569E+02 -0.11956615481E+03 -0.39519847530E+03  0.41367731855E+03  0.00000000000E+00 0. -1.
         -5    1    5    5    0  502  0.79860238762E+02  0.61189744971E+02 -0.96148889096E+02  0.13924274307E+03  0.47000000000E+01 0.  1.
         11    1    6    6    0    0  0.42173186386E+02  0.63613310689E+02 -0.11346819211E+02  0.77162045417E+02  0.00000000000E+00 0. -1.
        -12    1    6    6    0    0 -0.31815749627E+02  0.95119366160E+01  0.15774802105E+02  0.36763613043E+02  0.00000000000E+00 0.  1.
</event>
<event>
12    1  0.8113184E-002  0.1859803E+03  0.7818608E-02  0.1162157E+00
         21   -1    0    0  503  502  0.00000000000E+00  0.00000000000E+00  0.83710676187E+02  0.83710676187E+02  0.00000000000E+00 0.  1.
         21   -1    0    0  501  503 -0.00000000000E+00 -0.00000000000E+00 -0.20047200459E+04  0.20047200459E+04  0.00000000000E+00 0.  1.
          6    2    1    2  501    0  0.38131065391E+02  0.59789259776E+02 -0.18909155879E+04  0.19000314241E+04  0.17183980360E+03 0.  0.
         24    2    3    3    0    0  0.46810998485E+01 -0.34029554711E+02 -0.86754568384E+03  0.87181504572E+03  0.79031873950E+02 0.  0.
         -6    2    1    2    0  502 -0.38131065391E+02 -0.59789259776E+02 -0.30093781788E+02  0.18839929801E+03  0.17193000336E+03 0.  0.
        -24    2    5    5    0    0 -0.25365610213E+02  0.10861749235E+02  0.37148298837E+02  0.89920318895E+02  0.77099130124E+02 0.  0.
          5    1    3    3  501    0  0.33449965543E+02  0.93818814488E+02 -0.10233699041E+04  0.10282163784E+04  0.47000000000E+01 0. -1.
        -11    1    4    4    0    0 -0.35189030726E+02 -0.10110559894E+02 -0.27130632314E+03  0.27376561560E+03  0.00000000000E+00 0.  1.
         12    1    4    4    0    0  0.39870130575E+02 -0.23918994817E+02 -0.59623936069E+03  0.59804943012E+03  0.00000000000E+00 0. -1.
         -5    1    5    5    0  502 -0.12765455178E+02 -0.70651009011E+02 -0.67242080625E+02  0.98478979112E+02  0.47000000000E+01 0.  1.
         11    1    6    6    0    0  0.11241705488E+02  0.30188528887E+02 -0.28728630528E+01  0.32341560889E+02  0.00000000000E+00 0. -1.
        -12    1    6    6    0    0 -0.36607315701E+02 -0.19326779652E+02  0.40021161889E+02  0.57578758006E+02  0.00000000000E+00 0.  1.
</event>
<event>
12    1  0.8113184E-002  0.1813386E+03  0.7818608E-02  0.1166793E+00
         21   -1    0    0  501  502  0.00000000000E+00  0.00000000000E+00  0.92337580802E+02  0.92337580802E+02  0.00000000000E+00 0.  1.
         21   -1    0    0  502  503 -0.00000000000E+00 -0.00000000000E+00 -0.36873160125E+03  0.36873160125E+03  0.00000000000E+00 0. -1.
         -6    2    1    2    0  503 -0.22586879263E+02 -0.48565870880E+02 -0.18409133132E+03  0.25759073706E+03  0.17203069093E+03 0.  0.
        -24    2    3    3    0    0 -0.61399044881E+02 -0.73745659849E+02 -0.91228231133E+02  0.15373482076E+03  0.78125155363E+02 0.  0.
          6    2    1    2  501    0  0.22586879263E+02  0.48565870880E+02 -0.92302689126E+02  0.20347844500E+03  0.17324803095E+03 0.  0.
         24    2    5    5    0    0  0.30844624564E+01 -0.17969742257E+02  0.64574494599E+01  0.82718405867E+02  0.80425185546E+02 0.  0.
          5    1    5    5  501    0  0.19502416806E+02  0.66535613137E+02 -0.98760138586E+02  0.12076003913E+03  0.47000000000E+01 0. -1.
        -11    1    6    6    0    0  0.37826101274E+02 -0.68021319766E+01 -0.13975477459E+02  0.40894949654E+02  0.00000000000E+00 0.  1.
         12    1    6    6    0    0 -0.34741638818E+02 -0.11167610281E+02  0.20432926919E+02  0.41823456213E+02  0.00000000000E+00 0. -1.
         -5    1    3    3    0  503  0.38812165618E+02  0.25179788968E+02 -0.92863100190E+02  0.10385591629E+03  0.47000000000E+01 0.  1.
         11    1    4    4    0    0 -0.31162947582E+02 -0.65981662780E+02 -0.97611662706E+02  0.12187184179E+03  0.00000000000E+00 0. -1.
        -12    1    4    4    0    0 -0.30236097299E+02 -0.77639970689E+01  0.63834315730E+01  0.31862978972E+02  0.00000000000E+00 0.  1.
</event>
<event>
12    1  0.8113184E-002  0.2035391E+03  0.7818608E-02  0.1146970E+00
         21   -1    0    0  503  502  0.00000000000E+00  0.00000000000E+00  0.48490009152E+03  0.48490009152E+03  0.00000000000E+00 0.  1.
         21   -1    0    0  501  503 -0.00000000000E+00 -0.00000000000E+00 -0.14181731362E+03  0.14181731362E+03  0.00000000000E+00 0. -1.
          6    2    1    2  501    0 -0.24891434705E+02  0.10659174944E+03 -0.26910401563E+02  0.20443416968E+03  0.17055138653E+03 0.  0.
         24    2    3    3    0    0 -0.17206811930E+02  0.29092563304E+02  0.44270386085E+02  0.98821803878E+02  0.81629836587E+02 0.  0.
         -6    2    1    2    0  502  0.24891434705E+02 -0.10659174944E+03  0.36999317946E+03  0.42228323546E+03  0.17160068044E+03 0.  0.
        -24    2    5    5    0    0  0.92761701920E+01 -0.59153493969E+02  0.75529858710E+02  0.12357775871E+03  0.77340285168E+02 0.  0.
          5    1    3    3  501    0 -0.76846227754E+01  0.77499186141E+02 -0.71180787648E+02  0.10561236580E+03  0.47000000000E+01 0. -1.
        -11    1    4    4    0    0  0.21279621211E+01  0.26248308192E+02  0.65121089876E+02  0.70244275585E+02  0.00000000000E+00 0.  1.
         12    1    4    4    0    0 -0.19334774051E+02  0.28442551115E+01 -0.20850703792E+02  0.28577528293E+02  0.00000000000E+00 0. -1.
         -5    1    5    5    0  502  0.15615264513E+02 -0.47438255476E+02  0.29446332075E+03  0.29870547674E+03  0.47000000000E+01 0.  1.
         13    1    6    6    0    0  0.76715719744E+01 -0.77480963320E+02  0.51654181996E+02  0.93436112993E+02  0.00000000000E+00 0. -1.
        -14    1    6    6    0    0  0.16045982176E+01  0.18327469351E+02  0.23875676714E+02  0.30141645721E+02  0.00000000000E+00 0.  1.
</event>
<event>
12    1  0.8113184E-002  0.2328100E+03  0.7818608E-02  0.1124689E+00
         21   -1    0    0  501  502  0.00000000000E+00  0.00000000000E+00  0.16169529293E+03  0.16169529293E+03  0.00000000000E+00 0.  1.
         21   -1    0    0  502  503 -0.00000000000E+00 -0.00000000000E+00 -0.34944869082E+03  0.34944869082E+03  0.00000000000E+00 0. -1.
         -6    2    1    2    0  503 -0.11814476407E+03 -0.10322269280E+03 -0.42116082019E+02  0.23658877380E+03  0.17200980768E+03 0.  0.
        -24    2    3    3    0    0 -0.14417365076E+03 -0.67986866574E+02 -0.51975189098E+01  0.17910715331E+03  0.81511364618E+02 0.  0.
          6    2    1    2  501    0  0.11814476407E+03  0.10322269280E+03 -0.14563731586E+03  0.27455520995E+03  0.17192215085E+03 0.  0.
         24    2    5    5    0    0  0.91069343292E+02  0.31431790523E+02 -0.20137450247E+02  0.12738415869E+03  0.80867943211E+02 0.  0.
          5    1    5    5  501    0  0.27075420777E+02  0.71790902279E+02 -0.12549986562E+03  0.14717105126E+03  0.47000000000E+01 0. -1.
        -11    1    6    6    0    0  0.62547784153E+02  0.58818935304E+02 -0.18371310665E+02  0.87803174819E+02  0.00000000000E+00 0.  1.
         12    1    6    6    0    0  0.28521559139E+02 -0.27387144782E+02 -0.17661395823E+01  0.39580983869E+02  0.00000000000E+00 0. -1.
         -5    1    3    3    0  503  0.26028886694E+02 -0.35235826228E+02 -0.36918563109E+02  0.57481620493E+02  0.47000000000E+01 0.  1.
         11    1    4    4    0    0 -0.81727672201E+02 -0.36145309161E+02  0.37630032596E+02  0.96963473179E+02  0.00000000000E+00 0. -1.
        -12    1    4    4    0    0 -0.62445978562E+02 -0.31841557412E+02 -0.42827551505E+02  0.82143680128E+02  0.00000000000E+00 0.  1.
</event>
<event>
12    1  0.8113184E-002  0.2314181E+03  0.7818608E-02  0.1125878E+00
         21   -1    0    0  501  502  0.00000000000E+00  0.00000000000E+00  0.14674105091E+04  0.14674105091E+04  0.00000000000E+00 0.  1.
         21   -1    0    0  502  503 -0.00000000000E+00 -0.00000000000E+00 -0.67776971097E+02  0.67776971097E+02  0.00000000000E+00 0. -1.
         -6    2    1    2    0  503  0.12925140877E+03 -0.86882806222E+02  0.17768310287E+03  0.29176291607E+03  0.17117174259E+03 0.  0.
        -24    2    3    3    0    0  0.86382487123E+02  0.68572842456E+01  0.52728016283E+02  0.12971103342E+03  0.80843998307E+02 0.  0.
          6    2    1    2  501    0 -0.12925140877E+03  0.86882806222E+02  0.12219504351E+04  0.12434245641E+04  0.16937305594E+03 0.  0.
         24    2    5    5    0    0 -0.58599926595E+02  0.72198056894E+02  0.10456545730E+04  0.10528737971E+04  0.80642642890E+02 0.  0.
          5    1    5    5  501    0 -0.70651482171E+02  0.14684749327E+02  0.17629586214E+03  0.19055076700E+03  0.47000000000E+01 0. -1.
        -13    1    6    6    0    0 -0.70040359815E+02  0.76789463304E+02  0.77493846674E+03  0.78187716484E+03  0.00000000000E+00 0.  1.
         14    1    6    6    0    0  0.11440433220E+02 -0.45914064094E+01  0.27071610627E+03  0.27099663230E+03  0.00000000000E+00 0. -1.
         -5    1    3    3    0  503  0.42868921643E+02 -0.93740090467E+02  0.12495508659E+03  0.16205188264E+03  0.47000000000E+01 0.  1.
         11    1    4    4    0    0  0.95364902321E+02  0.13275615145E+02  0.24429528471E+02  0.99335333157E+02  0.00000000000E+00 0. -1.
        -12    1    4    4    0    0 -0.89824151977E+01 -0.64183308995E+01  0.28298487812E+02  0.30375700268E+02  0.00000000000E+00 0.  1.
</event>
<event>
12    1  0.8113184E-002  0.1817704E+03  0.7818608E-02  0.1166217E+00
         21   -1    0    0  501  502  0.00000000000E+00  0.00000000000E+00  0.17840131505E+03  0.17840131505E+03  0.00000000000E+00 0.  1.
         21   -1    0    0  502  503 -0.00000000000E+00 -0.00000000000E+00 -0.20627796503E+03  0.20627796503E+03  0.00000000000E+00 0.  1.
         -6    2    1    2    0  503 -0.48978035038E+02  0.34313433787E+02  0.48240119078E+02  0.18806271442E+03  0.17165143696E+03 0.  0.
        -24    2    3    3    0    0 -0.90882475217E+02  0.18047717854E+02  0.66075871236E+02  0.13947506499E+03  0.80634537105E+02 0.  0.
          6    2    1    2  501    0  0.48978035038E+02 -0.34313433787E+02 -0.76116769058E+02  0.19661656566E+03  0.17113752279E+03 0.  0.
         24    2    5    5    0    0  0.45897533570E+02 -0.72637690279E+02 -0.78770832075E+01  0.11815012156E+03  0.80712980044E+02 0.  0.
          5    1    5    5  501    0  0.30805014685E+01  0.38324256492E+02 -0.68239685850E+02  0.78466444101E+02  0.47000000000E+01 0. -1.
        -13    1    6    6    0    0  0.20156092946E+02 -0.13579155884E+02 -0.39503814746E+02  0.46381170068E+02  0.00000000000E+00 0.  1.
         14    1    6    6    0    0  0.25741440623E+02 -0.59058534395E+02  0.31626731539E+02  0.71768951490E+02  0.00000000000E+00 0. -1.
         -5    1    3    3    0  503  0.41904440178E+02  0.16265715933E+02 -0.17835752158E+02  0.48587649424E+02  0.47000000000E+01 0.  1.
         11    1    4    4    0    0 -0.41760365216E+02  0.95890323376E+01 -0.14065946458E+02  0.45096878982E+02  0.00000000000E+00 0. -1.
        -12    1    4    4    0    0 -0.49122110001E+02  0.84586855163E+01  0.80141817694E+02  0.94378186012E+02  0.00000000000E+00 0.  1.
</event>
<event>
12    1  0.8113184E-002  0.2099105E+03  0.7818608E-02  0.1142160E+00
         21   -1    0    0  501  502  0.00000000000E+00  0.00000000000E+00  0.34104271471E+02  0.34104271471E+02  0.00000000000E+00 0.  1.
         21   -1    0    0  502  503 -0.00000000000E+00 -0.00000000000E+00 -0.13219738948E+04  0.13219738948E+04  0.00000000000E+00 0.  1.
         -6    2    1    2    0  503  0.86544528995E+02  0.78421661905E+02 -0.76662253024E+03  0.79415205731E+03  0.17125266044E+03 0.  0.
        -24    2    3    3    0    0  0.63912142634E+02  0.76380902775E+02 -0.28884441023E+03  0.31581074447E+03  0.79915760138E+02 0.  0.
          6    2    1    2  501    0 -0.86544528995E+02 -0.78421661905E+02 -0.52124709307E+03  0.56192610894E+03  0.17442048996E+03 0.  0.
         24    2    5    5    0    0 -0.46108125020E+02  0.16467645233E+02 -0.15252744794E+03  0.17902226973E+03  0.79920010960E+02 0.  0.
          5    1    5    5  501    0 -0.40436403975E+02 -0.94889307138E+02 -0.36871964513E+03  0.38290383921E+03  0.47000000000E+01 0. -1.
        -13    1    6    6    0    0  0.77213736285E+01 -0.24472242624E+02 -0.34576556467E+02  0.43058663785E+02  0.00000000000E+00 0.  1.
         14    1    6    6    0    0 -0.53829498649E+02  0.40939887857E+02 -0.11795089147E+03  0.13596360595E+03  0.00000000000E+00 0. -1.
         -5    1    3    3    0  503  0.22632386360E+02  0.20407591304E+01 -0.47777812001E+03  0.47834131284E+03  0.47000000000E+01 0.  1.
         11    1    4    4    0    0  0.16314507210E+02 -0.10563170206E+02 -0.14912904821E+02  0.24497723170E+02  0.00000000000E+00 0. -1.
        -12    1    4    4    0    0  0.47597635424E+02  0.86944072981E+02 -0.27393150541E+03  0.29131302130E+03  0.00000000000E+00 0.  1.
</event>
<event>
12    1  0.8113184E-002  0.2388184E+03  0.7818608E-02  0.1120594E+00
         21   -1    0    0  503  502  0.00000000000E+00  0.00000000000E+00  0.54915251247E+03  0.54915251247E+03  0.00000000000E+00 0.  1.
         21   -1    0    0  501  503 -0.00000000000E+00 -0.00000000000E+00 -0.16043254655E+03  0.16043254655E+03  0.00000000000E+00 0.  1.
          6    2    1    2  501    0 -0.51981997763E+02  0.15692580264E+03 -0.16363960913E+02  0.23937837797E+03  0.17235542637E+03 0.  0.
         24    2    3    3    0    0  0.56096568626E+01  0.14830914140E+03 -0.45603991484E+02  0.17404756655E+03  0.78649613539E+02 0.  0.
         -6    2    1    2    0  502  0.51981997763E+02 -0.15692580264E+03  0.40508392683E+03  0.47020668104E+03  0.17225997649E+03 0.  0.
        -24    2    5    5    0    0  0.48066219009E+01 -0.73585580543E+02  0.93541381797E+02  0.14424356032E+03  0.81352770747E+02 0.  0.
          5    1    3    3  501    0 -0.57591654625E+02  0.86166612405E+01  0.29240030571E+02  0.65330811423E+02  0.47000000000E+01 0. -1.
        -13    1    4    4    0    0  0.22352431050E+02  0.47396362977E+02 -0.48938540928E+02  0.71700956657E+02  0.00000000000E+00 0.  1.
         14    1    4    4    0    0 -0.16742774188E+02  0.10091277842E+03  0.33345494447E+01  0.10234660989E+03  0.00000000000E+00 0. -1.
         -5    1    5    5    0  502  0.47175375862E+02 -0.83340222099E+02  0.31154254503E+03  0.32596312072E+03  0.47000000000E+01 0.  1.
         11    1    6    6    0    0  0.26362121281E+01 -0.20715065247E+02  0.88680234355E+02  0.91105694157E+02  0.00000000000E+00 0. -1.
        -12    1    6    6    0    0  0.21704097728E+01 -0.52870515296E+02  0.48611474421E+01  0.53137866166E+02  0.00000000000E+00 0.  1.
</event>
<event>
12    1  0.8113184E-002  0.2121173E+03  0.7818608E-02  0.1140093E+00
         21   -1    0    0  501  502  0.00000000000E+00  0.00000000000E+00  0.59496724041E+03  0.59496724041E+03  0.00000000000E+00 0. -1.
         21   -1    0    0  502  503 -0.00000000000E+00 -0.00000000000E+00 -0.17214714998E+03  0.17214714998E+03  0.00000000000E+00 0. -1.
         -6    2    1    2    0  503 -0.46053706345E+02 -0.11550417408E+03 -0.76534457474E+02  0.22457523657E+03  0.17062929291E+03 0.  0.
        -24    2    3    3    0    0 -0.61413873852E+02 -0.96873881474E+02  0.57033131731E+01  0.13873722943E+03  0.77841365830E+02 0.  0.
          6    2    1    2  501    0  0.46053706345E+02  0.11550417408E+03  0.49935454790E+03  0.54253915383E+03  0.17184763841E+03 0.  0.
         24    2    5    5    0    0  0.52570769926E+02  0.11713755512E+03  0.23728060892E+03  0.28033698079E+03  0.76169828412E+02 0.  0.
          5    1    5    5  501    0 -0.65170635810E+01 -0.16333810344E+01  0.26207393899E+03  0.26220217304E+03  0.47000000000E+01 0. -1.
        -13    1    6    6    0    0  0.53267118396E+02  0.33387744326E+02  0.76212459775E+02  0.98795072743E+02  0.00000000000E+00 0.  1.
         14    1    6    6    0    0 -0.69634847011E+00  0.83749810793E+02  0.16106814914E+03  0.18154190805E+03  0.00000000000E+00 0. -1.
         -5    1    3    3    0  503  0.15360167508E+02 -0.18630292610E+02 -0.82237770647E+02  0.85838007139E+02  0.47000000000E+01 0.  1.
         11    1    4    4    0    0 -0.64253912599E+02 -0.10836373051E+03  0.95554139157E+00  0.12598482621E+03  0.00000000000E+00 0. -1.
        -12    1    4    4    0    0  0.28400387466E+01  0.11489849038E+02  0.47477717816E+01  0.12752403220E+02  0.00000000000E+00 0.  1.
</event>
<event>
12    1  0.8113184E-002  0.2023503E+03  0.7818608E-02  0.1147887E+00
         21   -1    0    0  501  502  0.00000000000E+00  0.00000000000E+00  0.79526142564E+03  0.79526142564E+03  0.00000000000E+00 0.  1.
         21   -1    0    0  502  503 -0.00000000000E+00 -0.00000000000E+00 -0.11065206905E+03  0.11065206905E+03  0.00000000000E+00 0. -1.
         -6    2    1    2    0  503 -0.37304047988E+02  0.10091804163E+03  0.10913014456E+02  0.20264432275E+03  0.17137556574E+03 0.  0.
        -24    2    3    3    0    0 -0.23328997361E+02  0.10659063343E+03  0.63927115021E+02  0.14732646671E+03  0.75581786864E+02 0.  0.
          6    2    1    2  501    0  0.37304047988E+02 -0.10091804163E+03  0.67369634214E+03  0.70326917194E+03  0.17071825818E+03 0.  0.
         24    2    5    5    0    0 -0.44301519131E+02 -0.57945769418E+02  0.40883586056E+03  0.42277095543E+03  0.79171857932E+02 0.  0.
          5    1    5    5  501    0  0.81605567118E+02 -0.42972272215E+02  0.26486048158E+03  0.28049821651E+03  0.47000000000E+01 0. -1.
        -11    1    6    6    0    0 -0.45108612110E+02 -0.76711984209E+01  0.29216956880E+03  0.29573077470E+03  0.00000000000E+00 0.  1.
         12    1    6    6    0    0  0.80709297970E+00 -0.50274570997E+02  0.11666629176E+03  0.12704018073E+03  0.00000000000E+00 0. -1.
         -5    1    3    3    0  503 -0.13975050627E+02 -0.56725917968E+01 -0.53014100565E+02  0.55317856036E+02  0.47000000000E+01 0.  1.
         11    1    4    4    0    0 -0.31603060704E+02  0.96977277719E+01  0.29074024302E+02  0.44023837394E+02  0.00000000000E+00 0. -1.
        -12    1    4    4    0    0  0.82740633425E+01  0.96892905658E+02  0.34853090719E+02  0.10330262932E+03  0.00000000000E+00 0.  1.
</event>
<event>
12    1  0.8113184E-002  0.2005399E+03  0.7818608E-02  0.1149402E+00
         21   -1    0    0  503  502  0.00000000000E+00  0.00000000000E+00  0.17753087730E+03  0.17753087730E+03  0.00000000000E+00 0. -1.
         21   -1    0    0  501  503 -0.00000000000E+00 -0.00000000000E+00 -0.23614503541E+03  0.23614503541E+03  0.00000000000E+00 0.  1.
          6    2    1    2  501    0  0.87918471508E+02 -0.50232751469E+02 -0.72352846155E+02  0.21266597337E+03  0.17244968812E+03 0.  0.
         24    2    3    3    0    0  0.32393071704E+02 -0.34480007085E+02 -0.10980177320E+03  0.14370416426E+03  0.79726253177E+02 0.  0.
         -6    2    1    2    0  502 -0.87918471508E+02  0.50232751469E+02  0.13738688049E+02  0.20100993933E+03  0.17309898096E+03 0.  0.
        -24    2    5    5    0    0 -0.38531578297E+02  0.83138853477E+02  0.46418491341E+02  0.13309870084E+03  0.84639449096E+02 0.  0.
          5    1    3    3  501    0  0.55525399804E+02 -0.15752744384E+02  0.37448927044E+02  0.68961809110E+02  0.47000000000E+01 0. -1.
        -11    1    4    4    0    0  0.40584445161E+02 -0.26012508953E+02 -0.18480862032E+02  0.51626447414E+02  0.00000000000E+00 0.  1.
         12    1    4    4    0    0 -0.81913734572E+01 -0.84674981319E+01 -0.91320911166E+02  0.92077716848E+02  0.00000000000E+00 0. -1.
         -5    1    5    5    0  502 -0.49386893211E+02 -0.32906102008E+02 -0.32679803292E+02  0.67911238493E+02  0.47000000000E+01 0.  1.
         11    1    6    6    0    0 -0.40794518535E+02  0.39850481731E+00  0.68941663714E+01  0.41374884635E+02  0.00000000000E+00 0. -1.
        -12    1    6    6    0    0  0.22629402379E+01  0.82740348660E+02  0.39524324969E+02  0.91723816205E+02  0.00000000000E+00 0.  1.
</event>
<event>
12    1  0.8113184E-002  0.2628820E+03  0.7818608E-02  0.1105437E+00
         21   -1    0    0  501  502  0.00000000000E+00  0.00000000000E+00  0.16330516918E+03  0.16330516918E+03  0.00000000000E+00 0. -1.
         21   -1    0    0  502  503 -0.00000000000E+00 -0.00000000000E+00 -0.12279992790E+04  0.12279992790E+04  0.00000000000E+00 0.  1.
         -6    2    1    2    0  503 -0.13696091184E+03 -0.14377187231E+03 -0.10955403791E+04  0.11266189095E+04  0.17214180911E+03 0.  0.
        -24    2    3    3    0    0 -0.77798922223E+01 -0.84119525247E+02 -0.57611409917E+03  0.58803568604E+03  0.82109022353E+02 0.  0.
          6    2    1    2  501    0  0.13696091184E+03  0.14377187231E+03  0.30846269248E+02  0.26468553868E+03  0.17227390812E+03 0.  0.
         24    2    5    5    0    0  0.52192841529E+02  0.14331510402E+03  0.46230518236E+02  0.17840344611E+03  0.80169925908E+02 0.  0.
          5    1    5    5  501    0  0.84768070315E+02  0.45676829411E+00 -0.15384248988E+02  0.86282092575E+02  0.47000000000E+01 0. -1.
        -13    1    6    6    0    0 -0.17506363075E+02  0.18126241790E+02 -0.59870213300E+01  0.25901309117E+02  0.00000000000E+00 0.  1.
         14    1    6    6    0    0  0.69699204604E+02  0.12518886223E+03  0.52217539566E+02  0.15250213699E+03  0.00000000000E+00 0. -1.
         -5    1    3    3    0  503 -0.12918101962E+03 -0.59652347068E+02 -0.51942627990E+03  0.53858322346E+03  0.47000000000E+01 0.  1.
         11    1    4    4    0    0 -0.60960891294E+01  0.28846869594E+01 -0.15511439424E+01  0.69202434247E+01  0.00000000000E+00 0. -1.
        -12    1    4    4    0    0 -0.16838030929E+01 -0.87004212206E+02 -0.57456295523E+03  0.58111544262E+03  0.00000000000E+00 0.  1.
</event>
<event>
12    1  0.8113184E-002  0.1751802E+03  0.7818608E-02  0.1172964E+00
         21   -1    0    0  501  502  0.00000000000E+00  0.00000000000E+00  0.12327210966E+04  0.12327210966E+04  0.00000000000E+00 0. -1.
         21   -1    0    0  502  503 -0.00000000000E+00 -0.00000000000E+00 -0.26306590703E+02  0.26306590703E+02  0.00000000000E+00 0. -1.
         -6    2    1    2    0  503  0.29084689319E+02  0.24260747109E+01  0.75793505049E+03  0.77754877700E+03  0.17106944453E+03 0.  0.
        -24    2    3    3    0    0  0.57000392564E+02  0.48332862570E+02  0.50561359615E+03  0.51952760349E+03  0.93159603971E+02 0.  0.
          6    2    1    2  501    0 -0.29084689319E+02 -0.24260747109E+01  0.44847945537E+03  0.48147891027E+03  0.17273191412E+03 0.  0.
         24    2    5    5    0    0 -0.68977081492E+02 -0.37773216055E+01  0.41424294084E+03  0.42868253020E+03  0.86019717131E+02 0.  0.
          5    1    5    5  501    0  0.39892392173E+02  0.13512468947E+01  0.34236514533E+02  0.52796380073E+02  0.47000000000E+01 0. -1.
        -13    1    6    6    0    0 -0.11507983355E+02 -0.40039249478E+02  0.13447998458E+03  0.14078508952E+03  0.00000000000E+00 0.  1.
         14    1    6    6    0    0 -0.57469098137E+02  0.36261927873E+02  0.27976295626E+03  0.28789744068E+03  0.00000000000E+00 0. -1.
         -5    1    3    3    0  503 -0.27915703245E+02 -0.45906787859E+02  0.25232145434E+03  0.25802117351E+03  0.47000000000E+01 0.  1.
         11    1    4    4    0    0  0.55384076677E+02  0.43355236712E+01  0.13040870108E+03  0.14174844632E+03  0.00000000000E+00 0. -1.
        -12    1    4    4    0    0  0.16163158871E+01  0.43997338899E+02  0.37520489507E+03  0.37777915717E+03  0.00000000000E+00 0.  1.
</event>
<event>
12    1  0.8113184E-002  0.1783461E+03  0.7818608E-02  0.1169474E+00
         21   -1    0    0  501  502  0.00000000000E+00  0.00000000000E+00  0.13639763289E+03  0.13639763289E+03  0.00000000000E+00 0. -1.
         21   -1    0    0  502  503 -0.00000000000E+00 -0.00000000000E+00 -0.24442829513E+03  0.24442829513E+03  0.00000000000E+00 0. -1.
         -6    2    1    2    0  503  0.42176639390E+02  0.22561516705E+02 -0.12573894255E+02  0.17854062729E+03  0.17155396186E+03 0.  0.
        -24    2    3    3    0    0  0.78449904026E+02  0.61461254965E+02 -0.15157257428E+02  0.12508313830E+03  0.74055220811E+02 0.  0.
          6    2    1    2  501    0 -0.42176639390E+02 -0.22561516705E+02 -0.95456767991E+02  0.20228530073E+03  0.17181227369E+03 0.  0.
         24    2    5    5    0    0 -0.38010819929E+02  0.51139845188E+02 -0.48424651053E+02  0.11463055288E+03  0.82067719766E+02 0.  0.
          5    1    5    5  501    0 -0.41658194609E+01 -0.73701361893E+02 -0.47032116938E+02  0.87654747848E+02  0.47000000000E+01 0. -1.
        -13    1    6    6    0    0 -0.57811861643E+02  0.58801857547E+02 -0.35531381921E+02  0.89790583576E+02  0.00000000000E+00 0.  1.
         14    1    6    6    0    0  0.19801041714E+02 -0.76620123599E+01 -0.12893269132E+02  0.24839969309E+02  0.00000000000E+00 0. -1.
         -5    1    3    3    0  503 -0.36273264637E+02 -0.38899738260E+02  0.25833631735E+01  0.53457488992E+02  0.47000000000E+01 0.  1.
         11    1    4    4    0    0  0.35550474819E+02  0.17682466836E+00 -0.32637640558E+02  0.48260575090E+02  0.00000000000E+00 0. -1.
        -12    1    4    4    0    0  0.42899429207E+02  0.61284430297E+02  0.17480383129E+02  0.76822563205E+02  0.00000000000E+00 0.  1.
</event>
<event>
12    1  0.8113184E-002  0.1957957E+03  0.7818608E-02  0.1153466E+00
         21   -1    0    0  501  502  0.00000000000E+00  0.00000000000E+00  0.20053362049E+03  0.20053362049E+03  0.00000000000E+00 0. -1.
         21   -1    0    0  502  503 -0.00000000000E+00 -0.00000000000E+00 -0.22815523314E+03  0.22815523314E+03  0.00000000000E+00 0. -1.
         -6    2    1    2    0  503  0.83024691478E+02  0.41770884722E+02 -0.10077375874E+03  0.21967406822E+03  0.17164917591E+03 0.  0.
        -24    2    3    3    0    0 -0.16292259685E+02  0.41482035576E+02 -0.28810067097E+02  0.96935308500E+02  0.81118660409E+02 0.  0.
          6    2    1    2  501    0 -0.83024691478E+02 -0.41770884722E+02  0.73152146092E+02  0.20901478540E+03  0.17233118648E+03 0.  0.
         24    2    5    5    0    0 -0.15417240281E+02  0.54372551436E+01  0.96790951424E+02  0.12310635133E+03  0.74292869236E+02 0.  0.
          5    1    5    5  501    0 -0.67607451197E+02 -0.47208139866E+02 -0.23638805332E+02  0.85908434071E+02  0.47000000000E+01 0. -1.
        -13    1    6    6    0    0 -0.11501268941E+02  0.37306270561E+02  0.30826841725E+02  0.49742649519E+02  0.00000000000E+00 0.  1.
         14    1    6    6    0    0 -0.39159713399E+01 -0.31869015418E+02  0.65964109700E+02  0.73363701813E+02  0.00000000000E+00 0. -1.
         -5    1    3    3    0  503  0.99316951163E+02  0.28884914570E+00 -0.71963691645E+02  0.12273875972E+03  0.47000000000E+01 0.  1.
         13    1    4    4    0    0  0.18260531793E+02  0.26196202453E+02 -0.45535208327E+02  0.55616034034E+02  0.00000000000E+00 0. -1.
        -14    1    4    4    0    0 -0.34552791478E+02  0.15285833124E+02  0.16725141230E+02  0.41319274466E+02  0.00000000000E+00 0.  1.
</event>
<event>
12    1  0.8113184E-002  0.1799480E+03  0.7818608E-02  0.1168007E+00
         21   -1    0    0  501  502  0.00000000000E+00  0.00000000000E+00  0.29724201504E+03  0.29724201504E+03  0.00000000000E+00 0. -1.
         21   -1    0    0  502  503 -0.00000000000E+00 -0.00000000000E+00 -0.11130224558E+03  0.11130224558E+03  0.00000000000E+00 0.  1.
         -6    2    1    2    0  503 -0.38862795426E+02 -0.28295487069E+02  0.60723208715E+02  0.18931724151E+03  0.17275056701E+03 0.  0.
        -24    2    3    3    0    0  0.13609698748E+02 -0.60949497325E+02 -0.10404587021E+01  0.10181588356E+03  0.80407253819E+02 0.  0.
          6    2    1    2  501    0  0.38862795426E+02  0.28295487069E+02  0.12521656075E+03  0.21922701911E+03  0.17340803720E+03 0.  0.
         24    2    5    5    0    0  0.76867361983E+02 -0.61964942777E+01  0.47221906830E+02  0.12574279640E+03  0.87374793170E+02 0.  0.
          5    1    5    5  501    0 -0.38004566557E+02  0.34491981347E+02  0.77994653920E+02  0.93484222714E+02  0.47000000000E+01 0. -1.
        -13    1    6    6    0    0  0.26128968787E+02 -0.44484038559E+02  0.11600085657E+02  0.52878300688E+02  0.00000000000E+00 0.  1.
         14    1    6    6    0    0  0.50738393195E+02  0.38287544282E+02  0.35621821173E+02  0.72864495708E+02  0.00000000000E+00 0. -1.
         -5    1    3    3    0  503 -0.52472494174E+02  0.32654010256E+02  0.61763667417E+02  0.87501357952E+02  0.47000000000E+01 0.  1.
         11    1    4    4    0    0 -0.28774703176E+01  0.13014491978E+02  0.19206567655E+02  0.23378389122E+02  0.00000000000E+00 0. -1.
        -12    1    4    4    0    0  0.16487169066E+02 -0.73963989303E+02 -0.20247026357E+02  0.78437494438E+02  0.00000000000E+00 0.  1.
</event>
<event>
12    1  0.8113184E-002  0.1910032E+03  0.7818608E-02  0.1157644E+00
         21   -1    0    0  501  502  0.00000000000E+00  0.00000000000E+00  0.15816170472E+02  0.15816170472E+02  0.00000000000E+00 0. -1.
         21   -1    0    0  502  503 -0.00000000000E+00 -0.00000000000E+00 -0.23369805753E+04  0.23369805753E+04  0.00000000000E+00 0. -1.
         -6    2    1    2    0  503  0.32046422522E+02 -0.74716427406E+02 -0.10179387545E+04  0.10357033915E+04  0.17283717638E+03 0.  0.
        -24    2    3    3    0    0  0.48002373267E+02 -0.84573073892E+01 -0.84593030178E+03  0.85062540482E+03  0.74764630427E+02 0.  0.
          6    2    1    2  501    0 -0.32046422522E+02  0.74716427406E+02 -0.13032256503E+04  0.13170933543E+04  0.17241893883E+03 0.  0.
         24    2    5    5    0    0  0.25794474179E+02  0.52147193378E+02 -0.11055400342E+04  0.11098335354E+04  0.78275312922E+02 0.  0.
          5    1    5    5  501    0 -0.57840896701E+02  0.22569234028E+02 -0.19768561619E+03  0.20725981884E+03  0.47000000000E+01 0. -1.
        -11    1    6    6    0    0 -0.48844372005E+01  0.16856843865E+01 -0.69972049190E+03  0.69973957015E+03  0.00000000000E+00 0.  1.
         12    1    6    6    0    0  0.30678911380E+02  0.50461508992E+02 -0.40581954225E+03  0.41009396529E+03  0.00000000000E+00 0. -1.
         -5    1    3    3    0  503 -0.15955950746E+02 -0.66259120017E+02 -0.17200845274E+03  0.18507798671E+03  0.47000000000E+01 0.  1.
         13    1    4    4    0    0  0.53253678149E+01 -0.16202351411E+02 -0.39440560926E+02  0.42970147542E+02  0.00000000000E+00 0. -1.
        -14    1    4    4    0    0  0.42677005452E+02  0.77450440221E+01 -0.80648974085E+03  0.80765525727E+03  0.00000000000E+00 0.  1.
</event>
<event>
12    1  0.8113184E-002  0.1743834E+03  0.7818608E-02  0.1173528E+00
         21   -1    0    0  503  502  0.00000000000E+00  0.00000000000E+00  0.86125740183E+03  0.86125740183E+03  0.00000000000E+00 0.  1.
         21   -1    0    0  501  503 -0.00000000000E+00 -0.00000000000E+00 -0.71466227929E+02  0.71466227929E+02  0.00000000000E+00 0.  1.
          6    2    1    2  501    0  0.23743115619E+02  0.11383272476E+02  0.62141276901E+02  0.18446969290E+03  0.17168056055E+03 0.  0.
         24    2    3    3    0    0  0.61271572255E+01 -0.10842602786E+02  0.10605431938E+03  0.13198391557E+03  0.77570169650E+02 0.  0.
         -6    2    1    2    0  502 -0.23743115619E+02 -0.11383272476E+02  0.72764989700E+03  0.74825393686E+03  0.17238406827E+03 0.  0.
        -24    2    5    5    0    0  0.52600927262E+02 -0.18411318116E+02  0.39841448589E+03  0.41017724107E+03  0.80033944929E+02 0.  0.
          5    1    3    3  501    0  0.17615958393E+02  0.22225875263E+02 -0.43913042482E+02  0.52485777324E+02  0.47000000000E+01 0. -1.
        -13    1    4    4    0    0 -0.22969923606E+01  0.28330077148E+02  0.14204346739E+02  0.31774721264E+02  0.00000000000E+00 0.  1.
         14    1    4    4    0    0  0.84241495861E+01 -0.39172679934E+02  0.91849972643E+02  0.10020919431E+03  0.00000000000E+00 0. -1.
         -5    1    5    5    0  502 -0.76344042881E+02  0.70280456393E+01  0.32923541111E+03  0.33807669579E+03  0.47000000000E+01 0.  1.
         13    1    6    6    0    0  0.29799331479E+02 -0.34190942771E+02  0.92624002833E+02  0.10313208339E+03  0.00000000000E+00 0. -1.
        -14    1    6    6    0    0  0.22801595783E+02  0.15779624655E+02  0.30579048305E+03  0.30704515767E+03  0.00000000000E+00 0.  1.
</event>
<event>
12    1  0.8113184E-002  0.2333376E+03  0.7818608E-02  0.1124415E+00
         21   -1    0    0  501  502  0.00000000000E+00  0.00000000000E+00  0.15973539394E+03  0.15973539394E+03  0.00000000000E+00 0. -1.
         21   -1    0    0  502  503 -0.00000000000E+00 -0.00000000000E+00 -0.34010122873E+03  0.34010122873E+03  0.00000000000E+00 0. -1.
         -6    2    1    2    0  503 -0.61958762482E+02 -0.14434075223E+03 -0.85467083923E+02  0.24793936244E+03  0.17174447302E+03 0.  0.
        -24    2    3    3    0    0 -0.66147019471E+01 -0.11094051737E+03 -0.11303662684E+03  0.17750705152E+03  0.79874411769E+02 0.  0.
          6    2    1    2  501    0  0.61958762482E+02  0.14434075223E+03 -0.94898750861E+02  0.25189726023E+03  0.17254945898E+03 0.  0.
         24    2    5    5    0    0  0.73227114083E+02  0.16959348031E+03 -0.94408139756E+02  0.22384362014E+03  0.84076813839E+02 0.  0.
          5    1    5    5  501    0 -0.11268351601E+02 -0.25252728077E+02 -0.49061110472E+00  0.28053640091E+02  0.47000000000E+01 0. -1.
        -13    1    6    6    0    0  0.10784283257E+01  0.56892463270E+01  0.13552069245E+02  0.14737337353E+02  0.00000000000E+00 0.  1.
         14    1    6    6    0    0  0.72148685757E+02  0.16390423398E+03 -0.10796020900E+03  0.20910628278E+03  0.00000000000E+00 0. -1.
         -5    1    3    3    0  503 -0.55344060535E+02 -0.33400234858E+02  0.27569542920E+02  0.70432310922E+02  0.47000000000E+01 0.  1.
         11    1    4    4    0    0 -0.31074820915E+02 -0.83285382575E+02 -0.43929531797E+02  0.99155953979E+02  0.00000000000E+00 0. -1.
        -12    1    4    4    0    0  0.24460118968E+02 -0.27655134796E+02 -0.69107095046E+02  0.78351097543E+02  0.00000000000E+00 0.  1.
</event>
<event>
12    1  0.8113184E-002  0.1742519E+03  0.7818608E-02  0.1173931E+00
         21   -1    0    0  503  502  0.00000000000E+00  0.00000000000E+00  0.94455143061E+03  0.94455143061E+03  0.00000000000E+00 0.  1.
         21   -1    0    0  501  503 -0.00000000000E+00 -0.00000000000E+00 -0.31846199726E+02  0.31846199726E+02  0.00000000000E+00 0.  1.
          6    2    1    2  501    0  0.58743276550E+00 -0.24176522890E+02  0.44083238765E+03  0.47337904082E+03  0.17079131403E+03 0.  0.
         24    2    3    3    0    0  0.17970271945E+02  0.24296087438E+02  0.39659579492E+03  0.40532962358E+03  0.78042607999E+02 0.  0.
         -6    2    1    2    0  502 -0.58743276550E+00  0.24176522890E+02  0.47187284324E+03  0.50301858952E+03  0.17256555822E+03 0.  0.
        -24    2    5    5    0    0 -0.64912598099E+02 -0.26963047322E+01  0.31020412069E+03  0.32689720635E+03  0.80089147679E+02 0.  0.
          5    1    3    3  501    0 -0.17382839180E+02 -0.48472610329E+02  0.44236592726E+02  0.68049417235E+02  0.47000000000E+01 0. -1.
        -11    1    4    4    0    0  0.42239029721E+02 -0.81350465894E+01  0.19141291578E+03  0.19618669410E+03  0.00000000000E+00 0.  1.
         12    1    4    4    0    0 -0.24268757775E+02  0.32431134028E+02  0.20518287915E+03  0.20914292948E+03  0.00000000000E+00 0. -1.
         -5    1    5    5    0  502  0.64325165334E+02  0.26872827623E+02  0.16166872255E+03  0.17612138317E+03  0.47000000000E+01 0.  1.
         13    1    6    6    0    0  0.51461694104E+01 -0.26780944800E+02  0.11279778300E+03  0.11604758469E+03  0.00000000000E+00 0. -1.
        -14    1    6    6    0    0 -0.70058767510E+02  0.24084640068E+02  0.19740633769E+03  0.21084962166E+03  0.00000000000E+00 0.  1.
</event>
<event>
12    1  0.8113184E-002  0.1801357E+03  0.7818608E-02  0.1167974E+00
         21   -1    0    0  503  502  0.00000000000E+00  0.00000000000E+00  0.15903690438E+03  0.15903690438E+03  0.00000000000E+00 0.  1.
         21   -1    0    0  501  503 -0.00000000000E+00 -0.00000000000E+00 -0.59315035809E+03  0.59315035809E+03  0.00000000000E+00 0.  1.
          6    2    1    2  501    0 -0.31200330602E+02  0.37048441453E+02 -0.52248096902E+03  0.55266193601E+03  0.17350159905E+03 0.  0.
         24    2    3    3    0    0 -0.27655595701E+02  0.15333621230E+02 -0.52331159311E+03  0.53014797369E+03  0.78752134011E+02 0.  0.
         -6    2    1    2    0  502  0.31200330602E+02 -0.37048441453E+02  0.88367515308E+02  0.19952532646E+03  0.17220769580E+03 0.  0.
        -24    2    5    5    0    0  0.58012618676E+02  0.16423241503E+02  0.90583797320E+01  0.10007609994E+03  0.79359843426E+02 0.  0.
          5    1    3    3  501    0 -0.35447349011E+01  0.21714820223E+02  0.83062408434E+00  0.22513962317E+02  0.47000000000E+01 0. -1.
        -13    1    4    4    0    0 -0.40551556274E+01 -0.21069529644E+01 -0.46352709038E+03  0.46354961660E+03  0.00000000000E+00 0.  1.
         14    1    4    4    0    0 -0.23600440074E+02  0.17440574194E+02 -0.59784502729E+02  0.66598357086E+02  0.00000000000E+00 0. -1.
         -5    1    5    5    0  502 -0.26812288074E+02 -0.53471682956E+02  0.79309135576E+02  0.99449226522E+02  0.47000000000E+01 0.  1.
         13    1    6    6    0    0 -0.12792523764E+02  0.91736079855E+01 -0.18016735331E+02  0.23925018280E+02  0.00000000000E+00 0. -1.
        -14    1    6    6    0    0  0.70805142440E+02  0.72496335174E+01  0.27075115063E+02  0.76151081659E+02  0.00000000000E+00 0.  1.
</event>
<event>
12    1  0.8113184E-002  0.2417461E+03  0.7818608E-02  0.1118653E+00
         21   -1    0    0  503  502  0.00000000000E+00  0.00000000000E+00  0.17242596945E+03  0.17242596945E+03  0.00000000000E+00 0.  1.
         21   -1    0    0  501  503 -0.00000000000E+00 -0.00000000000E+00 -0.37772252860E+03  0.37772252860E+03  0.00000000000E+00 0.  1.
          6    2    1    2  501    0  0.16334832047E+03  0.49084305635E+02 -0.19095200325E+03  0.30797716975E+03  0.17115877623E+03 0.  0.
         24    2    3    3    0    0  0.42408122097E+02  0.48288275001E+02 -0.14773060617E+03  0.17945734866E+03  0.79059481817E+02 0.  0.
         -6    2    1    2    0  502 -0.16334832047E+03 -0.49084305635E+02 -0.14344555889E+02  0.24217132831E+03  0.17131620796E+03 0.  0.
        -24    2    5    5    0    0 -0.18367437290E+03 -0.68355052890E+02 -0.12516159081E+02  0.21371182827E+03  0.84305413743E+02 0.  0.
          5    1    3    3  501    0  0.12094019837E+03  0.79603063405E+00 -0.43221397080E+02  0.12851982109E+03  0.47000000000E+01 0. -1.
        -13    1    4    4    0    0  0.22715316945E+02  0.90267701308E+01 -0.12968990582E+03  0.13197325439E+03  0.00000000000E+00 0.  1.
         14    1    4    4    0    0  0.19692805152E+02  0.39261504870E+02 -0.18040700356E+02  0.47484094271E+02  0.00000000000E+00 0. -1.
         -5    1    5    5    0  502  0.20326052437E+02  0.19270747256E+02 -0.18283968084E+01  0.28459500037E+02  0.47000000000E+01 0.  1.
         13    1    6    6    0    0 -0.47443744004E+01 -0.20914439833E+02  0.15541700465E+02  0.26485228625E+02  0.00000000000E+00 0. -1.
        -14    1    6    6    0    0 -0.17892999850E+03 -0.47440613058E+02 -0.28057859546E+02  0.18722659964E+03  0.00000000000E+00 0.  1.
</event>
<event>
12    1  0.8113184E-002  0.1921188E+03  0.7818608E-02  0.1158311E+00
         21   -1    0    0  501  502  0.00000000000E+00  0.00000000000E+00  0.13254344537E+03  0.13254344537E+03  0.00000000000E+00 0.  1.
         21   -1    0    0  502  503 -0.00000000000E+00 -0.00000000000E+00 -0.49885541314E+03  0.49885541314E+03  0.00000000000E+00 0.  1.
         -6    2    1    2    0  503 -0.82483847000E+02  0.18731824115E+02 -0.39615025713E+03  0.43697670612E+03  0.16388761154E+03 0.  0.
        -24    2    3    3    0    0 -0.38786849243E+01  0.56785873576E+02 -0.21372941478E+03  0.23467412109E+03  0.78434690878E+02 0.  0.
          6    2    1    2  501    0  0.82483847000E+02 -0.18731824115E+02  0.29838289364E+02  0.19442215239E+03  0.17249690889E+03 0.  0.
         24    2    5    5    0    0  0.12157911366E+03 -0.27309780603E+02  0.63430510607E+01  0.14777306413E+03  0.79179158820E+02 0.  0.
          5    1    5    5  501    0 -0.39095266659E+02  0.85779564876E+01  0.23495238303E+02  0.46649088260E+02  0.47000000000E+01 0. -1.
        -11    1    6    6    0    0  0.33345874528E+02 -0.37926450178E+02  0.25932120115E+02  0.56770043375E+02  0.00000000000E+00 0.  1.
         12    1    6    6    0    0  0.88233239131E+02  0.10616669576E+02 -0.19589069054E+02  0.91003020757E+02  0.00000000000E+00 0. -1.
         -5    1    3    3    0  503 -0.78605162076E+02 -0.38054049461E+02 -0.18242084235E+03  0.20230258502E+03  0.47000000000E+01 0.  1.
         13    1    4    4    0    0  0.23838125892E+02 -0.89751663084E+00 -0.21652348409E+02  0.32216237735E+02  0.00000000000E+00 0. -1.
        -14    1    4    4    0    0 -0.27716810816E+02  0.57683390207E+02 -0.19207706637E+03  0.20245788336E+03  0.00000000000E+00 0.  1.
</event>
<event>
12    1  0.8113184E-002  0.3168370E+03  0.7818608E-02  0.1077518E+00
         21   -1    0    0  501  502  0.00000000000E+00  0.00000000000E+00  0.10215254291E+04  0.10215254291E+04  0.00000000000E+00 0. -1.
         21   -1    0    0  502  503 -0.00000000000E+00 -0.00000000000E+00 -0.22139739763E+03  0.22139739763E+03  0.00000000000E+00 0.  1.
         -6    2    1    2    0  503 -0.15814303011E+03  0.21237400438E+03 -0.66345435154E+02  0.32033843832E+03  0.16763968083E+03 0.  0.
        -24    2    3    3    0    0 -0.13012816082E+03  0.23309492361E+03 -0.60170921881E+02  0.28463964269E+03  0.78310948776E+02 0.  0.
          6    2    1    2  501    0  0.15814303011E+03 -0.21237400438E+03  0.86647346663E+03  0.92258438841E+03  0.17399353337E+03 0.  0.
         24    2    5    5    0    0  0.58721428383E+02 -0.22569985257E+02  0.30104474533E+03  0.31790104199E+03  0.80470637023E+02 0.  0.
          5    1    5    5  501    0  0.99421601731E+02 -0.18980401912E+03  0.56542872130E+03  0.60468334642E+03  0.47000000000E+01 0. -1.
        -13    1    6    6    0    0  0.58274221307E+00  0.24534549450E+02  0.46402237302E+02  0.52492393086E+02  0.00000000000E+00 0.  1.
         14    1    6    6    0    0  0.58138686170E+02 -0.47104534708E+02  0.25464250802E+03  0.26540864890E+03  0.00000000000E+00 0. -1.
         -5    1    3    3    0  503 -0.28014869295E+02 -0.20720919233E+02 -0.61745132736E+01  0.35698795632E+02  0.47000000000E+01 0.  1.
         11    1    4    4    0    0 -0.20070061470E+01  0.73590589093E+02 -0.16043779234E+02  0.75345907180E+02  0.00000000000E+00 0. -1.
        -12    1    4    4    0    0 -0.12812115467E+03  0.15950433452E+03 -0.44127142647E+02  0.20929373551E+03  0.00000000000E+00 0.  1.
</event>
<event>
12    1  0.8113184E-002  0.1783348E+03  0.7818608E-02  0.1169529E+00
         21   -1    0    0  501  502  0.00000000000E+00  0.00000000000E+00  0.36368237711E+03  0.36368237711E+03  0.00000000000E+00 0. -1.
         21   -1    0    0  502  503 -0.00000000000E+00 -0.00000000000E+00 -0.12958811524E+03  0.12958811524E+03  0.00000000000E+00 0. -1.
         -6    2    1    2    0  503  0.45705514563E+02  0.10835525704E+02 -0.24037792178E+02  0.17952621730E+03  0.17159674987E+03 0.  0.
        -24    2    3    3    0    0  0.69917233481E+02  0.42949289084E+01  0.38137125720E+02  0.11231909599E+03  0.79083961798E+02 0.  0.
          6    2    1    2  501    0 -0.45705514563E+02 -0.10835525704E+02  0.25813205405E+03  0.31374427504E+03  0.17203752532E+03 0.  0.
         24    2    5    5    0    0 -0.22929130473E+02 -0.70763120688E+02  0.18767907639E+03  0.21837241141E+03  0.83246081437E+02 0.  0.
          5    1    5    5  501    0 -0.22776384090E+02  0.59927594985E+02  0.70452977656E+02  0.95371863636E+02  0.47000000000E+01 0. -1.
        -13    1    6    6    0    0  0.35256035926E+01 -0.32508024320E+02  0.92513651097E+01  0.33982190663E+02  0.00000000000E+00 0.  1.
         14    1    6    6    0    0 -0.26454734065E+02 -0.38255096369E+02  0.17842771128E+03  0.18439022075E+03  0.00000000000E+00 0. -1.
         -5    1    3    3    0  503 -0.24211718918E+02  0.65405967952E+01 -0.62174917899E+02  0.67207121312E+02  0.47000000000E+01 0.  1.
         13    1    4    4    0    0  0.33317537226E+02 -0.30124236822E+02  0.42566773753E+02  0.61882615965E+02  0.00000000000E+00 0. -1.
        -14    1    4    4    0    0  0.36599696254E+02  0.34419165731E+02 -0.44296480328E+01  0.50436480024E+02  0.00000000000E+00 0.  1.
</event>
<event>
12    1  0.8113184E-002  0.3615580E+03  0.7818608E-02  0.1058322E+00
         21   -1    0    0  501  502  0.00000000000E+00  0.00000000000E+00  0.48637293158E+02  0.48637293158E+02  0.00000000000E+00 0. -1.
         21   -1    0    0  502  503 -0.00000000000E+00 -0.00000000000E+00 -0.27620861414E+04  0.27620861414E+04  0.00000000000E+00 0. -1.
         -6    2    1    2    0  503 -0.20482945421E+03 -0.22722175913E+03 -0.16187402271E+04  0.16578525942E+04  0.18593135280E+03 0.  0.
        -24    2    3    3    0    0 -0.22338720554E+03 -0.20819886770E+03 -0.15781577225E+04  0.16091156450E+04  0.73639322308E+02 0.  0.
          6    2    1    2  501    0  0.20482945421E+03  0.22722175913E+03 -0.10947086211E+04  0.11528708403E+04  0.19271579160E+03 0.  0.
         24    2    5    5    0    0  0.16782921769E+03  0.72626332341E+02 -0.53376421301E+03  0.56981897093E+03  0.79675555139E+02 0.  0.
          5    1    5    5  501    0  0.37000236519E+02  0.15459542679E+03 -0.56094440805E+03  0.58305186940E+03  0.47000000000E+01 0. -1.
        -11    1    6    6    0    0  0.33878905017E+02 -0.82411880517E+01 -0.17467656136E+03  0.17812242552E+03  0.00000000000E+00 0.  1.
         12    1    6    6    0    0  0.13395031267E+03  0.80867520392E+02 -0.35908765165E+03  0.39169654541E+03  0.00000000000E+00 0. -1.
         -5    1    3    3    0  503  0.18557751333E+02 -0.19022891426E+02 -0.40582504623E+02  0.48736949168E+02  0.47000000000E+01 0.  1.
         13    1    4    4    0    0 -0.80930202898E+02 -0.12092569053E+03 -0.81475370398E+03  0.82764504379E+03  0.00000000000E+00 0. -1.
        -14    1    4    4    0    0 -0.14245700264E+03 -0.87273177169E+02 -0.76340401855E+03  0.78147060123E+03  0.00000000000E+00 0.  1.
</event>
<event>
12    1  0.8113184E-002  0.2120606E+03  0.7818608E-02  0.1140022E+00
         21   -1    0    0  501  502  0.00000000000E+00  0.00000000000E+00  0.28221911656E+03  0.28221911656E+03  0.00000000000E+00 0. -1.
         21   -1    0    0  502  503 -0.00000000000E+00 -0.00000000000E+00 -0.20139963794E+03  0.20139963794E+03  0.00000000000E+00 0.  1.
         -6    2    1    2    0  503  0.69866412592E+02  0.10209496016E+03  0.15133009107E+03  0.26051962410E+03  0.17223525069E+03 0.  0.
        -24    2    3    3    0    0  0.46613014649E+02  0.13407938192E+03  0.87633913916E+02  0.18539960856E+03  0.80890408547E+02 0.  0.
          6    2    1    2  501    0 -0.69866412592E+02 -0.10209496016E+03 -0.70510612442E+02  0.22309913040E+03  0.17174626348E+03 0.  0.
         24    2    5    5    0    0 -0.61725588438E+02 -0.69137753368E+02 -0.11384449514E+03  0.16785090973E+03  0.81383546338E+02 0.  0.
          5    1    5    5  501    0 -0.81408241536E+01 -0.32957206796E+02  0.43333882698E+02  0.55248220672E+02  0.47000000000E+01 0. -1.
        -11    1    6    6    0    0 -0.44171868572E+02  0.21478633401E+01 -0.68582293366E+02  0.81604523486E+02  0.00000000000E+00 0.  1.
         12    1    6    6    0    0 -0.17553719866E+02 -0.71285616708E+02 -0.45262201774E+02  0.86246386244E+02  0.00000000000E+00 0. -1.
         -5    1    3    3    0  503  0.23253397942E+02 -0.31984421759E+02  0.63696177150E+02  0.75120015540E+02  0.47000000000E+01 0.  1.
         11    1    4    4    0    0  0.56901660548E+02  0.51927552781E+02  0.61521424840E+02  0.98585776993E+02  0.00000000000E+00 0. -1.
        -12    1    4    4    0    0 -0.10288645899E+02  0.82151829142E+02  0.26112489077E+02  0.86813831568E+02  0.00000000000E+00 0.  1.
</event>
<event>
12    1  0.8113184E-002  0.1900350E+03  0.7818608E-02  0.1159101E+00
         21   -1    0    0  503  502  0.00000000000E+00  0.00000000000E+00  0.74883562202E+02  0.74883562202E+02  0.00000000000E+00 0.  1.
         21   -1    0    0  501  503 -0.00000000000E+00 -0.00000000000E+00 -0.48558628729E+03  0.48558628729E+03  0.00000000000E+00 0.  1.
          6    2    1    2  501    0 -0.18243490442E+02  0.70551464531E+02 -0.24556061317E+03  0.30870563567E+03  0.17230444179E+03 0.  0.
         24    2    3    3    0    0 -0.67865420059E+02  0.68835024101E+02 -0.11981311617E+03  0.17342886357E+03  0.79864961845E+02 0.  0.
         -6    2    1    2    0  502  0.18243490442E+02 -0.70551464531E+02 -0.16514211192E+03  0.25176421383E+03  0.17550774383E+03 0.  0.
        -24    2    5    5    0    0  0.59240660257E+02 -0.73503722330E+02 -0.58589787647E+02  0.13746210726E+03  0.80937103301E+02 0.  0.
          5    1    3    3  501    0  0.49621929618E+02  0.17164404295E+01 -0.12574749700E+03  0.13527677209E+03  0.47000000000E+01 0. -1.
        -11    1    4    4    0    0 -0.13818397763E+02  0.17491298449E+02  0.94489687192E+01  0.24211085230E+02  0.00000000000E+00 0.  1.
         12    1    4    4    0    0 -0.54047022296E+02  0.51343725652E+02 -0.12926208489E+03  0.14921777834E+03  0.00000000000E+00 0. -1.
         -5    1    5    5    0  502 -0.40997169815E+02  0.29522577988E+01 -0.10655232427E+03  0.11430210657E+03  0.47000000000E+01 0.  1.
         11    1    6    6    0    0  0.36294021356E+02 -0.71321669459E+02 -0.74594747063E+02  0.10940024136E+03  0.00000000000E+00 0. -1.
        -12    1    6    6    0    0  0.22946638901E+02 -0.21820528707E+01  0.16004959416E+02  0.28061865894E+02  0.00000000000E+00 0.  1.
</event>
<event>
12    1  0.8113184E-002  0.2601854E+03  0.7818608E-02  0.1107155E+00
         21   -1    0    0  503  502  0.00000000000E+00  0.00000000000E+00  0.24323376474E+04  0.24323376474E+04  0.00000000000E+00 0.  1.
         21   -1    0    0  501  503 -0.00000000000E+00 -0.00000000000E+00 -0.76170022165E+02  0.76170022165E+02  0.00000000000E+00 0.  1.
          6    2    1    2  501    0  0.15873805972E+03  0.11243411863E+03  0.17868819316E+03  0.31563574541E+03  0.17279250784E+03 0.  0.
         24    2    3    3    0    0  0.14707468957E+03  0.94613497295E+02  0.69967649236E+02  0.20474906713E+03  0.80274718130E+02 0.  0.
         -6    2    1    2    0  502 -0.15873805972E+03 -0.11243411863E+03  0.21774794321E+04  0.21928719242E+04  0.17155581015E+03 0.  0.
        -24    2    5    5    0    0 -0.45361794920E+02  0.18159676320E+01  0.10414032691E+04  0.10454407072E+04  0.79777898806E+02 0.  0.
          5    1    3    3  501    0  0.11663370159E+02  0.17820621337E+02  0.10872054392E+03  0.11088667827E+03  0.47000000000E+01 0. -1.
        -11    1    4    4    0    0  0.98429860569E+02  0.94495994784E+02  0.75243467377E+02  0.15581883668E+03  0.00000000000E+00 0.  1.
         12    1    4    4    0    0  0.48644828997E+02  0.11750251126E+00 -0.52758181410E+01  0.48930230451E+02  0.00000000000E+00 0. -1.
         -5    1    5    5    0  502 -0.11337626480E+03 -0.11425008626E+03  0.11360761630E+04  0.11474312170E+04  0.47000000000E+01 0.  1.
         11    1    6    6    0    0 -0.52520869791E+02  0.71142275624E+01  0.35090616439E+03  0.35488616513E+03  0.00000000000E+00 0. -1.
        -12    1    6    6    0    0  0.71590748708E+01 -0.52982599305E+01  0.69049710471E+03  0.69055454203E+03  0.00000000000E+00 0.  1.
</event>
<event>
12    1  0.8113184E-002  0.1968259E+03  0.7818608E-02  0.1152899E+00
         21   -1    0    0  503  502  0.00000000000E+00  0.00000000000E+00  0.75478634422E+03  0.75478634422E+03  0.00000000000E+00 0. -1.
         21   -1    0    0  501  503 -0.00000000000E+00 -0.00000000000E+00 -0.60810987969E+02  0.60810987969E+02  0.00000000000E+00 0. -1.
          6    2    1    2  501    0 -0.47281561014E+01 -0.90681316628E+02  0.51415521329E+03  0.55054156481E+03  0.17462810365E+03 0.  0.
         24    2    3    3    0    0 -0.38392552977E+01 -0.41505093102E+02  0.10261108930E+03  0.13604217145E+03  0.79000152727E+02 0.  0.
         -6    2    1    2    0  502  0.47281561014E+01  0.90681316628E+02  0.17982014296E+03  0.26505576738E+03  0.17226090491E+03 0.  0.
        -24    2    5    5    0    0 -0.22242537336E+02  0.78183778758E+02  0.38154532182E+02  0.12022882916E+03  0.79948541616E+02 0.  0.
          5    1    3    3  501    0 -0.88890080376E+00 -0.49176223526E+02  0.41154412399E+03  0.41449939336E+03  0.47000000000E+01 0. -1.
        -11    1    4    4    0    0 -0.95570753726E+01 -0.11133132144E+01 -0.11420387854E+02  0.14933265374E+02  0.00000000000E+00 0.  1.
         12    1    4    4    0    0  0.57178200749E+01 -0.40391779888E+02  0.11403147716E+03  0.12110890608E+03  0.00000000000E+00 0. -1.
         -5    1    5    5    0  502  0.26970693437E+02  0.12497537870E+02  0.14166561078E+03  0.14482693822E+03  0.47000000000E+01 0.  1.
         11    1    6    6    0    0 -0.31543350738E+02 -0.30934180188E+01  0.15840045094E+02  0.35432460250E+02  0.00000000000E+00 0. -1.
        -12    1    6    6    0    0  0.93008134019E+01  0.81277196776E+02  0.22314487088E+02  0.84796368907E+02  0.00000000000E+00 0.  1.
</event>
<event>
12    1  0.8113184E-002  0.2191395E+03  0.7818608E-02  0.1134780E+00
         21   -1    0    0  503  502  0.00000000000E+00  0.00000000000E+00  0.67979435317E+03  0.67979435317E+03  0.00000000000E+00 0. -1.
         21   -1    0    0  501  503 -0.00000000000E+00 -0.00000000000E+00 -0.70656068741E+02  0.70656068741E+02  0.00000000000E+00 0. -1.
          6    2    1    2  501    0  0.19549974505E+02 -0.13276098732E+03  0.27372891110E+03  0.34979900894E+03  0.17153468637E+03 0.  0.
         24    2    3    3    0    0 -0.12971425132E+02 -0.45044534531E+02  0.22806424896E+03  0.24559167287E+03  0.78132580702E+02 0.  0.
         -6    2    1    2    0  502 -0.19549974505E+02  0.13276098732E+03  0.33540937333E+03  0.40065141297E+03  0.17324671927E+03 0.  0.
        -24    2    5    5    0    0 -0.18231485557E+02  0.41577601045E+02  0.63452539446E+02  0.11377381217E+03  0.82808040664E+02 0.  0.
          5    1    3    3  501    0  0.32521399636E+02 -0.87716452787E+02  0.45664662140E+02  0.10420733608E+03  0.47000000000E+01 0. -1.
        -11    1    4    4    0    0  0.18355594808E+02  0.16390744162E+01  0.13935009377E+03  0.14056337738E+03  0.00000000000E+00 0.  1.
         12    1    4    4    0    0 -0.31327019940E+02 -0.46683608947E+02  0.88714155185E+02  0.10502829549E+03  0.00000000000E+00 0. -1.
         -5    1    5    5    0  502 -0.13184889475E+01  0.91183386272E+02  0.27195683388E+03  0.28687760080E+03  0.47000000000E+01 0.  1.
         13    1    6    6    0    0 -0.98361147471E+01  0.34710396416E+02 -0.11635036442E+02  0.37906923453E+02  0.00000000000E+00 0. -1.
        -14    1    6    6    0    0 -0.83953708102E+01  0.68672046291E+01  0.75087575887E+02  0.75866888714E+02  0.00000000000E+00 0.  1.
</event>
<event>
12    1  0.8113184E-002  0.2362512E+03  0.7818608E-02  0.1122558E+00
         21   -1    0    0  503  502  0.00000000000E+00  0.00000000000E+00  0.47329954171E+03  0.47329954171E+03  0.00000000000E+00 0. -1.
         21   -1    0    0  501  503 -0.00000000000E+00 -0.00000000000E+00 -0.12318336809E+03  0.12318336809E+03  0.00000000000E+00 0.  1.
          6    2    1    2  501    0 -0.75871974505E+02  0.13929719313E+03  0.24118438891E+03  0.33761594885E+03  0.17508385114E+03 0.  0.
         24    2    3    3    0    0  0.14554715188E+02  0.73516612511E+02  0.17800146400E+03  0.20909263191E+03  0.80116636745E+02 0.  0.
         -6    2    1    2    0  502  0.75871974505E+02 -0.13929719313E+03  0.10893178471E+03  0.25886696095E+03  0.17316381036E+03 0.  0.
        -24    2    5    5    0    0  0.10905312020E+03 -0.89480110710E+02  0.11423449598E+03  0.19859309532E+03  0.80563168980E+02 0.  0.
          5    1    3    3  501    0 -0.90426689693E+02  0.65780580624E+02  0.63182924909E+02  0.12852331694E+03  0.47000000000E+01 0. -1.
        -13    1    4    4    0    0  0.18150459122E+02  0.16156583326E+02  0.25090010714E+01  0.24428864842E+02  0.00000000000E+00 0.  1.
         14    1    4    4    0    0 -0.35957439340E+01  0.57360029185E+02  0.17549246293E+03  0.18466376707E+03  0.00000000000E+00 0. -1.
         -5    1    5    5    0  502 -0.33181145698E+02 -0.49817082425E+02 -0.53027112721E+01  0.60273865630E+02  0.47000000000E+01 0.  1.
         11    1    6    6    0    0 -0.67558940169E+01  0.59925411454E+01  0.18457242692E+02  0.20548052490E+02  0.00000000000E+00 0. -1.
        -12    1    6    6    0    0  0.11580901422E+03 -0.95472651856E+02  0.95777253290E+02  0.17804504283E+03  0.00000000000E+00 0.  1.
</event>
<event>
12    1  0.8113184E-002  0.2016141E+03  0.7818608E-02  0.1149072E+00
         21   -1    0    0  503  502  0.00000000000E+00  0.00000000000E+00  0.22688336268E+03  0.22688336268E+03  0.00000000000E+00 0. -1.
         21   -1    0    0  501  503 -0.00000000000E+00 -0.00000000000E+00 -0.29996034193E+03  0.29996034193E+03  0.00000000000E+00 0.  1.
          6    2    1    2  501    0 -0.77917187248E+02  0.68472958296E+02 -0.20551604462E+03  0.28562107717E+03  0.16906484270E+03 0.  0.
         24    2    3    3    0    0  0.47144848344E+01  0.15237327063E+02 -0.33113825230E+02  0.87110017232E+02  0.78976117767E+02 0.  0.
         -6    2    1    2    0  502  0.77917187248E+02 -0.68472958296E+02  0.13243906538E+03  0.24122262745E+03  0.17288324345E+03 0.  0.
        -24    2    5    5    0    0  0.28423953522E+02  0.29025971156E+02  0.81793160502E+02  0.12062943066E+03  0.78809328776E+02 0.  0.
          5    1    3    3  501    0 -0.82631672082E+02  0.53235631233E+02 -0.17240221939E+03  0.19851105993E+03  0.47000000000E+01 0. -1.
        -13    1    4    4    0    0 -0.65797495277E+01 -0.26668123574E+02 -0.33988904660E+02  0.43700429733E+02  0.00000000000E+00 0.  1.
         14    1    4    4    0    0  0.11294234362E+02  0.41905450637E+02  0.87507943074E+00  0.43409587500E+02  0.00000000000E+00 0. -1.
         -5    1    5    5    0  502  0.49493233726E+02 -0.97498929452E+02  0.50645904878E+02  0.12059319678E+03  0.47000000000E+01 0.  1.
         13    1    6    6    0    0 -0.98254655231E+01  0.29905572920E+02  0.75574096839E+02  0.81867741984E+02  0.00000000000E+00 0. -1.
        -14    1    6    6    0    0  0.38249419045E+02 -0.87960176438E+00  0.62190636629E+01  0.38761688681E+02  0.00000000000E+00 0.  1.
</event>
<event>
12    1  0.8113184E-002  0.3491670E+03  0.7818608E-02  0.1063648E+00
         21   -1    0    0  503  502  0.00000000000E+00  0.00000000000E+00  0.80475061567E+03  0.80475061567E+03  0.00000000000E+00 0.  1.
         21   -1    0    0  501  503 -0.00000000000E+00 -0.00000000000E+00 -0.37605680849E+03  0.37605680849E+03  0.00000000000E+00 0. -1.
          6    2    1    2  501    0 -0.22214794944E+03  0.20916190247E+03 -0.24397034148E+03  0.42595670120E+03  0.16976210087E+03 0.  0.
         24    2    3    3    0    0 -0.31288107138E+02  0.82401453002E+02 -0.95543608480E+02  0.15292139941E+03  0.80544572581E+02 0.  0.
         -6    2    1    2    0  502  0.22214794944E+03 -0.20916190247E+03  0.67266414866E+03  0.75485072295E+03  0.15564107479E+03 0.  0.
        -24    2    5    5    0    0  0.23345509868E+03 -0.19004260889E+03  0.56833118496E+03  0.64807593039E+03  0.79903688669E+02 0.  0.
          5    1    3    3  501    0 -0.19085984230E+03  0.12676044947E+03 -0.14842673300E+03  0.27303530179E+03  0.47000000000E+01 0. -1.
        -13    1    4    4    0    0  0.15024568971E+02 -0.60042763265E+01 -0.23069327971E+01  0.16343529176E+02  0.00000000000E+00 0.  1.
         14    1    4    4    0    0 -0.46312676109E+02  0.88405729329E+02 -0.93236675683E+02  0.13657787024E+03  0.00000000000E+00 0. -1.
         -5    1    5    5    0  502 -0.11307149245E+02 -0.19119293581E+02  0.10433296371E+03  0.10677479256E+03  0.47000000000E+01 0.  1.
         11    1    6    6    0    0  0.49676317751E+02 -0.98771143673E+01  0.61710199159E+02  0.79833843787E+02  0.00000000000E+00 0. -1.
        -12    1    6    6    0    0  0.18377878093E+03 -0.18016549452E+03  0.50662098580E+03  0.56824208660E+03  0.00000000000E+00 0.  1.
</event>
<event>
12    1  0.8113184E-002  0.2124109E+03  0.7818608E-02  0.1139769E+00
         21   -1    0    0  501  502  0.00000000000E+00  0.00000000000E+00  0.19789924674E+03  0.19789924674E+03  0.00000000000E+00 0. -1.
         21   -1    0    0  502  503 -0.00000000000E+00 -0.00000000000E+00 -0.26448324785E+03  0.26448324785E+03  0.00000000000E+00 0.  1.
         -6    2    1    2    0  503  0.15215722897E+01 -0.12411949952E+03 -0.11977378757E+03  0.24341321818E+03  0.17174477941E+03 0.  0.
        -24    2    3    3    0    0  0.29208645834E+02 -0.23422970628E+02 -0.45775675946E+01  0.87854148795E+02  0.79344922905E+02 0.  0.
          6    2    1    2  501    0 -0.15215722897E+01  0.12411949952E+03  0.53189786450E+02  0.21896927642E+03  0.17236712357E+03 0.  0.
         24    2    5    5    0    0 -0.11411987195E+02  0.15755257929E+03  0.41919982665E+02  0.18202757089E+03  0.80148006372E+02 0.  0.
          5    1    5    5  501    0  0.98904149051E+01 -0.33433079770E+02  0.11269803785E+02  0.36941705527E+02  0.47000000000E+01 0. -1.
        -13    1    6    6    0    0  0.28323877184E+02  0.81513737372E+02 -0.54944066354E+00  0.86296195073E+02  0.00000000000E+00 0.  1.
         14    1    6    6    0    0 -0.39735864379E+02  0.76038841915E+02  0.42469423328E+02  0.95731375815E+02  0.00000000000E+00 0. -1.
         -5    1    3    3    0  503 -0.27687073545E+02 -0.10069652889E+03 -0.11519621997E+03  0.15555906938E+03  0.47000000000E+01 0.  1.
         13    1    4    4    0    0  0.45049581057E+02  0.12825453401E+02  0.51359461577E+01  0.47120430296E+02  0.00000000000E+00 0. -1.
        -14    1    4    4    0    0 -0.15840935222E+02 -0.36248424029E+02 -0.97135137522E+01  0.40733718499E+02  0.00000000000E+00 0.  1.
</event>
<event>
12    1  0.8113184E-002  0.1785022E+03  0.7818608E-02  0.1170143E+00
         21   -1    0    0  501  502  0.00000000000E+00  0.00000000000E+00  0.51071423286E+03  0.51071423286E+03  0.00000000000E+00 0. -1.
         21   -1    0    0  502  503 -0.00000000000E+00 -0.00000000000E+00 -0.18730537427E+03  0.18730537427E+03  0.00000000000E+00 0. -1.
         -6    2    1    2    0  503 -0.33928527861E+02  0.33911184741E+02 -0.12525391080E+03  0.21515181129E+03  0.16822795926E+03 0.  0.
        -24    2    3    3    0    0 -0.64986496835E+02  0.70628748795E+02 -0.10247512869E+03  0.16173140450E+03  0.80275963241E+02 0.  0.
          6    2    1    2  501    0  0.33928527861E+02 -0.33911184741E+02  0.44866276940E+03  0.48286779584E+03  0.17193578501E+03 0.  0.
         24    2    5    5    0    0  0.20201876931E+02 -0.28852653421E+02  0.95597298167E+02  0.12946812598E+03  0.79890930566E+02 0.  0.
          5    1    5    5  501    0  0.13726650930E+02 -0.50585313196E+01  0.35306547123E+03  0.35339966986E+03  0.47000000000E+01 0. -1.
        -13    1    6    6    0    0 -0.23572486022E+02 -0.35506789990E+02  0.53192630973E+02  0.68160474048E+02  0.00000000000E+00 0.  1.
         14    1    6    6    0    0  0.43774362953E+02  0.66541365681E+01  0.42404667194E+02  0.61307651931E+02  0.00000000000E+00 0. -1.
         -5    1    3    3    0  503  0.31057968974E+02 -0.36717564054E+02 -0.22778782110E+02  0.53420406787E+02  0.47000000000E+01 0.  1.
         13    1    4    4    0    0 -0.38158799613E+02  0.86082383270E+02 -0.77544596208E+02  0.12198128995E+03  0.00000000000E+00 0. -1.
        -14    1    4    4    0    0 -0.26827697222E+02 -0.15453634475E+02 -0.24930532483E+02  0.39750114548E+02  0.00000000000E+00 0.  1.
</event>
<event>
12    1  0.8113184E-002  0.1803469E+03  0.7818608E-02  0.1167626E+00
         21   -1    0    0  501  502  0.00000000000E+00  0.00000000000E+00  0.15739874693E+03  0.15739874693E+03  0.00000000000E+00 0.  1.
         21   -1    0    0  502  503 -0.00000000000E+00 -0.00000000000E+00 -0.21126121179E+03  0.21126121179E+03  0.00000000000E+00 0.  1.
         -6    2    1    2    0  503 -0.13863869111E+02  0.50461631451E+02  0.24022348432E+01  0.18036290228E+03  0.17258743486E+03 0.  0.
        -24    2    3    3    0    0 -0.70746206262E+02  0.51418096881E+02 -0.63057352249E+00  0.12319820135E+03  0.86767233481E+02 0.  0.
          6    2    1    2  501    0  0.13863869111E+02 -0.50461631451E+02 -0.56264699702E+02  0.18829705643E+03  0.17190544469E+03 0.  0.
         24    2    5    5    0    0  0.51623853283E+02 -0.78995708844E+02 -0.12543486152E+02  0.12369330660E+03  0.78976900485E+02 0.  0.
          5    1    5    5  501    0 -0.37759984173E+02  0.28534077393E+02 -0.43721213549E+02  0.64603749827E+02  0.47000000000E+01 0. -1.
        -11    1    6    6    0    0  0.34975944526E+02 -0.35411530091E+02 -0.44806167122E+02  0.66969289761E+02  0.00000000000E+00 0.  1.
         12    1    6    6    0    0  0.16647908757E+02 -0.43584178753E+02  0.32262680969E+02  0.56724016844E+02  0.00000000000E+00 0. -1.
         -5    1    3    3    0  503  0.56882337151E+02 -0.95646543037E+00  0.30328083657E+01  0.57164700930E+02  0.47000000000E+01 0.  1.
         13    1    4    4    0    0 -0.41636044671E+02  0.45525087938E+01 -0.38007744065E+02  0.56558590515E+02  0.00000000000E+00 0. -1.
        -14    1    4    4    0    0 -0.29110161590E+02  0.46865588088E+02  0.37377170543E+02  0.66639610836E+02  0.00000000000E+00 0.  1.
</event>
<event>
12    1  0.8113184E-002  0.1875785E+03  0.7818608E-02  0.1163035E+00
         21   -1    0    0  503  502  0.00000000000E+00  0.00000000000E+00  0.19416728291E+03  0.19416728291E+03  0.00000000000E+00 0. -1.
         21   -1    0    0  501  503 -0.00000000000E+00 -0.00000000000E+00 -0.30076760293E+03  0.30076760293E+03  0.00000000000E+00 0. -1.
          6    2    1    2  501    0 -0.64216443984E+02 -0.31748150309E+02 -0.21624813889E+03  0.28626726885E+03  0.17336088057E+03 0.  0.
         24    2    3    3    0    0 -0.10877521624E+03 -0.11876076602E+02 -0.13033260132E+03  0.18735340180E+03  0.78368497087E+02 0.  0.
         -6    2    1    2    0  502  0.64216443984E+02  0.31748150309E+02  0.10964781887E+03  0.20866761699E+03  0.16244332388E+03 0.  0.
        -24    2    5    5    0    0 -0.20354633232E+02  0.41086200080E+02  0.54296589569E+02  0.10705406052E+03  0.80062883430E+02 0.  0.
          5    1    3    3  501    0  0.44558772254E+02 -0.19872073707E+02 -0.85915537570E+02  0.98913867046E+02  0.47000000000E+01 0. -1.
        -13    1    4    4    0    0 -0.98836660144E+02  0.14846704975E+02 -0.12187271741E+03  0.15761367100E+03  0.00000000000E+00 0.  1.
         14    1    4    4    0    0 -0.99385560938E+01 -0.26722781576E+02 -0.84598839162E+01  0.29739730804E+02  0.00000000000E+00 0. -1.
         -5    1    5    5    0  502  0.84571077216E+02 -0.93380497709E+01  0.55351229301E+02  0.10161355648E+03  0.47000000000E+01 0.  1.
         13    1    6    6    0    0  0.11854141678E+02 -0.50486428568E+01  0.48855453803E+02  0.50525882831E+02  0.00000000000E+00 0. -1.
        -14    1    6    6    0    0 -0.32208774910E+02  0.46134842937E+02  0.54411357668E+01  0.56528177685E+02  0.00000000000E+00 0.  1.
</event>
<event>
12    1  0.8113184E-002  0.1831297E+03  0.7818608E-02  0.1164982E+00
         21   -1    0    0  503  502  0.00000000000E+00  0.00000000000E+00  0.11794849349E+03  0.11794849349E+03  0.00000000000E+00 0.  1.
         21   -1    0    0  501  503 -0.00000000000E+00 -0.00000000000E+00 -0.36513493284E+03  0.36513493284E+03  0.00000000000E+00 0.  1.
          6    2    1    2  501    0 -0.53207601253E+02  0.16917565183E+02 -0.23821156849E+03  0.30046839286E+03  0.17441115477E+03 0.  0.
         24    2    3    3    0    0 -0.54788555286E+02  0.60617309616E+02 -0.87935945597E+02  0.14388927576E+03  0.79341975868E+02 0.  0.
         -6    2    1    2    0  502  0.53207601253E+02 -0.16917565183E+02 -0.89748708692E+01  0.18261503346E+03  0.17363884732E+03 0.  0.
        -24    2    5    5    0    0 -0.81654169875E+01  0.37778085185E+02 -0.36576353301E+02  0.95769231207E+02  0.79624482858E+02 0.  0.
          5    1    3    3  501    0  0.15809540321E+01 -0.43699744433E+02 -0.15027562289E+03  0.15657911711E+03  0.47000000000E+01 0. -1.
        -13    1    4    4    0    0 -0.43588680131E+02  0.14856126379E+02 -0.85015935341E+02  0.96687055951E+02  0.00000000000E+00 0.  1.
         14    1    4    4    0    0 -0.11199875155E+02  0.45761183237E+02 -0.29200102556E+01  0.47202219806E+02  0.00000000000E+00 0. -1.
         -5    1    5    5    0  502  0.61373018241E+02 -0.54695650368E+02  0.27601482432E+02  0.86845802256E+02  0.47000000000E+01 0.  1.
         13    1    6    6    0    0  0.23246384610E+02  0.33338923754E+01 -0.42720136517E+02  0.48749556920E+02  0.00000000000E+00 0. -1.
        -14    1    6    6    0    0 -0.31411801597E+02  0.34444192809E+02  0.61437832163E+01  0.47019674287E+02  0.00000000000E+00 0.  1.
</event>
<event>
12    1  0.8113184E-002  0.1797095E+03  0.7818608E-02  0.1168513E+00
         21   -1    0    0  501  502  0.00000000000E+00  0.00000000000E+00  0.17439774241E+03  0.17439774241E+03  0.00000000000E+00 0. -1.
         21   -1    0    0  502  503 -0.00000000000E+00 -0.00000000000E+00 -0.31891850546E+03  0.31891850546E+03  0.00000000000E+00 0. -1.
         -6    2    1    2    0  503 -0.22801532990E+02 -0.50127050080E+02 -0.23285833701E+03  0.29306878281E+03  0.16921487904E+03 0.  0.
        -24    2    3    3    0    0  0.92728841108E+01 -0.55980033421E+02 -0.24138704058E+03  0.25904152270E+03  0.74933681360E+02 0.  0.
          6    2    1    2  501    0  0.22801532990E+02  0.50127050080E+02  0.88337573958E+02  0.20024746506E+03  0.17106399164E+03 0.  0.
         24    2    5    5    0    0 -0.16454734803E+02  0.78424600496E+02  0.15236924459E+02  0.11245452185E+03  0.77412397959E+02 0.  0.
          5    1    5    5  501    0  0.39256267794E+02 -0.28297550416E+02  0.73100649499E+02  0.87792943212E+02  0.47000000000E+01 0. -1.
        -13    1    6    6    0    0 -0.41841176128E+02  0.52986009150E+02 -0.10397306046E+02  0.68310359086E+02  0.00000000000E+00 0.  1.
         14    1    6    6    0    0  0.25386441325E+02  0.25438591346E+02  0.25634230505E+02  0.44144162767E+02  0.00000000000E+00 0. -1.
         -5    1    3    3    0  503 -0.32074417101E+02  0.58529833410E+01  0.85287035686E+01  0.34027260115E+02  0.47000000000E+01 0.  1.
         13    1    4    4    0    0 -0.15209527885E+02 -0.65459601820E+02 -0.18541624950E+03  0.19721935703E+03  0.00000000000E+00 0. -1.
        -14    1    4    4    0    0  0.24482411996E+02  0.94795683988E+01 -0.55970791078E+02  0.61822165670E+02  0.00000000000E+00 0.  1.
</event>
<event>
12    1  0.8113184E-002  0.2049460E+03  0.7818608E-02  0.1145832E+00
         21   -1    0    0  501  502  0.00000000000E+00  0.00000000000E+00  0.27732666805E+03  0.27732666805E+03  0.00000000000E+00 0.  1.
         21   -1    0    0  502  503 -0.00000000000E+00 -0.00000000000E+00 -0.41639096154E+03  0.41639096154E+03  0.00000000000E+00 0.  1.
         -6    2    1    2    0  503 -0.64113487058E+02 -0.90779288898E+02 -0.34664486479E+03  0.40269780593E+03  0.17219594102E+03 0.  0.
        -24    2    3    3    0    0  0.19312703655E+02 -0.64360491861E+02 -0.11370420429E+03  0.15381766722E+03  0.78841456354E+02 0.  0.
          6    2    1    2  501    0  0.64113487058E+02  0.90779288898E+02  0.20758057130E+03  0.29101982365E+03  0.17103048168E+03 0.  0.
         24    2    5    5    0    0  0.73472525492E+01 -0.11890373002E+02  0.11842442517E+03  0.14359400079E+03  0.79997059290E+02 0.  0.
          5    1    5    5  501    0  0.56766234509E+02  0.10266966190E+03  0.89156146129E+02  0.14742582286E+03  0.47000000000E+01 0. -1.
        -13    1    6    6    0    0  0.41416132014E+02 -0.46467998277E+01  0.39923064719E+02  0.57712562205E+02  0.00000000000E+00 0.  1.
         14    1    6    6    0    0 -0.34068879465E+02 -0.72435731739E+01  0.78501360449E+02  0.85881438581E+02  0.00000000000E+00 0. -1.
         -5    1    3    3    0  503 -0.83426190713E+02 -0.26418797037E+02 -0.23294066050E+03  0.24888013872E+03  0.47000000000E+01 0.  1.
         13    1    4    4    0    0  0.69934903042E+01 -0.26988596147E+02  0.53854098586E+01  0.28395349407E+02  0.00000000000E+00 0. -1.
        -14    1    4    4    0    0  0.12319213351E+02 -0.37371895714E+02 -0.11908961415E+03  0.12542231781E+03  0.00000000000E+00 0.  1.
</event>
<event>
12    1  0.8113184E-002  0.1805376E+03  0.7818608E-02  0.1167629E+00
         21   -1    0    0  503  502  0.00000000000E+00  0.00000000000E+00  0.14811770789E+03  0.14811770789E+03  0.00000000000E+00 0. -1.
         21   -1    0    0  501  503 -0.00000000000E+00 -0.00000000000E+00 -0.25022139857E+03  0.25022139857E+03  0.00000000000E+00 0. -1.
          6    2    1    2  501    0 -0.24642007311E+02 -0.49458132770E+02  0.19888277303E+02  0.18162974945E+03  0.17187346186E+03 0.  0.
         24    2    3    3    0    0  0.28528807010E+02  0.27689787283E+02 -0.19416734189E+01  0.85309586391E+02  0.75454213171E+02 0.  0.
         -6    2    1    2    0  502  0.24642007311E+02  0.49458132770E+02 -0.12199196798E+03  0.21670935700E+03  0.17037479197E+03 0.  0.
        -24    2    5    5    0    0  0.38789119546E+01  0.22665585154E+02  0.78314616796E+01  0.82451546710E+02  0.78791820987E+02 0.  0.
          5    1    3    3  501    0 -0.53170814321E+02 -0.77147920053E+02  0.21829950722E+02  0.96320163064E+02  0.47000000000E+01 0. -1.
        -13    1    4    4    0    0 -0.18817338902E+02  0.26348352589E+01 -0.21123455340E+02  0.28411880713E+02  0.00000000000E+00 0.  1.
         14    1    4    4    0    0  0.47346145912E+02  0.25054952024E+02  0.19181781921E+02  0.56897705677E+02  0.00000000000E+00 0. -1.
         -5    1    5    5    0  502  0.20763095356E+02  0.26792547617E+02 -0.12982342966E+03  0.13425781029E+03  0.47000000000E+01 0.  1.
         11    1    6    6    0    0 -0.35484578800E+02 -0.21048998820E+01  0.24236620039E+01  0.35629483208E+02  0.00000000000E+00 0. -1.
        -12    1    6    6    0    0  0.39363490755E+02  0.24770485036E+02  0.54077996757E+01  0.46822063502E+02  0.00000000000E+00 0.  1.
</event>
<event>
12    1  0.8113184E-002  0.1932913E+03  0.7818608E-02  0.1155566E+00
         21   -1    0    0  503  502  0.00000000000E+00  0.00000000000E+00  0.13566759523E+03  0.13566759523E+03  0.00000000000E+00 0.  1.
         21   -1    0    0  501  503 -0.00000000000E+00 -0.00000000000E+00 -0.50690706699E+03  0.50690706699E+03  0.00000000000E+00 0.  1.
          6    2    1    2  501    0 -0.50208575202E+02  0.68540400533E+02 -0.40292059022E+03  0.44688535052E+03  0.17361689708E+03 0.  0.
         24    2    3    3    0    0 -0.54545563259E+02 -0.33025745925E+01 -0.33246032679E+03  0.34605399992E+03  0.78977063127E+02 0.  0.
         -6    2    1    2    0  502  0.50208575202E+02 -0.68540400533E+02  0.31681118462E+02  0.19568931170E+03  0.17341258870E+03 0.  0.
        -24    2    5    5    0    0 -0.26719725727E+02 -0.78419099146E+02  0.49068787133E+02  0.11606536309E+03  0.64806818974E+02 0.  0.
          5    1    3    3  501    0  0.43369880570E+01  0.71842975125E+02 -0.70460263435E+02  0.10083135060E+03  0.47000000000E+01 0. -1.
        -13    1    4    4    0    0 -0.10422972022E+02  0.32957340662E+02 -0.17909832114E+03  0.18240349033E+03  0.00000000000E+00 0.  1.
         14    1    4    4    0    0 -0.44122591237E+02 -0.36259915255E+02 -0.15336200565E+03  0.16365050959E+03  0.00000000000E+00 0. -1.
         -5    1    5    5    0  502  0.76928300929E+02  0.98786986132E+01 -0.17387668671E+02  0.79623948608E+02  0.47000000000E+01 0.  1.
         11    1    6    6    0    0 -0.19431800044E+02  0.56760497826E+01  0.50381074660E+01  0.20861325962E+02  0.00000000000E+00 0. -1.
        -12    1    6    6    0    0 -0.72879256839E+01 -0.84095148929E+02  0.44030679667E+02  0.95204037131E+02  0.00000000000E+00 0.  1.
</event>
<event>
12    1  0.8113184E-002  0.1757274E+03  0.7818608E-02  0.1172160E+00
         21   -1    0    0  501  502  0.00000000000E+00  0.00000000000E+00  0.11234319536E+03  0.11234319536E+03  0.00000000000E+00 0. -1.
         21   -1    0    0  502  503 -0.00000000000E+00 -0.00000000000E+00 -0.31025512346E+03  0.31025512346E+03  0.00000000000E+00 0. -1.
         -6    2    1    2    0  503  0.29760076509E+02  0.19090185486E+02 -0.17113732128E+03  0.24484282343E+03  0.17149323052E+03 0.  0.
        -24    2    3    3    0    0  0.14934261589E+00  0.74262948849E+02 -0.12855123493E+03  0.16897126005E+03  0.80689893079E+02 0.  0.
          6    2    1    2  501    0 -0.29760076509E+02 -0.19090185486E+02 -0.26774606821E+02  0.17775549538E+03  0.17213378295E+03 0.  0.
         24    2    5    5    0    0  0.16992932787E+02  0.39984838747E+02  0.34001472133E+01  0.96463994307E+02  0.86059247628E+02 0.  0.
          5    1    5    5  501    0 -0.46753009297E+02 -0.59075024232E+02 -0.30174754034E+02  0.81291501077E+02  0.47000000000E+01 0. -1.
        -11    1    6    6    0    0  0.36289665931E+02  0.39460230889E+02 -0.27329379665E+02  0.60174285771E+02  0.00000000000E+00 0.  1.
         12    1    6    6    0    0 -0.19296733144E+02  0.52460785758E+00  0.30729526879E+02  0.36289708536E+02  0.00000000000E+00 0. -1.
         -5    1    3    3    0  503  0.29610733894E+02 -0.55172763364E+02 -0.42586086344E+02  0.75871563375E+02  0.47000000000E+01 0.  1.
         11    1    4    4    0    0  0.25753935098E+02  0.77916747937E+02 -0.10955062536E+03  0.13687813667E+03  0.00000000000E+00 0. -1.
        -12    1    4    4    0    0 -0.25604592483E+02 -0.36537990879E+01 -0.19000609573E+02  0.32093123378E+02  0.00000000000E+00 0.  1.
</event>
<event>
12    1  0.8113184E-002  0.1870916E+03  0.7818608E-02  0.1161610E+00
         21   -1    0    0  503  502  0.00000000000E+00  0.00000000000E+00  0.33706905716E+03  0.33706905716E+03  0.00000000000E+00 0.  1.
         21   -1    0    0  501  503 -0.00000000000E+00 -0.00000000000E+00 -0.13440492535E+03  0.13440492535E+03  0.00000000000E+00 0.  1.
          6    2    1    2  501    0 -0.34449770676E+02 -0.58199580758E+02 -0.12795876887E+02  0.18752866821E+03  0.17443992959E+03 0.  0.
         24    2    3    3    0    0  0.23570537007E+02 -0.88194333158E+02 -0.20645837991E+01  0.12117136322E+03  0.79651906077E+02 0.  0.
         -6    2    1    2    0  502  0.34449770676E+02  0.58199580758E+02  0.21546000870E+03  0.28394531429E+03  0.17212770916E+03 0.  0.
        -24    2    5    5    0    0 -0.34258216995E+02  0.10831232724E+02  0.58048104915E+02  0.10571752348E+03  0.80719707960E+02 0.  0.
          5    1    3    3  501    0 -0.58020307683E+02  0.29994752400E+02 -0.10731293088E+02  0.66357304998E+02  0.47000000000E+01 0. -1.
        -11    1    4    4    0    0 -0.22405401065E+02 -0.19500107950E+02 -0.20992047046E+02  0.36371998105E+02  0.00000000000E+00 0.  1.
         12    1    4    4    0    0  0.45975938072E+02 -0.68694225208E+02  0.18927463247E+02  0.84799365112E+02  0.00000000000E+00 0. -1.
         -5    1    5    5    0  502  0.68707987672E+02  0.47368348034E+02  0.15741190378E+03  0.17822779081E+03  0.47000000000E+01 0.  1.
         13    1    6    6    0    0 -0.32270468668E+02 -0.86905121844E+01  0.73500010696E+02  0.80741313603E+02  0.00000000000E+00 0. -1.
        -14    1    6    6    0    0 -0.19877483269E+01  0.19521744908E+02 -0.15451905781E+02  0.24976209879E+02  0.00000000000E+00 0.  1.
</event>
<event>
12    1  0.8113184E-002  0.1896081E+03  0.7818608E-02  0.1159081E+00
         21   -1    0    0  503  502  0.00000000000E+00  0.00000000000E+00  0.42353900193E+03  0.42353900193E+03  0.00000000000E+00 0. -1.
         21   -1    0    0  501  503 -0.00000000000E+00 -0.00000000000E+00 -0.87039527288E+02  0.87039527288E+02  0.00000000000E+00 0.  1.
          6    2    1    2  501    0  0.76613656630E+01  0.79053236090E+02  0.12396289133E+03  0.22653485881E+03  0.17217181294E+03 0.  0.
         24    2    3    3    0    0 -0.17243843872E+02  0.10721430861E+03  0.13116415323E+03  0.18796980156E+03  0.79601212828E+02 0.  0.
         -6    2    1    2    0  502 -0.76613656630E+01 -0.79053236090E+02  0.21253658332E+03  0.28404367041E+03  0.17088269892E+03 0.  0.
        -24    2    5    5    0    0  0.47640811771E+02 -0.91284329011E+02  0.14418675612E+03  0.19515205472E+03  0.81804817395E+02 0.  0.
          5    1    3    3  501    0  0.24905209535E+02 -0.28161072523E+02 -0.72012619050E+01  0.38565057249E+02  0.47000000000E+01 0. -1.
        -13    1    4    4    0    0 -0.10944507686E+02  0.14071958858E+02 -0.86803300910E+01  0.19828020705E+02  0.00000000000E+00 0.  1.
         14    1    4    4    0    0 -0.62993361857E+01  0.93142349755E+02  0.13984448332E+03  0.16814178086E+03  0.00000000000E+00 0. -1.
         -5    1    5    5    0  502 -0.55302177434E+02  0.12231092921E+02  0.68349827194E+02  0.88891615693E+02  0.47000000000E+01 0.  1.
         11    1    6    6    0    0  0.21292457857E+02 -0.44426838959E+02  0.13077485640E+03  0.13974682769E+03  0.00000000000E+00 0. -1.
        -12    1    6    6    0    0  0.26348353914E+02 -0.46857490052E+02  0.13411899721E+02  0.55405227028E+02  0.00000000000E+00 0.  1.
</event>
<event>
12    1  0.8113184E-002  0.2411672E+03  0.7818608E-02  0.1119299E+00
         21   -1    0    0  501  502  0.00000000000E+00  0.00000000000E+00  0.65605879918E+03  0.65605879918E+03  0.00000000000E+00 0. -1.
         21   -1    0    0  502  503 -0.00000000000E+00 -0.00000000000E+00 -0.20692459167E+03  0.20692459167E+03  0.00000000000E+00 0.  1.
         -6    2    1    2    0  503 -0.43456845272E+02 -0.16088810031E+03 -0.10216846311E+03  0.26191605865E+03  0.17432196850E+03 0.  0.
        -24    2    3    3    0    0 -0.12126217282E+02 -0.18420131313E+03 -0.90210254616E+02  0.22080398144E+03  0.80866181306E+02 0.  0.
          6    2    1    2  501    0  0.43456845272E+02  0.16088810031E+03  0.55130267062E+03  0.60106733219E+03  0.17197041889E+03 0.  0.
         24    2    5    5    0    0 -0.13647974594E+02  0.14173191205E+03  0.28624674901E+03  0.32921323238E+03  0.78549022639E+02 0.  0.
          5    1    5    5  501    0  0.57104819866E+02  0.19156188268E+02  0.26505592161E+03  0.27185409981E+03  0.47000000000E+01 0. -1.
        -13    1    6    6    0    0  0.92091449639E+01  0.19782050541E+02  0.58486477401E+01  0.22590806869E+02  0.00000000000E+00 0.  1.
         14    1    6    6    0    0 -0.22857119558E+02  0.12194986150E+03  0.28039810127E+03  0.30662242552E+03  0.00000000000E+00 0. -1.
         -5    1    3    3    0  503 -0.31330627990E+02  0.23313212817E+02 -0.11958208489E+02  0.41112077208E+02  0.47000000000E+01 0.  1.
         13    1    4    4    0    0 -0.44169304424E+01  0.47322232178E+01  0.58386754592E+01  0.87174160297E+01  0.00000000000E+00 0. -1.
        -14    1    4    4    0    0 -0.77092868392E+01 -0.18893353635E+03 -0.96048930076E+02  0.21208656541E+03  0.00000000000E+00 0.  1.
</event>
<event>
12    1  0.8113184E-002  0.2076101E+03  0.7818608E-02  0.1144779E+00
         21   -1    0    0  503  502  0.00000000000E+00  0.00000000000E+00  0.51491279169E+03  0.51491279169E+03  0.00000000000E+00 0. -1.
         21   -1    0    0  501  503 -0.00000000000E+00 -0.00000000000E+00 -0.19219139884E+03  0.19219139884E+03  0.00000000000E+00 0. -1.
          6    2    1    2  501    0 -0.96539514890E+02  0.40524468127E+01 -0.10629796956E+03  0.23324065414E+03  0.18375430376E+03 0.  0.
         24    2    3    3    0    0 -0.15482201282E+02  0.60275534608E+02 -0.85258479614E+02  0.13226504407E+03  0.79700658145E+02 0.  0.
         -6    2    1    2    0  502  0.96539514890E+02 -0.40524468127E+01  0.42901936241E+03  0.47386353639E+03  0.17650138111E+03 0.  0.
        -24    2    5    5    0    0  0.29450038740E+02  0.60751512343E+02  0.19882765300E+03  0.22544682195E+03  0.82071815474E+02 0.  0.
          5    1    3    3  501    0 -0.81057313608E+02 -0.56223087796E+02 -0.21039489951E+02  0.10097561007E+03  0.47000000000E+01 0. -1.
        -11    1    4    4    0    0 -0.19228264619E+02 -0.19895738674E+01  0.72882017180E+01  0.20659197678E+02  0.00000000000E+00 0.  1.
         12    1    4    4    0    0  0.37460633371E+01  0.62265108476E+02 -0.92546681332E+02  0.11160584639E+03  0.00000000000E+00 0. -1.
         -5    1    5    5    0  502  0.67089476150E+02 -0.64803959156E+02  0.23019170941E+03  0.24841671444E+03  0.47000000000E+01 0.  1.
         13    1    6    6    0    0  0.68079997684E+01 -0.10083304248E+02  0.10509627299E+03  0.10579814971E+03  0.00000000000E+00 0. -1.
        -14    1    6    6    0    0  0.22642038972E+02  0.70834816591E+02  0.93731380016E+02  0.11964867224E+03  0.00000000000E+00 0.  1.
</event>
<event>
12    1  0.8113184E-002  0.2017933E+03  0.7818608E-02  0.1148384E+00
         21   -1    0    0  503  502  0.00000000000E+00  0.00000000000E+00  0.41037759876E+02  0.41037759876E+02  0.00000000000E+00 0. -1.
         21   -1    0    0  501  503 -0.00000000000E+00 -0.00000000000E+00 -0.15578258431E+04  0.15578258431E+04  0.00000000000E+00 0. -1.
          6    2    1    2  501    0  0.96245684030E+02 -0.39297606333E+02 -0.12407115658E+04  0.12569004800E+04  0.17212232141E+03 0.  0.
         24    2    3    3    0    0  0.92800136382E+02  0.12312341783E+02 -0.11015889510E+04  0.11083991315E+04  0.79290344714E+02 0.  0.
         -6    2    1    2    0  502 -0.96245684030E+02  0.39297606333E+02 -0.27607651734E+03  0.34196312290E+03  0.17295375232E+03 0.  0.
        -24    2    5    5    0    0 -0.17839018995E+02 -0.36767922172E+02 -0.15072563623E+03  0.17562460318E+03  0.80347203599E+02 0.  0.
          5    1    3    3  501    0  0.34455476479E+01 -0.51609948116E+02 -0.13912261489E+03  0.14850134854E+03  0.47000000000E+01 0. -1.
        -13    1    4    4    0    0  0.26081708558E+02  0.36396867756E+02 -0.61995329427E+03  0.62156823808E+03  0.00000000000E+00 0.  1.
         14    1    4    4    0    0  0.66718427824E+02 -0.24084525974E+02 -0.48163565668E+03  0.48683089342E+03  0.00000000000E+00 0. -1.
         -5    1    5    5    0  502 -0.78406665035E+02  0.76065528505E+02 -0.12535088111E+03  0.16633851973E+03  0.47000000000E+01 0.  1.
         11    1    6    6    0    0 -0.39686291168E+02  0.76989065921E+01 -0.73164871285E+02  0.83590509386E+02  0.00000000000E+00 0. -1.
        -12    1    6    6    0    0  0.21847272173E+02 -0.44466828764E+02 -0.77560764941E+02  0.92034093791E+02  0.00000000000E+00 0.  1.
</event>
<event>
12    1  0.8113184E-002  0.1740057E+03  0.7818608E-02  0.1176393E+00
         21   -1    0    0  501  502  0.00000000000E+00  0.00000000000E+00  0.38974309943E+02  0.38974309943E+02  0.00000000000E+00 0.  1.
         21   -1    0    0  502  503 -0.00000000000E+00 -0.00000000000E+00 -0.80268471102E+03  0.80268471102E+03  0.00000000000E+00 0.  1.
         -6    2    1    2    0  503 -0.12172629268E+02  0.18181937704E+02 -0.51710799055E+03  0.54559935610E+03  0.17262452816E+03 0.  0.
        -24    2    3    3    0    0  0.51781574715E+02  0.40073451884E+02 -0.26582042527E+03  0.28533620261E+03  0.80430323897E+02 0.  0.
          6    2    1    2  501    0  0.12172629268E+02 -0.18181937704E+02 -0.24660241052E+03  0.29605966486E+03  0.16235707721E+03 0.  0.
         24    2    5    5    0    0  0.34192587364E+02 -0.65123117657E+02 -0.12146163046E+03  0.16052126527E+03  0.74859838662E+02 0.  0.
          5    1    5    5  501    0 -0.22019958097E+02  0.46941179953E+02 -0.12514078006E+03  0.13553839959E+03  0.47000000000E+01 0. -1.
        -11    1    6    6    0    0 -0.99109089397E+01 -0.59275540917E+02 -0.63159755801E+02  0.87183545580E+02  0.00000000000E+00 0.  1.
         12    1    6    6    0    0  0.44103496304E+02 -0.58475767399E+01 -0.58301874659E+02  0.73337719686E+02  0.00000000000E+00 0. -1.
         -5    1    3    3    0  503 -0.63954203983E+02 -0.21891514180E+02 -0.25128756528E+03  0.26026315349E+03  0.47000000000E+01 0.  1.
         13    1    4    4    0    0  0.21663063271E+02 -0.23631620510E+02 -0.64253127552E+02  0.71806728086E+02  0.00000000000E+00 0. -1.
        -14    1    4    4    0    0  0.30118511444E+02  0.63705072394E+02 -0.20156729772E+03  0.21352947453E+03  0.00000000000E+00 0.  1.
</event>
<event>
12    1  0.8113184E-002  0.2053560E+03  0.7818608E-02  0.1145428E+00
         21   -1    0    0  503  502  0.00000000000E+00  0.00000000000E+00  0.21336470342E+03  0.21336470342E+03  0.00000000000E+00 0.  1.
         21   -1    0    0  501  503 -0.00000000000E+00 -0.00000000000E+00 -0.19756907427E+03  0.19756907427E+03  0.00000000000E+00 0.  1.
          6    2    1    2  501    0 -0.10942170650E+03  0.40677833294E+01  0.18592272401E+02  0.20555873060E+03  0.17297127628E+03 0.  0.
         24    2    3    3    0    0 -0.93696878835E+02 -0.88963939714E+01 -0.49458373166E+02  0.13436659297E+03  0.82158381809E+02 0.  0.
         -6    2    1    2    0  502  0.10942170650E+03 -0.40677833294E+01 -0.27966432526E+01  0.20537504710E+03  0.17372804046E+03 0.  0.
        -24    2    5    5    0    0  0.53022089137E+02  0.57350145508E+02  0.29963262806E+02  0.11566228175E+03  0.79872305434E+02 0.  0.
          5    1    3    3  501    0 -0.15724827664E+02  0.12964177301E+02  0.68050645566E+02  0.71192137629E+02  0.47000000000E+01 0. -1.
        -11    1    4    4    0    0 -0.75856067051E+02  0.27947564882E+02 -0.18208648583E+02  0.82865940980E+02  0.00000000000E+00 0.  1.
         12    1    4    4    0    0 -0.17840811784E+02 -0.36843958853E+02 -0.31249724582E+02  0.51500651992E+02  0.00000000000E+00 0. -1.
         -5    1    5    5    0  502  0.56399617363E+02 -0.61417928837E+02 -0.32759906059E+02  0.89712765347E+02  0.47000000000E+01 0.  1.
         11    1    6    6    0    0  0.16895257669E+02  0.28112562414E+02 -0.26760246652E+02  0.42330564585E+02  0.00000000000E+00 0. -1.
        -12    1    6    6    0    0  0.36126831468E+02  0.29237583094E+02  0.56723509458E+02  0.73331717165E+02  0.00000000000E+00 0.  1.
</event>
<event>
12    1  0.8113184E-002  0.4069371E+03  0.7818608E-02  0.1041436E+00
         21   -1    0    0  501  502  0.00000000000E+00  0.00000000000E+00  0.20426192218E+03  0.20426192218E+03  0.00000000000E+00 0.  1.
         21   -1    0    0  502  503 -0.00000000000E+00 -0.00000000000E+00 -0.81986893438E+03  0.81986893438E+03  0.00000000000E+00 0. -1.
         -6    2    1    2    0  503  0.36427868271E+03  0.51601869092E+02 -0.36424926360E+03  0.54614590008E+03  0.17388532592E+03 0.  0.
        -24    2    3    3    0    0  0.23060845987E+03 -0.70239701327E+01 -0.14692852736E+03  0.28431559263E+03  0.77574262105E+02 0.  0.
          6    2    1    2  501    0 -0.36427868271E+03 -0.51601869092E+02 -0.25135774860E+03  0.47798495648E+03  0.17299476660E+03 0.  0.
         24    2    5    5    0    0 -0.80611460226E+02 -0.39437359282E+02 -0.49862045654E+02  0.12979294521E+03  0.79413299904E+02 0.  0.
          5    1    5    5  501    0 -0.28366722249E+03 -0.12164509810E+02 -0.20149570295E+03  0.34819201128E+03  0.47000000000E+01 0. -1.
        -13    1    6    6    0    0 -0.90001027579E+02 -0.16705793770E+02 -0.51701142022E+02  0.10512980832E+03  0.00000000000E+00 0.  1.
         14    1    6    6    0    0  0.93895673527E+01 -0.22731565512E+02  0.18390963681E+01  0.24663136888E+02  0.00000000000E+00 0. -1.
         -5    1    3    3    0  503  0.13367022284E+03  0.58625839225E+02 -0.21732073624E+03  0.26183030745E+03  0.47000000000E+01 0.  1.
         13    1    4    4    0    0  0.11466801099E+02 -0.20065734783E+02 -0.21030691057E+02  0.31247579205E+02  0.00000000000E+00 0. -1.
        -14    1    4    4    0    0  0.21914165877E+03  0.13041764650E+02 -0.12589783630E+03  0.25306801343E+03  0.00000000000E+00 0.  1.
</event>
<event>
12    1  0.8113184E-002  0.1999870E+03  0.7818608E-02  0.1149761E+00
         21   -1    0    0  503  502  0.00000000000E+00  0.00000000000E+00  0.34001898505E+02  0.34001898505E+02  0.00000000000E+00 0.  1.
         21   -1    0    0  501  503 -0.00000000000E+00 -0.00000000000E+00 -0.13306737774E+04  0.13306737774E+04  0.00000000000E+00 0.  1.
          6    2    1    2  501    0  0.97693443345E+02 -0.32168356081E+02 -0.41573718195E+03  0.46133742378E+03  0.17151093879E+03 0.  0.
         24    2    3    3    0    0  0.79332035255E+02  0.33239453022E+02 -0.33735299128E+03  0.35750344984E+03  0.81260340046E+02 0.  0.
         -6    2    1    2    0  502 -0.97693443345E+02  0.32168356081E+02 -0.88093469698E+03  0.90333825215E+03  0.17145041691E+03 0.  0.
        -24    2    5    5    0    0 -0.20285524836E+02  0.49413750459E+02 -0.68718078510E+03  0.69392942273E+03  0.80420091133E+02 0.  0.
          5    1    3    3  501    0  0.18361408091E+02 -0.65407809103E+02 -0.78384190663E+02  0.10383397394E+03  0.47000000000E+01 0. -1.
        -13    1    4    4    0    0 -0.11972652854E+02 -0.34346051575E+01 -0.96902682057E+02  0.97699901324E+02  0.00000000000E+00 0.  1.
         14    1    4    4    0    0  0.91304688109E+02  0.36674058179E+02 -0.24045030923E+03  0.25980354851E+03  0.00000000000E+00 0. -1.
         -5    1    5    5    0  502 -0.77407918509E+02 -0.17245394377E+02 -0.19375391187E+03  0.20940882943E+03  0.47000000000E+01 0.  1.
         11    1    6    6    0    0 -0.17271066260E+02 -0.18872482526E+02 -0.26730038174E+03  0.26852179503E+03  0.00000000000E+00 0. -1.
        -12    1    6    6    0    0 -0.30144585766E+01  0.68286232985E+02 -0.41988040336E+03  0.42540762769E+03  0.00000000000E+00 0.  1.
</event>
<event>
12    1  0.8113184E-002  0.1834233E+03  0.7818608E-02  0.1165632E+00
         21   -1    0    0  501  502  0.00000000000E+00  0.00000000000E+00  0.13233287039E+03  0.13233287039E+03  0.00000000000E+00 0.  1.
         21   -1    0    0  502  503 -0.00000000000E+00 -0.00000000000E+00 -0.29010933148E+03  0.29010933148E+03  0.00000000000E+00 0.  1.
         -6    2    1    2    0  503 -0.44001841774E+02  0.24036182220E+02 -0.16030566143E+03  0.24360215994E+03  0.17643754449E+03 0.  0.
        -24    2    3    3    0    0  0.29362578580E+02  0.10433671101E+02 -0.24386900529E+02  0.88478447869E+02  0.79137173985E+02 0.  0.
          6    2    1    2  501    0  0.44001841774E+02 -0.24036182220E+02  0.25292003424E+01  0.17884004193E+03  0.17164924587E+03 0.  0.
         24    2    5    5    0    0  0.12390261666E+02 -0.80948186044E+02 -0.18894267196E+01  0.11341923147E+03  0.78448866948E+02 0.  0.
          5    1    5    5  501    0  0.31611580108E+02  0.56912003824E+02  0.44186270620E+01  0.65420810461E+02  0.47000000000E+01 0. -1.
        -13    1    6    6    0    0 -0.27994700690E+02 -0.10695985836E+02 -0.10895229743E+02  0.31887511833E+02  0.00000000000E+00 0.  1.
         14    1    6    6    0    0  0.40384962356E+02 -0.70252200208E+02  0.90058030237E+01  0.81531719635E+02  0.00000000000E+00 0. -1.
         -5    1    3    3    0  503 -0.73364420354E+02  0.13602511118E+02 -0.13591876090E+03  0.15512371207E+03  0.47000000000E+01 0.  1.
         11    1    4    4    0    0  0.12144097036E+02 -0.32855895131E+02 -0.22932530841E+02  0.41867528092E+02  0.00000000000E+00 0. -1.
        -12    1    4    4    0    0  0.17218481543E+02  0.43289566233E+02 -0.14543696875E+01  0.46610919777E+02  0.00000000000E+00 0.  1.
</event>
<event>
12    1  0.8113184E-002  0.2398895E+03  0.7818608E-02  0.1119888E+00
         21   -1    0    0  503  502  0.00000000000E+00  0.00000000000E+00  0.16713293316E+03  0.16713293316E+03  0.00000000000E+00 0. -1.
         21   -1    0    0  501  503 -0.00000000000E+00 -0.00000000000E+00 -0.37973740461E+03  0.37973740461E+03  0.00000000000E+00 0.  1.
          6    2    1    2  501    0  0.14834540890E+03 -0.78674784850E+02 -0.19000586669E+03  0.30591870023E+03  0.17113719544E+03 0.  0.
         24    2    3    3    0    0  0.12880075070E+03 -0.10927839700E+03 -0.19324196925E+03  0.26916088337E+03  0.81078486820E+02 0.  0.
         -6    2    1    2    0  502 -0.14834540890E+03  0.78674784850E+02 -0.22598604764E+02  0.24095163754E+03  0.17132108038E+03 0.  0.
        -24    2    5    5    0    0 -0.42506593671E+02  0.10259513126E+03 -0.12282906085E+01  0.13025918925E+03  0.68068907902E+02 0.  0.
          5    1    3    3  501    0  0.19544658199E+02  0.30603612147E+02  0.32361025646E+01  0.36757816861E+02  0.47000000000E+01 0. -1.
        -13    1    4    4    0    0  0.58196782310E+02 -0.10038599381E+03 -0.11423455196E+03  0.16283042126E+03  0.00000000000E+00 0.  1.
         14    1    4    4    0    0  0.70603968389E+02 -0.88924031897E+01 -0.79007417289E+02  0.10633046211E+03  0.00000000000E+00 0. -1.
         -5    1    5    5    0  502 -0.10583881523E+03 -0.23920346408E+02 -0.21370314155E+02  0.11069244829E+03  0.47000000000E+01 0.  1.
         11    1    6    6    0    0 -0.59467521174E+02  0.60885313894E+02  0.18423526417E+01  0.85128149197E+02  0.00000000000E+00 0. -1.
        -12    1    6    6    0    0  0.16960927503E+02  0.41709817364E+02 -0.30706432502E+01  0.45131040053E+02  0.00000000000E+00 0.  1.
</event>
<event>
12    1  0.8113184E-002  0.2447317E+03  0.7818608E-02  0.1116728E+00
         21   -1    0    0  501  502  0.00000000000E+00  0.00000000000E+00  0.81251128754E+02  0.81251128754E+02  0.00000000000E+00 0. -1.
         21   -1    0    0  502  503 -0.00000000000E+00 -0.00000000000E+00 -0.86676477308E+03  0.86676477308E+03  0.00000000000E+00 0.  1.
         -6    2    1    2    0  503  0.12661585438E+03  0.12045285095E+03 -0.57648413505E+03  0.62616662545E+03  0.17090997919E+03 0.  0.
        -24    2    3    3    0    0  0.90616085923E+02  0.15429588714E+03 -0.44640656972E+03  0.48694163692E+03  0.76255075026E+02 0.  0.
          6    2    1    2  501    0 -0.12661585438E+03 -0.12045285095E+03 -0.20902950927E+03  0.32184927638E+03  0.17132763081E+03 0.  0.
         24    2    5    5    0    0 -0.12956551157E+03 -0.30661264937E+02 -0.13380393664E+03  0.20457947560E+03  0.78879233147E+02 0.  0.
          5    1    5    5  501    0  0.29496571937E+01 -0.89791586010E+02 -0.75225572633E+02  0.11726980078E+03  0.47000000000E+01 0. -1.
        -13    1    6    6    0    0 -0.58019432667E+02 -0.10969009121E+02 -0.94945505454E+01  0.59805687173E+02  0.00000000000E+00 0.  1.
         14    1    6    6    0    0 -0.71546078902E+02 -0.19692255816E+02 -0.12430938609E+03  0.14477378843E+03  0.00000000000E+00 0. -1.
         -5    1    3    3    0  503  0.35999768453E+02 -0.33843036197E+02 -0.13007756533E+03  0.13922498853E+03  0.47000000000E+01 0.  1.
         11    1    4    4    0    0  0.16713504720E+02  0.39486502368E+02 -0.41653449680E+02  0.59779051343E+02  0.00000000000E+00 0. -1.
        -12    1    4    4    0    0  0.73902581203E+02  0.11480938478E+03 -0.40475312004E+03  0.42716258558E+03  0.00000000000E+00 0.  1.
</event>
<event>
12    1  0.8113184E-002  0.2056432E+03  0.7818608E-02  0.1145416E+00
         21   -1    0    0  501  502  0.00000000000E+00  0.00000000000E+00  0.84110759578E+03  0.84110759578E+03  0.00000000000E+00 0. -1.
         21   -1    0    0  502  503 -0.00000000000E+00 -0.00000000000E+00 -0.11002787379E+03  0.11002787379E+03  0.00000000000E+00 0.  1.
         -6    2    1    2    0  503  0.10924405024E+03  0.81886328288E+01  0.13158876550E+02  0.20434268180E+03  0.17199261424E+03 0.  0.
        -24    2    3    3    0    0  0.57050968787E+01 -0.41719329891E+01 -0.37900430765E+02  0.88143536731E+02  0.79264665898E+02 0.  0.
          6    2    1    2  501    0 -0.10924405024E+03 -0.81886328288E+01  0.71792084543E+03  0.74679278777E+03  0.17403393732E+03 0.  0.
         24    2    5    5    0    0  0.54328005997E+00 -0.40970109915E+02  0.35099020549E+03  0.36236065115E+03  0.80201446961E+02 0.  0.
          5    1    5    5  501    0 -0.10978733030E+03  0.32781477086E+02  0.36693063994E+03  0.38443213662E+03  0.47000000000E+01 0. -1.
        -11    1    6    6    0    0  0.41182949448E+01 -0.58815773796E+02  0.32686619143E+03  0.33214117887E+03  0.00000000000E+00 0.  1.
         12    1    6    6    0    0 -0.35750148848E+01  0.17845663881E+02  0.24124014058E+02  0.30219472283E+02  0.00000000000E+00 0. -1.
         -5    1    3    3    0  503  0.10353895337E+03  0.12360565818E+02  0.51059307315E+02  0.11619914507E+03  0.47000000000E+01 0.  1.
         13    1    4    4    0    0 -0.18963361605E+02  0.16095491106E+02  0.12994994055E+02  0.28063210575E+02  0.00000000000E+00 0. -1.
        -14    1    4    4    0    0  0.24668458484E+02 -0.20267424095E+02 -0.50895424820E+02  0.60080326156E+02  0.00000000000E+00 0.  1.
</event>
<event>
12    1  0.8113184E-002  0.1732548E+03  0.7818608E-02  0.1174689E+00
         21   -1    0    0  503  502  0.00000000000E+00  0.00000000000E+00  0.47072185641E+03  0.47072185641E+03  0.00000000000E+00 0. -1.
         21   -1    0    0  501  503 -0.00000000000E+00 -0.00000000000E+00 -0.14872635113E+03  0.14872635113E+03  0.00000000000E+00 0. -1.
          6    2    1    2  501    0  0.52379344920E+01 -0.22149539522E+02 -0.73628336005E+02  0.18755069600E+03  0.17098565335E+03 0.  0.
         24    2    3    3    0    0  0.73280452876E+01 -0.56869122034E+02  0.73338749584E+01  0.99307919660E+02  0.80749488522E+02 0.  0.
         -6    2    1    2    0  502 -0.52379344920E+01  0.22149539522E+02  0.39562384128E+03  0.43189751153E+03  0.17175330744E+03 0.  0.
        -24    2    5    5    0    0 -0.58327052608E+02 -0.19730232338E+02  0.27832672202E+03  0.29642399404E+03  0.81302477941E+02 0.  0.
          5    1    3    3  501    0 -0.20901107956E+01  0.34719582512E+02 -0.80962210963E+02  0.88242776344E+02  0.47000000000E+01 0. -1.
        -13    1    4    4    0    0 -0.35279802466E+02 -0.38978864022E+02  0.37300543613E+00  0.52575235953E+02  0.00000000000E+00 0.  1.
         14    1    4    4    0    0  0.42607847753E+02 -0.17890258011E+02  0.69608695223E+01  0.46732683706E+02  0.00000000000E+00 0. -1.
         -5    1    5    5    0  502  0.53089118116E+02  0.41879771860E+02  0.11729711926E+03  0.13547351749E+03  0.47000000000E+01 0.  1.
         13    1    6    6    0    0  0.14997983770E+02  0.13885335307E+02  0.73425410931E+02  0.76217012695E+02  0.00000000000E+00 0. -1.
        -14    1    6    6    0    0 -0.73325036378E+02 -0.33615567645E+02  0.20490131109E+03  0.22020698135E+03  0.00000000000E+00 0.  1.
</event>
<event>
12    1  0.8113184E-002  0.2308462E+03  0.7818608E-02  0.1126200E+00
         21   -1    0    0  501  502  0.00000000000E+00  0.00000000000E+00  0.17835704336E+04  0.17835704336E+04  0.00000000000E+00 0.  1.
         21   -1    0    0  502  503 -0.00000000000E+00 -0.00000000000E+00 -0.29840256125E+02  0.29840256125E+02  0.00000000000E+00 0. -1.
         -6    2    1    2    0  503 -0.11978885973E+03 -0.95330602666E+02  0.83285150980E+03  0.86425205071E+03  0.17277926687E+03 0.  0.
        -24    2    3    3    0    0 -0.94731562701E+02 -0.68322079701E+02  0.28333175064E+03  0.31347860894E+03  0.65954391806E+02 0.  0.
          6    2    1    2  501    0  0.11978885973E+03  0.95330602666E+02  0.92087866772E+03  0.94915863905E+03  0.17160217574E+03 0.  0.
         24    2    5    5    0    0  0.24735041042E+02  0.27662133316E+02  0.62403007903E+03  0.63016737774E+03  0.79500745629E+02 0.  0.
          5    1    5    5  501    0  0.95053818692E+02  0.67668469350E+02  0.29684858869E+03  0.31899126132E+03  0.47000000000E+01 0. -1.
        -13    1    6    6    0    0  0.36788176043E+02  0.25243932814E+02  0.60951589795E+03  0.61114667298E+03  0.00000000000E+00 0.  1.
         14    1    6    6    0    0 -0.12053135001E+02  0.24182005021E+01  0.14514181076E+02  0.19020704753E+02  0.00000000000E+00 0. -1.
         -5    1    3    3    0  503 -0.25057297032E+02 -0.27008522965E+02  0.54951975916E+03  0.55077344177E+03  0.47000000000E+01 0.  1.
         11    1    4    4    0    0 -0.20029575515E+02 -0.37886583480E+02  0.46262304366E+02  0.63061699219E+02  0.00000000000E+00 0. -1.
        -12    1    4    4    0    0 -0.74701987186E+02 -0.30435496220E+02  0.23706944627E+03  0.25041690972E+03  0.00000000000E+00 0.  1.
</event>
<event>
12    1  0.8113184E-002  0.1802908E+03  0.7818608E-02  0.1167613E+00
         21   -1    0    0  501  502  0.00000000000E+00  0.00000000000E+00  0.18635366074E+03  0.18635366074E+03  0.00000000000E+00 0.  1.
         21   -1    0    0  502  503 -0.00000000000E+00 -0.00000000000E+00 -0.53805882971E+03  0.53805882971E+03  0.00000000000E+00 0.  1.
         -6    2    1    2    0  503 -0.21979520132E+01 -0.51917253032E+02 -0.47382606662E+03  0.50696738731E+03  0.17263996708E+03 0.  0.
        -24    2    3    3    0    0  0.14527295450E+02  0.38205120782E+01 -0.10222429437E+03  0.13080731566E+03  0.80219130173E+02 0.  0.
          6    2    1    2  501    0  0.21979520132E+01  0.51917253032E+02  0.12212089765E+03  0.21744510314E+03  0.17224583328E+03 0.  0.
         24    2    5    5    0    0  0.11496338701E+02 -0.32908305596E+02  0.38823259805E+02  0.98103484824E+02  0.83077830087E+02 0.  0.
          5    1    5    5  501    0 -0.92983866875E+01  0.84825558628E+02  0.83297637847E+02  0.11934161832E+03  0.47000000000E+01 0. -1.
        -11    1    6    6    0    0  0.41527213758E+02 -0.27719256139E+01  0.17242014458E+01  0.41655322886E+02  0.00000000000E+00 0.  1.
         12    1    6    6    0    0 -0.30030875057E+02 -0.30136379982E+02  0.37099058359E+02  0.56448161939E+02  0.00000000000E+00 0. -1.
         -5    1    3    3    0  503 -0.16725247463E+02 -0.55737765110E+02 -0.37160177225E+03  0.37616007165E+03  0.47000000000E+01 0.  1.
         11    1    4    4    0    0  0.25278104242E+02 -0.33004488032E+02 -0.39894850693E+02  0.57618381582E+02  0.00000000000E+00 0. -1.
        -12    1    4    4    0    0 -0.10750808791E+02  0.36825000110E+02 -0.62329443672E+02  0.73188934077E+02  0.00000000000E+00 0.  1.
</event>
<event>
12    1  0.8113184E-002  0.1952330E+03  0.7818608E-02  0.1154034E+00
         21   -1    0    0  503  502  0.00000000000E+00  0.00000000000E+00  0.33970133298E+03  0.33970133298E+03  0.00000000000E+00 0. -1.
         21   -1    0    0  501  503 -0.00000000000E+00 -0.00000000000E+00 -0.20149771060E+03  0.20149771060E+03  0.00000000000E+00 0. -1.
          6    2    1    2  501    0  0.85278506962E+02  0.33550187128E+02 -0.11149431803E+03  0.22482635439E+03  0.17238871154E+03 0.  0.
         24    2    3    3    0    0  0.12276333077E+02  0.72640369104E+02 -0.79885901946E+02  0.13606520474E+03  0.81881933503E+02 0.  0.
         -6    2    1    2    0  502 -0.85278506962E+02 -0.33550187128E+02  0.24969794041E+03  0.31637268919E+03  0.17130259254E+03 0.  0.
        -24    2    5    5    0    0 -0.49870221025E+02 -0.56519463772E+02  0.25137409088E+03  0.27387287903E+03  0.78332187339E+02 0.  0.
          5    1    3    3  501    0  0.73002173886E+02 -0.39090181976E+02 -0.31608416087E+02  0.88761149646E+02  0.47000000000E+01 0. -1.
        -13    1    4    4    0    0 -0.15018250075E+02  0.39538526059E+02  0.33452468307E+01  0.42426802314E+02  0.00000000000E+00 0.  1.
         14    1    4    4    0    0  0.27294583152E+02  0.33101843045E+02 -0.83231148777E+02  0.93638402427E+02  0.00000000000E+00 0. -1.
         -5    1    5    5    0  502 -0.35408285937E+02  0.22969276644E+02 -0.16761504699E+01  0.42499810152E+02  0.47000000000E+01 0.  1.
         11    1    6    6    0    0  0.85762031833E+01 -0.48557812593E+02  0.12641044218E+03  0.13568718553E+03  0.00000000000E+00 0. -1.
        -12    1    6    6    0    0 -0.58446424208E+02 -0.79616511787E+01  0.12496364871E+03  0.13818569351E+03  0.00000000000E+00 0.  1.
</event>
<event>
12    1  0.8113184E-002  0.1864592E+03  0.7818608E-02  0.1161855E+00
         21   -1    0    0  501  502  0.00000000000E+00  0.00000000000E+00  0.27562687520E+03  0.27562687520E+03  0.00000000000E+00 0.  1.
         21   -1    0    0  502  503 -0.00000000000E+00 -0.00000000000E+00 -0.20721722781E+03  0.20721722781E+03  0.00000000000E+00 0.  1.
         -6    2    1    2    0  503  0.58637217742E+02 -0.41557821492E+02 -0.11728606711E+03  0.21969030378E+03  0.17129632864E+03 0.  0.
        -24    2    3    3    0    0  0.65871772416E+02 -0.87079830543E+02 -0.71005155838E+02  0.15420286348E+03  0.82551824094E+02 0.  0.
          6    2    1    2  501    0 -0.58637217742E+02  0.41557821492E+02  0.18569571450E+03  0.26315379922E+03  0.17205129418E+03 0.  0.
         24    2    5    5    0    0 -0.51292613493E+02  0.93261442655E+02  0.11406738136E+03  0.17438490961E+03  0.77910848578E+02 0.  0.
          5    1    5    5  501    0 -0.73446042495E+01 -0.51703621163E+02  0.71628333145E+02  0.88768889607E+02  0.47000000000E+01 0. -1.
        -11    1    6    6    0    0 -0.38170565866E+02  0.22358936103E+02  0.62479478155E+01  0.44676067129E+02  0.00000000000E+00 0.  1.
         12    1    6    6    0    0 -0.13122047626E+02  0.70902506552E+02  0.10781943354E+03  0.12970884248E+03  0.00000000000E+00 0. -1.
         -5    1    3    3    0  503 -0.72345546743E+01  0.45522009051E+02 -0.46280911273E+02  0.65487440305E+02  0.47000000000E+01 0.  1.
         11    1    4    4    0    0  0.34003755464E+02 -0.19192865536E+02  0.13411318609E+02  0.41285408318E+02  0.00000000000E+00 0. -1.
        -12    1    4    4    0    0  0.31868016952E+02 -0.67886965007E+02 -0.84416474446E+02  0.11291745516E+03  0.00000000000E+00 0.  1.
</event>
<event>
12    1  0.8113184E-002  0.2901456E+03  0.7818608E-02  0.1090282E+00
         21   -1    0    0  503  502  0.00000000000E+00  0.00000000000E+00  0.11791144795E+03  0.11791144795E+03  0.00000000000E+00 0. -1.
         21   -1    0    0  501  503 -0.00000000000E+00 -0.00000000000E+00 -0.72369034126E+03  0.72369034126E+03  0.00000000000E+00 0.  1.
          6    2    1    2  501    0 -0.35591706151E+02  0.23074124889E+03 -0.35211676162E+03  0.45625725190E+03  0.17226773526E+03 0.  0.
         24    2    3    3    0    0  0.13546273944E+02  0.22538233814E+03 -0.28580535245E+03  0.37341673043E+03  0.82308293560E+02 0.  0.
         -6    2    1    2    0  502  0.35591706151E+02 -0.23074124889E+03 -0.25366213169E+03  0.38534453731E+03  0.17215586513E+03 0.  0.
        -24    2    5    5    0    0 -0.27567295680E+02 -0.17640390715E+03 -0.12617794590E+03  0.23297684439E+03  0.80492494954E+02 0.  0.
          5    1    3    3  501    0 -0.49137980094E+02  0.53589107486E+01 -0.66311409169E+02  0.82840521475E+02  0.47000000000E+01 0. -1.
        -13    1    4    4    0    0  0.44685664989E+02  0.11578222813E+03 -0.17452286706E+03  0.21415079765E+03  0.00000000000E+00 0.  1.
         14    1    4    4    0    0 -0.31139391045E+02  0.10960011001E+03 -0.11128248539E+03  0.15926593277E+03  0.00000000000E+00 0. -1.
         -5    1    5    5    0  502  0.63159001830E+02 -0.54337341739E+02 -0.12748418579E+03  0.15236769292E+03  0.47000000000E+01 0.  1.
         11    1    6    6    0    0 -0.54707031581E+02 -0.90536962306E+02 -0.66738452477E+02  0.12507526489E+03  0.00000000000E+00 0. -1.
        -12    1    6    6    0    0  0.27139735901E+02 -0.85866944842E+02 -0.59439493424E+02  0.10790157951E+03  0.00000000000E+00 0.  1.
</event>
<event>
12    1  0.8113184E-002  0.3264949E+03  0.7818608E-02  0.1072705E+00
         21   -1    0    0  503  502  0.00000000000E+00  0.00000000000E+00  0.37909213977E+03  0.37909213977E+03  0.00000000000E+00 0. -1.
         21   -1    0    0  501  503 -0.00000000000E+00 -0.00000000000E+00 -0.55427456182E+03  0.55427456182E+03  0.00000000000E+00 0.  1.
          6    2    1    2  501    0 -0.27685601637E+03  0.25123471244E+02  0.24001436633E+03  0.40517423552E+03  0.17111055629E+03 0.  0.
         24    2    3    3    0    0 -0.78252348620E+02  0.55069890344E+02  0.81053076800E+02  0.14898878232E+03  0.80448325722E+02 0.  0.
         -6    2    1    2    0  502  0.27685601637E+03 -0.25123471244E+02 -0.41519678839E+03  0.52819246607E+03  0.17122635756E+03 0.  0.
        -24    2    5    5    0    0  0.82728865667E+02  0.97132525535E+00 -0.78528812300E+02  0.13866235791E+03  0.78838229638E+02 0.  0.
          5    1    3    3  501    0 -0.19860366775E+03 -0.29946419100E+02  0.15896128953E+03  0.25618545320E+03  0.47000000000E+01 0. -1.
        -13    1    4    4    0    0  0.16954848336E+02  0.87580322833E+01  0.14000503586E+02  0.23668208893E+02  0.00000000000E+00 0.  1.
         14    1    4    4    0    0 -0.95207196957E+02  0.46311858061E+02  0.67052573215E+02  0.12532057343E+03  0.00000000000E+00 0. -1.
         -5    1    5    5    0  502  0.19412715070E+03 -0.26094796499E+02 -0.33666797609E+03  0.38953010817E+03  0.47000000000E+01 0.  1.
         13    1    6    6    0    0  0.67059010501E+02  0.30548872077E+02 -0.29671449221E+02  0.79438903400E+02  0.00000000000E+00 0. -1.
        -14    1    6    6    0    0  0.15669855166E+02 -0.29577546822E+02 -0.48857363079E+02  0.59223454509E+02  0.00000000000E+00 0.  1.
</event>
<event>
12    1  0.8113184E-002  0.2817419E+03  0.7818608E-02  0.1094845E+00
         21   -1    0    0  503  502  0.00000000000E+00  0.00000000000E+00  0.74537758547E+02  0.74537758547E+02  0.00000000000E+00 0.  1.
         21   -1    0    0  501  503 -0.00000000000E+00 -0.00000000000E+00 -0.10653298902E+04  0.10653298902E+04  0.00000000000E+00 0.  1.
          6    2    1    2  501    0  0.55186819173E+02  0.21402420121E+03 -0.52625666868E+03  0.59657060516E+03  0.17348908294E+03 0.  0.
         24    2    3    3    0    0 -0.17263168612E+02  0.13691998872E+03 -0.19793876969E+03  0.25159409420E+03  0.71237148956E+02 0.  0.
         -6    2    1    2    0  502 -0.55186819173E+02 -0.21402420121E+03 -0.46453546300E+03  0.54329704362E+03  0.17471845208E+03 0.  0.
        -24    2    5    5    0    0  0.21798578074E+02 -0.54720926782E+02 -0.20882187996E+03  0.23230538587E+03  0.83003957254E+02 0.  0.
          5    1    3    3  501    0  0.72449987785E+02  0.77104212496E+02 -0.32831789900E+03  0.34497651096E+03  0.47000000000E+01 0. -1.
        -13    1    4    4    0    0  0.19175099211E+02  0.93287520881E+02 -0.14762379124E+03  0.17567876856E+03  0.00000000000E+00 0.  1.
         14    1    4    4    0    0 -0.36438267823E+02  0.43632467838E+02 -0.50314978442E+02  0.75915325641E+02  0.00000000000E+00 0. -1.
         -5    1    5    5    0  502 -0.76985397247E+02 -0.15930327443E+03 -0.25571358305E+03  0.31099165775E+03  0.47000000000E+01 0.  1.
         13    1    6    6    0    0  0.39772187890E+02 -0.37959355051E+01 -0.46873992416E+02  0.61590642316E+02  0.00000000000E+00 0. -1.
        -14    1    6    6    0    0 -0.17973609816E+02 -0.50924991277E+02 -0.16194788754E+03  0.17071474355E+03  0.00000000000E+00 0.  1.
</event>
<event>
12    1  0.8113184E-002  0.2128444E+03  0.7818608E-02  0.1140823E+00
         21   -1    0    0  501  502  0.00000000000E+00  0.00000000000E+00  0.10807458690E+04  0.10807458690E+04  0.00000000000E+00 0. -1.
         21   -1    0    0  502  503 -0.00000000000E+00 -0.00000000000E+00 -0.73219087057E+02  0.73219087057E+02  0.00000000000E+00 0. -1.
         -6    2    1    2    0  503  0.11217044064E+03  0.51117434556E+02  0.11280842980E+03  0.23427823349E+03  0.16421129372E+03 0.  0.
        -24    2    3    3    0    0  0.87860012237E+02  0.30335177322E+02  0.11234782082E+01  0.11800907353E+03  0.72699893392E+02 0.  0.
          6    2    1    2  501    0 -0.11217044064E+03 -0.51117434556E+02  0.89471835214E+03  0.91968672257E+03  0.17351523893E+03 0.  0.
         24    2    5    5    0    0 -0.13598471126E+03 -0.72595449568E+02  0.82074648151E+03  0.83892564123E+03  0.80059375525E+02 0.  0.
          5    1    5    5  501    0  0.23814270620E+02  0.21478015013E+02  0.73971870631E+02  0.80761081337E+02  0.47000000000E+01 0. -1.
        -11    1    6    6    0    0 -0.11066408581E+02 -0.25531106723E+02  0.30198329388E+03  0.30326261324E+03  0.00000000000E+00 0.  1.
         12    1    6    6    0    0 -0.12491830268E+03 -0.47064342845E+02  0.51876318763E+03  0.53566302799E+03  0.00000000000E+00 0. -1.
         -5    1    3    3    0  503  0.24310428402E+02  0.20782257233E+02  0.11168495159E+03  0.11626915996E+03  0.47000000000E+01 0.  1.
         11    1    4    4    0    0  0.34488032292E+02  0.95186748989E+01  0.36150588367E+02  0.50861523596E+02  0.00000000000E+00 0. -1.
        -12    1    4    4    0    0  0.53371979945E+02  0.20816502424E+02 -0.35027110159E+02  0.67147549937E+02  0.00000000000E+00 0.  1.
</event>
<event>
12    1  0.8113184E-002  0.1823132E+03  0.7818608E-02  0.1165589E+00
         21   -1    0    0  503  502  0.00000000000E+00  0.00000000000E+00  0.21833260242E+03  0.21833260242E+03  0.00000000000E+00 0.  1.
         21   -1    0    0  501  503 -0.00000000000E+00 -0.00000000000E+00 -0.18476087659E+03  0.18476087659E+03  0.00000000000E+00 0.  1.
          6    2    1    2  501    0  0.16090882882E+02 -0.53426929993E+02 -0.67804650863E+02  0.19449032661E+03  0.17353865018E+03 0.  0.
         24    2    3    3    0    0 -0.30350139081E+02 -0.24828378487E+02  0.16626045836E+02  0.93865885179E+02  0.83646874895E+02 0.  0.
         -6    2    1    2    0  502 -0.16090882882E+02  0.53426929993E+02  0.10137637669E+03  0.20860315240E+03  0.17356483538E+03 0.  0.
        -24    2    5    5    0    0 -0.56936010616E+02  0.28453998206E+02  0.49692878898E+01  0.10086092042E+03  0.78082598104E+02 0.  0.
          5    1    3    3  501    0  0.46441021963E+02 -0.28598551506E+02 -0.84430696698E+02  0.10062444144E+03  0.47000000000E+01 0. -1.
        -13    1    4    4    0    0 -0.36403371507E+02  0.86958197154E+01 -0.21156419946E+02  0.42993218565E+02  0.00000000000E+00 0.  1.
         14    1    4    4    0    0  0.60532324269E+01 -0.33524198202E+02  0.37782465781E+02  0.50872666614E+02  0.00000000000E+00 0. -1.
         -5    1    5    5    0  502  0.40845127734E+02  0.24972931787E+02  0.96407088801E+02  0.10774223198E+03  0.47000000000E+01 0.  1.
         11    1    6    6    0    0 -0.13670541248E+02  0.36459640881E+02  0.30970200530E+02  0.49752813308E+02  0.00000000000E+00 0. -1.
        -12    1    6    6    0    0 -0.43265469368E+02 -0.80056426746E+01 -0.26000912640E+02  0.51108107110E+02  0.00000000000E+00 0.  1.
</event>
<event>
12    1  0.8113184E-002  0.2226151E+03  0.7818608E-02  0.1132139E+00
         21   -1    0    0  503  502  0.00000000000E+00  0.00000000000E+00  0.12813511316E+03  0.12813511316E+03  0.00000000000E+00 0. -1.
         21   -1    0    0  501  503 -0.00000000000E+00 -0.00000000000E+00 -0.40809409019E+03  0.40809409019E+03  0.00000000000E+00 0. -1.
          6    2    1    2  501    0  0.13827847562E+03 -0.16091585136E+02 -0.20350119845E+03  0.30085021209E+03  0.17238978048E+03 0.  0.
         24    2    3    3    0    0  0.10216954011E+02 -0.13505629101E+02 -0.48237493846E+02  0.99516289335E+02  0.85380605899E+02 0.  0.
         -6    2    1    2    0  502 -0.13827847562E+03  0.16091585136E+02 -0.76457778581E+02  0.23537899126E+03  0.17371701611E+03 0.  0.
        -24    2    5    5    0    0 -0.97072681453E+02  0.68319060422E+02 -0.86514806205E+02  0.16793375086E+03  0.81402294091E+02 0.  0.
          5    1    3    3  501    0  0.12806152161E+03 -0.25859560358E+01 -0.15526370461E+03  0.20133392276E+03  0.47000000000E+01 0. -1.
        -13    1    4    4    0    0  0.37224160045E+02  0.32716385494E+01  0.48044538781E+01  0.37675250323E+02  0.00000000000E+00 0.  1.
         14    1    4    4    0    0 -0.27007206034E+02 -0.16777267650E+02 -0.53041947725E+02  0.61841039011E+02  0.00000000000E+00 0. -1.
         -5    1    5    5    0  502 -0.41205794167E+02 -0.52227475286E+02  0.10057027623E+02  0.67445240398E+02  0.47000000000E+01 0.  1.
         13    1    6    6    0    0 -0.26601190201E+01  0.45819680995E+02 -0.18841531415E+02  0.49613735052E+02  0.00000000000E+00 0. -1.
        -14    1    6    6    0    0 -0.94412562432E+02  0.22499379427E+02 -0.67673274790E+02  0.11832001581E+03  0.00000000000E+00 0.  1.
</event>
<event>
12    1  0.8113184E-002  0.2062198E+03  0.7818608E-02  0.1144817E+00
         21   -1    0    0  501  502  0.00000000000E+00  0.00000000000E+00  0.74247514211E+03  0.74247514211E+03  0.00000000000E+00 0. -1.
         21   -1    0    0  502  503 -0.00000000000E+00 -0.00000000000E+00 -0.57938317002E+02  0.57938317002E+02  0.00000000000E+00 0. -1.
         -6    2    1    2    0  503 -0.59921438207E+02 -0.96581214389E+02  0.29153191855E+03  0.35709589353E+03  0.17207006688E+03 0.  0.
        -24    2    3    3    0    0 -0.53407500292E+02 -0.92799243661E+02  0.10340525183E+03  0.16875984435E+03  0.79518414522E+02 0.  0.
          6    2    1    2  501    0  0.59921438207E+02  0.96581214389E+02  0.39300490656E+03  0.44331756558E+03  0.17076035149E+03 0.  0.
         24    2    5    5    0    0  0.35372891472E+02  0.13084815404E+03  0.25948732356E+03  0.30322513441E+03  0.78989430854E+02 0.  0.
          5    1    5    5  501    0  0.24548546735E+02 -0.34266939648E+02  0.13351758300E+03  0.14009243117E+03  0.47000000000E+01 0. -1.
        -11    1    6    6    0    0  0.20753282881E+02  0.55953753427E+02  0.42648548342E+02  0.73351345922E+02  0.00000000000E+00 0.  1.
         12    1    6    6    0    0  0.14619608592E+02  0.74894400610E+02  0.21683877522E+03  0.22987378849E+03  0.00000000000E+00 0. -1.
         -5    1    3    3    0  503 -0.65139379149E+01 -0.37819707282E+01  0.18812666672E+03  0.18833604918E+03  0.47000000000E+01 0.  1.
         13    1    4    4    0    0 -0.69543883467E+02 -0.62248814170E+02  0.95051139690E+02  0.13321405988E+03  0.00000000000E+00 0. -1.
        -14    1    4    4    0    0  0.16136383175E+02 -0.30550429491E+02  0.83541121391E+01  0.35545784471E+02  0.00000000000E+00 0.  1.
</event>
<event>
12    1  0.8113184E-002  0.1945245E+03  0.7818608E-02  0.1155289E+00
         21   -1    0    0  503  502  0.00000000000E+00  0.00000000000E+00  0.66816378858E+03  0.66816378858E+03  0.00000000000E+00 0.  1.
         21   -1    0    0  501  503 -0.00000000000E+00 -0.00000000000E+00 -0.69926411611E+02  0.69926411611E+02  0.00000000000E+00 0.  1.
          6    2    1    2  501    0  0.77719474873E+02  0.18723973010E+02  0.46424066282E+03  0.50188074373E+03  0.17312996266E+03 0.  0.
         24    2    3    3    0    0  0.38803958692E+02 -0.51497818746E+02  0.19210752997E+03  0.21811314615E+03  0.80686237424E+02 0.  0.
         -6    2    1    2    0  502 -0.77719474873E+02 -0.18723973010E+02  0.13399671415E+03  0.23620945646E+03  0.17733833195E+03 0.  0.
        -24    2    5    5    0    0 -0.11160754266E+03  0.93955391399E+01  0.59656136323E+02  0.14967784598E+03  0.79373063707E+02 0.  0.
          5    1    3    3  501    0  0.38915516181E+02  0.70221791756E+02  0.27213313285E+03  0.28376759757E+03  0.47000000000E+01 0. -1.
        -13    1    4    4    0    0 -0.23180588724E+01 -0.47051244163E+02  0.15682393649E+03  0.16374657257E+03  0.00000000000E+00 0.  1.
         14    1    4    4    0    0  0.41122017565E+02 -0.44465745830E+01  0.35283593480E+02  0.54366573581E+02  0.00000000000E+00 0. -1.
         -5    1    5    5    0  502  0.33888067782E+02 -0.28119512150E+02  0.74340577829E+02  0.86531610487E+02  0.47000000000E+01 0.  1.
         11    1    6    6    0    0 -0.29833403833E+02 -0.10800732534E+02  0.57200429357E+02  0.65410831872E+02  0.00000000000E+00 0. -1.
        -12    1    6    6    0    0 -0.81774138822E+02  0.20196271673E+02  0.24557069658E+01  0.84267014106E+02  0.00000000000E+00 0.  1.
</event>
<event>
12    1  0.8113184E-002  0.2015705E+03  0.7818608E-02  0.1148596E+00
         21   -1    0    0  501  502  0.00000000000E+00  0.00000000000E+00  0.43991933504E+02  0.43991933504E+02  0.00000000000E+00 0. -1.
         21   -1    0    0  502  503 -0.00000000000E+00 -0.00000000000E+00 -0.10636840389E+04  0.10636840389E+04  0.00000000000E+00 0. -1.
         -6    2    1    2    0  503  0.13009710430E+02  0.10210497920E+03 -0.71265599868E+03  0.74038613916E+03  0.17233218871E+03 0.  0.
        -24    2    3    3    0    0  0.49377375071E+02  0.45956753914E+02 -0.22561758472E+03  0.24875239652E+03  0.80151804963E+02 0.  0.
          6    2    1    2  501    0 -0.13009710430E+02 -0.10210497920E+03 -0.30703610669E+03  0.36728983322E+03  0.17330889023E+03 0.  0.
         24    2    5    5    0    0  0.38976764537E+01 -0.97546022866E+02 -0.32076171031E+03  0.34454942846E+03  0.79346174385E+02 0.  0.
          5    1    5    5  501    0 -0.16907386884E+02 -0.45589563294E+01  0.13725603619E+02  0.22740404762E+02  0.47000000000E+01 0. -1.
        -13    1    6    6    0    0 -0.26303327424E+01 -0.16917073879E+02 -0.19013205040E+03  0.19090129027E+03  0.00000000000E+00 0.  1.
         14    1    6    6    0    0  0.65280091961E+01 -0.80628948986E+02 -0.13062965991E+03  0.15364813819E+03  0.00000000000E+00 0. -1.
         -5    1    3    3    0  503 -0.36367664641E+02  0.56148225281E+02 -0.48703841395E+03  0.49163374264E+03  0.47000000000E+01 0.  1.
         13    1    4    4    0    0  0.28910516915E+02  0.21103890826E+02 -0.20989085542E+03  0.21292102617E+03  0.00000000000E+00 0. -1.
        -14    1    4    4    0    0  0.20466858156E+02  0.24852863089E+02 -0.15726729301E+02  0.35831370347E+02  0.00000000000E+00 0.  1.
</event>
<event>
12    1  0.8113184E-002  0.1859551E+03  0.7818608E-02  0.1165063E+00
         21   -1    0    0  501  502  0.00000000000E+00  0.00000000000E+00  0.77197091075E+02  0.77197091075E+02  0.00000000000E+00 0.  1.
         21   -1    0    0  502  503 -0.00000000000E+00 -0.00000000000E+00 -0.42475648059E+03  0.42475648059E+03  0.00000000000E+00 0.  1.
         -6    2    1    2    0  503  0.68616556219E+02 -0.94257722716E+01 -0.20788665752E+03  0.27891962298E+03  0.17257524949E+03 0.  0.
        -24    2    3    3    0    0  0.20767808139E+02 -0.15615648469E+02 -0.31829579560E+02  0.96310745975E+02  0.87106184185E+02 0.  0.
          6    2    1    2  501    0 -0.68616556219E+02  0.94257722716E+01 -0.13967273200E+03  0.22303394869E+03  0.15949480630E+03 0.  0.
         24    2    5    5    0    0  0.20241591621E+02 -0.12288283556E+02 -0.64577857447E+02  0.10459155408E+03  0.78793207626E+02 0.  0.
          5    1    5    5  501    0 -0.88858147840E+02  0.21714055827E+02 -0.75094874553E+02  0.11844239462E+03  0.47000000000E+01 0. -1.
        -11    1    6    6    0    0  0.71565460920E+01  0.33571697057E+02 -0.22975053013E+02  0.41305303004E+02  0.00000000000E+00 0.  1.
         12    1    6    6    0    0  0.13085045529E+02 -0.45859980613E+02 -0.41602804434E+02  0.63286251075E+02  0.00000000000E+00 0. -1.
         -5    1    3    3    0  503  0.47848748080E+02  0.61898761974E+01 -0.17605707796E+03  0.18260887700E+03  0.47000000000E+01 0.  1.
         11    1    4    4    0    0  0.44862015882E+02  0.67190259789E+01 -0.42100860893E+02  0.61888837985E+02  0.00000000000E+00 0. -1.
        -12    1    4    4    0    0 -0.24094207743E+02 -0.22334674448E+02  0.10271281333E+02  0.34421907990E+02  0.00000000000E+00 0.  1.
</event>
<event>
12    1  0.8113184E-002  0.2050102E+03  0.7818608E-02  0.1145879E+00
         21   -1    0    0  503  502  0.00000000000E+00  0.00000000000E+00  0.37935463491E+03  0.37935463491E+03  0.00000000000E+00 0. -1.
         21   -1    0    0  501  503 -0.00000000000E+00 -0.00000000000E+00 -0.11183202033E+03  0.11183202033E+03  0.00000000000E+00 0.  1.
          6    2    1    2  501    0  0.98977693917E+02 -0.48381590295E+02  0.16562823016E+03  0.26355621464E+03  0.17289246795E+03 0.  0.
         24    2    3    3    0    0 -0.50758079403E+01 -0.14839421932E+02  0.12024779699E+03  0.14509237196E+03  0.79663614344E+02 0.  0.
         -6    2    1    2    0  502 -0.98977693917E+02  0.48381590295E+02  0.10189438441E+03  0.22763044060E+03  0.17116012894E+03 0.  0.
        -24    2    5    5    0    0 -0.66822757949E+01  0.37871903525E+02 -0.11672421455E+01  0.88804338619E+02  0.80036955320E+02 0.  0.
          5    1    3    3  501    0  0.10405350186E+03 -0.33542168362E+02  0.45380433171E+02  0.11846384268E+03  0.47000000000E+01 0. -1.
        -11    1    4    4    0    0  0.32311816898E+02 -0.45162883678E+01  0.21692027080E+02  0.39179004719E+02  0.00000000000E+00 0.  1.
         12    1    4    4    0    0 -0.37387624839E+02 -0.10323133564E+02  0.98555769913E+02  0.10591336724E+03  0.00000000000E+00 0. -1.
         -5    1    5    5    0  502 -0.92295418122E+02  0.10509686769E+02  0.10306162656E+03  0.13882610198E+03  0.47000000000E+01 0.  1.
         11    1    6    6    0    0 -0.15153776761E-01  0.27983049481E+02  0.38379833108E+02  0.47498030246E+02  0.00000000000E+00 0. -1.
        -12    1    6    6    0    0 -0.66671220181E+01  0.98888540446E+01 -0.39547075253E+02  0.41306308373E+02  0.00000000000E+00 0.  1.
</event>
<event>
12    1  0.8113184E-002  0.2255451E+03  0.7818608E-02  0.1129842E+00
         21   -1    0    0  503  502  0.00000000000E+00  0.00000000000E+00  0.93668358812E+03  0.93668358812E+03  0.00000000000E+00 0.  1.
         21   -1    0    0  501  503 -0.00000000000E+00 -0.00000000000E+00 -0.15193835041E+03  0.15193835041E+03  0.00000000000E+00 0.  1.
          6    2    1    2  501    0 -0.98334076017E+02  0.10687075233E+03 -0.44071805779E+02  0.22966426921E+03  0.17237286410E+03 0.  0.
         24    2    3    3    0    0 -0.11241540573E+03  0.10702803408E+03 -0.79056096972E+02  0.19166033239E+03  0.79947439101E+02 0.  0.
         -6    2    1    2    0  502  0.98334076017E+02 -0.10687075233E+03  0.82881704349E+03  0.85895766932E+03  0.17256777771E+03 0.  0.
        -24    2    5    5    0    0  0.50219124934E+02 -0.81989390945E+02  0.27093870526E+03  0.29843607212E+03  0.80075504368E+02 0.  0.
          5    1    3    3  501    0  0.14081329710E+02 -0.15728175215E+00  0.34984291193E+02  0.38003936825E+02  0.47000000000E+01 0. -1.
        -13    1    4    4    0    0 -0.13929658445E+02  0.12038205160E+02 -0.47916184319E+02  0.51331418133E+02  0.00000000000E+00 0.  1.
         14    1    4    4    0    0 -0.98485747281E+02  0.94989828918E+02 -0.31139912653E+02  0.14032891425E+03  0.00000000000E+00 0. -1.
         -5    1    5    5    0  502  0.48114951083E+02 -0.24881361381E+02  0.55787833823E+03  0.56052159720E+03  0.47000000000E+01 0.  1.
         13    1    6    6    0    0  0.25969549552E+00 -0.77052929130E+01 -0.44227267107E+01  0.88881658503E+01  0.00000000000E+00 0. -1.
        -14    1    6    6    0    0  0.49959429438E+02 -0.74284098032E+02  0.27536143197E+03  0.28954790627E+03  0.00000000000E+00 0.  1.
</event>
<event>
12    1  0.8113184E-002  0.2251804E+03  0.7818608E-02  0.1130167E+00
         21   -1    0    0  503  502  0.00000000000E+00  0.00000000000E+00  0.15069304579E+03  0.15069304579E+03  0.00000000000E+00 0.  1.
         21   -1    0    0  501  503 -0.00000000000E+00 -0.00000000000E+00 -0.34465820355E+03  0.34465820355E+03  0.00000000000E+00 0.  1.
          6    2    1    2  501    0 -0.13180781927E+03 -0.59729967420E+02 -0.13689068021E+03  0.26352473427E+03  0.17252610531E+03 0.  0.
         24    2    3    3    0    0  0.38458750905E+01 -0.28112192403E+02 -0.41619618708E+02  0.94704493623E+02  0.80197645440E+02 0.  0.
         -6    2    1    2    0  502  0.13180781927E+03  0.59729967420E+02 -0.57074477542E+02  0.23182651507E+03  0.17188678505E+03 0.  0.
        -24    2    5    5    0    0  0.52144202098E+02  0.79861356613E+01  0.32919611908E+02  0.10088858259E+03  0.79448153369E+02 0.  0.
          5    1    3    3  501    0 -0.13565369437E+03 -0.31617775017E+02 -0.95271061503E+02  0.16882024065E+03  0.47000000000E+01 0. -1.
        -11    1    4    4    0    0 -0.20904140000E+02 -0.33312762035E+02  0.69566832129E+01  0.39938936201E+02  0.00000000000E+00 0.  1.
         12    1    4    4    0    0  0.24750015090E+02  0.52005696321E+01 -0.48576301921E+02  0.54765557422E+02  0.00000000000E+00 0. -1.
         -5    1    5    5    0  502  0.79663617176E+02  0.51743831758E+02 -0.89994089450E+02  0.13093793248E+03  0.47000000000E+01 0.  1.
         11    1    6    6    0    0  0.19843241343E+02  0.42981925340E+02  0.21033684546E+02  0.51803629395E+02  0.00000000000E+00 0. -1.
        -12    1    6    6    0    0  0.32300960755E+02 -0.34995789679E+02  0.11885927362E+02  0.49084953195E+02  0.00000000000E+00 0.  1.
</event>
<event>
12    1  0.8113184E-002  0.1937075E+03  0.7818608E-02  0.1155701E+00
         21   -1    0    0  503  502  0.00000000000E+00  0.00000000000E+00  0.11887823114E+04  0.11887823114E+04  0.00000000000E+00 0. -1.
         21   -1    0    0  501  503 -0.00000000000E+00 -0.00000000000E+00 -0.45627655330E+02  0.45627655330E+02  0.00000000000E+00 0.  1.
          6    2    1    2  501    0 -0.22557972281E+02  0.86262504932E+02  0.22659458178E+03  0.29810683158E+03  0.17196655683E+03 0.  0.
         24    2    3    3    0    0  0.16557068268E+02  0.11708246012E+03  0.15631787498E+03  0.21184698255E+03  0.80383001938E+02 0.  0.
         -6    2    1    2    0  502  0.22557972281E+02 -0.86262504932E+02  0.91656007428E+03  0.93630313515E+03  0.16920729669E+03 0.  0.
        -24    2    5    5    0    0  0.36616947688E+01 -0.92807586013E+02  0.90405404359E+03  0.91225322468E+03  0.79155392515E+02 0.  0.
          5    1    3    3  501    0 -0.39115040549E+02 -0.30819955185E+02  0.70276706803E+02  0.86259849025E+02  0.47000000000E+01 0. -1.
        -13    1    4    4    0    0  0.40241586152E+02  0.37389822723E+02  0.36281006008E+02  0.65830809628E+02  0.00000000000E+00 0.  1.
         14    1    4    4    0    0 -0.23684517884E+02  0.79692637394E+02  0.12003686897E+03  0.14601617292E+03  0.00000000000E+00 0. -1.
         -5    1    5    5    0  502  0.18896277513E+02  0.65450810810E+01  0.12506030687E+02  0.24049910472E+02  0.47000000000E+01 0.  1.
         13    1    6    6    0    0  0.19142912846E+02 -0.10174454446E+03  0.80059468555E+03  0.80726095778E+03  0.00000000000E+00 0. -1.
        -14    1    6    6    0    0 -0.15481218077E+02  0.89369584447E+01  0.10345935805E+03  0.10499226689E+03  0.00000000000E+00 0.  1.
</event>
<event>
12    1  0.8113184E-002  0.2181164E+03  0.7818608E-02  0.1135406E+00
         21   -1    0    0  501  502  0.00000000000E+00  0.00000000000E+00  0.37246498520E+02  0.37246498520E+02  0.00000000000E+00 0. -1.
         21   -1    0    0  502  503 -0.00000000000E+00 -0.00000000000E+00 -0.22590461121E+04  0.22590461121E+04  0.00000000000E+00 0.  1.
         -6    2    1    2    0  503 -0.12839665051E+03  0.34847197868E+02 -0.18699700309E+04  0.18826477878E+04  0.17284313435E+03 0.  0.
        -24    2    3    3    0    0 -0.50243148020E+01  0.35107979900E+02 -0.53882415731E+03  0.54578869717E+03  0.79347435136E+02 0.  0.
          6    2    1    2  501    0  0.12839665051E+03 -0.34847197868E+02 -0.35182958268E+03  0.41364482290E+03  0.17209868448E+03 0.  0.
         24    2    5    5    0    0  0.71319021012E+02  0.48208593161E+02 -0.21786283611E+03  0.24593883195E+03  0.74908093625E+02 0.  0.
          5    1    5    5  501    0  0.57077629502E+02 -0.83055791029E+02 -0.13396674657E+03  0.16770599095E+03  0.47000000000E+01 0. -1.
        -11    1    6    6    0    0  0.12139970816E+02  0.34045750073E+02 -0.25643771419E+02  0.44318111445E+02  0.00000000000E+00 0.  1.
         12    1    6    6    0    0  0.59179050196E+02  0.14162843088E+02 -0.19221906469E+03  0.20162072051E+03  0.00000000000E+00 0. -1.
         -5    1    3    3    0  503 -0.12337233571E+03 -0.26078203256E+00 -0.13311458736E+04  0.13368590906E+04  0.47000000000E+01 0.  1.
         11    1    4    4    0    0  0.20437585592E+02 -0.65725463881E+00 -0.39220297413E+03  0.39273566149E+03  0.00000000000E+00 0. -1.
        -12    1    4    4    0    0 -0.25461900394E+02  0.35765234539E+02 -0.14662118318E+03  0.15305303568E+03  0.00000000000E+00 0.  1.
</event>
<event>
12    1  0.8113184E-002  0.3600189E+03  0.7818608E-02  0.1058842E+00
         21   -1    0    0  501  502  0.00000000000E+00  0.00000000000E+00  0.58921793881E+03  0.58921793881E+03  0.00000000000E+00 0. -1.
         21   -1    0    0  502  503 -0.00000000000E+00 -0.00000000000E+00 -0.22119424827E+03  0.22119424827E+03  0.00000000000E+00 0. -1.
         -6    2    1    2    0  503 -0.24108616500E+03 -0.19958936384E+03  0.13737280048E+03  0.38284532639E+03  0.17245522466E+03 0.  0.
        -24    2    3    3    0    0 -0.19777232447E+03 -0.21974409424E+03  0.13088185863E+03  0.33440439055E+03  0.85410047545E+02 0.  0.
          6    2    1    2  501    0  0.24108616500E+03  0.19958936384E+03  0.23065089006E+03  0.42756686068E+03  0.17791889770E+03 0.  0.
         24    2    5    5    0    0  0.89883207492E+02  0.96640434257E+02  0.17955083782E+03  0.23758233026E+03  0.82392328330E+02 0.  0.
          5    1    5    5  501    0  0.15120295751E+03  0.10294892959E+03  0.51100052234E+02  0.18998453042E+03  0.47000000000E+01 0. -1.
        -13    1    6    6    0    0  0.22119251835E+01  0.36549894799E+02  0.10849886565E+02  0.38190410593E+02  0.00000000000E+00 0.  1.
         14    1    6    6    0    0  0.87671282308E+02  0.60090539459E+02  0.16870095126E+03  0.19939191967E+03  0.00000000000E+00 0. -1.
         -5    1    3    3    0  503 -0.43313840524E+02  0.20154730399E+02  0.64909418562E+01  0.48440935835E+02  0.47000000000E+01 0.  1.
         13    1    4    4    0    0 -0.10483069780E+03 -0.15295118995E+03  0.43643685449E+02  0.19049491591E+03  0.00000000000E+00 0. -1.
        -14    1    4    4    0    0 -0.92941626673E+02 -0.66792904293E+02  0.87238173177E+02  0.14390947464E+03  0.00000000000E+00 0.  1.
</event>
<event>
12    1  0.8113184E-002  0.2883871E+03  0.7818608E-02  0.1091355E+00
         21   -1    0    0  501  502  0.00000000000E+00  0.00000000000E+00  0.32485141698E+04  0.32485141698E+04  0.00000000000E+00 0.  1.
         21   -1    0    0  502  503 -0.00000000000E+00 -0.00000000000E+00 -0.25876025564E+02  0.25876025564E+02  0.00000000000E+00 0. -1.
         -6    2    1    2    0  503  0.19044166955E+03  0.13015026103E+03  0.18069859369E+04  0.18296624296E+04  0.17105353059E+03 0.  0.
        -24    2    3    3    0    0  0.10144707756E+03  0.96662312591E+02  0.66785021046E+03  0.68655535970E+03  0.75493351356E+02 0.  0.
          6    2    1    2  501    0 -0.19044166955E+03 -0.13015026103E+03  0.14156522074E+04  0.14447277658E+04  0.17308964434E+03 0.  0.
         24    2    5    5    0    0 -0.14803215684E+03 -0.15098264802E+03  0.95093784207E+03  0.97759385944E+03  0.81839446928E+02 0.  0.
          5    1    5    5  501    0 -0.42409512714E+02  0.20832386993E+02  0.46471436530E+03  0.46713390632E+03  0.47000000000E+01 0. -1.
        -11    1    6    6    0    0 -0.87017838755E+01  0.83737661231E+01  0.99837200166E+02  0.10056494190E+03  0.00000000000E+00 0.  1.
         12    1    6    6    0    0 -0.13933037296E+03 -0.15935641414E+03  0.85110064191E+03  0.87702891755E+03  0.00000000000E+00 0. -1.
         -5    1    3    3    0  503  0.88994591989E+02  0.33487948436E+02  0.11391357264E+04  0.11431070699E+04  0.47000000000E+01 0.  1.
         11    1    4    4    0    0  0.61883650141E+02  0.16647256414E+02  0.19219731182E+03  0.20259941750E+03  0.00000000000E+00 0. -1.
        -12    1    4    4    0    0  0.39563427421E+02  0.80015056177E+02  0.47565289864E+03  0.48395594220E+03  0.00000000000E+00 0.  1.
</event>
<event>
12    1  0.8113184E-002  0.1766651E+03  0.7818608E-02  0.1171256E+00
         21   -1    0    0  503  502  0.00000000000E+00  0.00000000000E+00  0.31146613655E+03  0.31146613655E+03  0.00000000000E+00 0. -1.
         21   -1    0    0  501  503 -0.00000000000E+00 -0.00000000000E+00 -0.20322609229E+03  0.20322609229E+03  0.00000000000E+00 0. -1.
          6    2    1    2  501    0 -0.12765884946E+02  0.36912465481E+02 -0.12954092190E+03  0.21846535308E+03  0.17152481489E+03 0.  0.
         24    2    3    3    0    0  0.53748150302E+02 -0.34862744335E+01 -0.61198437465E+02  0.11478816055E+03  0.80808757476E+02 0.  0.
         -6    2    1    2    0  502  0.12765884946E+02 -0.36912465481E+02  0.23778096616E+03  0.29622687575E+03  0.17229357540E+03 0.  0.
        -24    2    5    5    0    0  0.66341285303E+02  0.93579323754E+01  0.11778711538E+03  0.15682857065E+03  0.78947191131E+02 0.  0.
          5    1    3    3  501    0 -0.66514035248E+02  0.40398739915E+02 -0.68342484436E+02  0.10367719253E+03  0.47000000000E+01 0. -1.
        -13    1    4    4    0    0 -0.65392841493E+01 -0.21918446960E+02  0.49580694417E+01  0.23404337352E+02  0.00000000000E+00 0.  1.
         14    1    4    4    0    0  0.60287434451E+02  0.18432172526E+02 -0.66156506907E+02  0.91383823201E+02  0.00000000000E+00 0. -1.
         -5    1    5    5    0  502 -0.53575400357E+02 -0.46270397857E+02  0.11999385078E+03  0.13939830511E+03  0.47000000000E+01 0.  1.
         11    1    6    6    0    0  0.40319370403E+02  0.32670083856E+02  0.10912211499E+03  0.12083303351E+03  0.00000000000E+00 0. -1.
        -12    1    6    6    0    0  0.26021914900E+02 -0.23312151481E+02  0.86650003944E+01  0.35995537134E+02  0.00000000000E+00 0.  1.
</event>
<event>
12    1  0.8113184E-002  0.2190414E+03  0.7818608E-02  0.1134752E+00
         21   -1    0    0  503  502  0.00000000000E+00  0.00000000000E+00  0.47975764376E+02  0.47975764376E+02  0.00000000000E+00 0. -1.
         21   -1    0    0  501  503 -0.00000000000E+00 -0.00000000000E+00 -0.10048390561E+04  0.10048390561E+04  0.00000000000E+00 0. -1.
          6    2    1    2  501    0 -0.38770909397E+02 -0.12906080898E+03 -0.52589267296E+03  0.56937421047E+03  0.17165084399E+03 0.  0.
         24    2    3    3    0    0 -0.60866570645E+00 -0.80843705299E+02 -0.14860373126E+03  0.18707814527E+03  0.79869195158E+02 0.  0.
         -6    2    1    2    0  502  0.38770909397E+02  0.12906080898E+03 -0.43097061871E+03  0.48344060996E+03  0.17268257970E+03 0.  0.
        -24    2    5    5    0    0  0.49362066267E+02  0.10565330190E+03 -0.17118334596E+03  0.22234369103E+03  0.80831585512E+02 0.  0.
          5    1    3    3  501    0 -0.38162243690E+02 -0.48217103682E+02 -0.37728894170E+03  0.38229606519E+03  0.47000000000E+01 0. -1.
        -11    1    4    4    0    0  0.24063186137E+02  0.19598810165E+01 -0.52863535403E+02  0.58115672894E+02  0.00000000000E+00 0.  1.
         12    1    4    4    0    0 -0.24671851843E+02 -0.82803586316E+02 -0.95740195855E+02  0.12896247238E+03  0.00000000000E+00 0. -1.
         -5    1    5    5    0  502 -0.10591156871E+02  0.23407507078E+02 -0.25978727275E+03  0.26109691893E+03  0.47000000000E+01 0.  1.
         13    1    6    6    0    0 -0.17487158945E+02  0.39127438686E+02 -0.82094233968E+02  0.92607885393E+02  0.00000000000E+00 0. -1.
        -14    1    6    6    0    0  0.66849225212E+02  0.66525863217E+02 -0.89089111997E+02  0.12973580564E+03  0.00000000000E+00 0.  1.
</event>
<event>
12    1  0.8113184E-002  0.1900393E+03  0.7818608E-02  0.1159295E+00
         21   -1    0    0  501  502  0.00000000000E+00  0.00000000000E+00  0.61782398798E+02  0.61782398798E+02  0.00000000000E+00 0.  1.
         21   -1    0    0  502  503 -0.00000000000E+00 -0.00000000000E+00 -0.12902001395E+04  0.12902001395E+04  0.00000000000E+00 0. -1.
         -6    2    1    2    0  503  0.77075234243E+02 -0.54435597007E+01 -0.11154782630E+04  0.11309163187E+04  0.16943948957E+03 0.  0.
        -24    2    3    3    0    0  0.15487289433E+02  0.41377722083E+02 -0.83040539652E+03  0.83549469361E+03  0.80785447102E+02 0.  0.
          6    2    1    2  501    0 -0.77075234243E+02  0.54435597007E+01 -0.11293947772E+03  0.22106621960E+03  0.17362235958E+03 0.  0.
         24    2    5    5    0    0 -0.28396885232E+02 -0.72729856335E+02 -0.32803279684E+02  0.98900083246E+02  0.51079900300E+02 0.  0.
          5    1    5    5  501    0 -0.48678349011E+02  0.78173416035E+02 -0.80136198035E+02  0.12216613636E+03  0.47000000000E+01 0. -1.
        -13    1    6    6    0    0 -0.26570409197E+02 -0.66958295142E+02 -0.69778774026E+01  0.72374655138E+02  0.00000000000E+00 0.  1.
         14    1    6    6    0    0 -0.18264760347E+01 -0.57715611923E+01 -0.25825402282E+02  0.26525428108E+02  0.00000000000E+00 0. -1.
         -5    1    3    3    0  503  0.61587944810E+02 -0.46821281784E+02 -0.28507286645E+03  0.29542162508E+03  0.47000000000E+01 0.  1.
         13    1    4    4    0    0  0.38701288133E+02  0.52749446165E+02 -0.64182850751E+03  0.64515434342E+03  0.00000000000E+00 0. -1.
        -14    1    4    4    0    0 -0.23213998700E+02 -0.11371724081E+02 -0.18857688901E+03  0.19034035020E+03  0.00000000000E+00 0.  1.
</event>
<event>
12    1  0.8113184E-002  0.2570167E+03  0.7818608E-02  0.1109126E+00
         21   -1    0    0  501  502  0.00000000000E+00  0.00000000000E+00  0.75709796148E+03  0.75709796148E+03  0.00000000000E+00 0. -1.
         21   -1    0    0  502  503 -0.00000000000E+00 -0.00000000000E+00 -0.15048253190E+03  0.15048253190E+03  0.00000000000E+00 0.  1.
         -6    2    1    2    0  503 -0.78853469055E+02 -0.17336871307E+03  0.78465665936E+01  0.25598114413E+03  0.17085138949E+03 0.  0.
        -24    2    3    3    0    0 -0.69327950046E+00 -0.49493357232E+02 -0.35681256415E+02  0.10310576877E+03  0.83111818943E+02 0.  0.
          6    2    1    2  501    0  0.78853469055E+02  0.17336871307E+03  0.59876886299E+03  0.65159934925E+03  0.17257746204E+03 0.  0.
         24    2    5    5    0    0  0.87184543750E+02  0.12983536113E+03  0.28228121407E+03  0.33198852112E+03  0.77944394758E+02 0.  0.
          5    1    5    5  501    0 -0.83310746942E+01  0.43533351944E+02  0.31648764892E+03  0.31961082813E+03  0.47000000000E+01 0. -1.
        -13    1    6    6    0    0 -0.10664786100E+01 -0.94464482402E+01  0.20658772367E+02  0.22741100165E+02  0.00000000000E+00 0.  1.
         14    1    6    6    0    0  0.88251022359E+02  0.13928180937E+03  0.26162244170E+03  0.30924742096E+03  0.00000000000E+00 0. -1.
         -5    1    3    3    0  503 -0.78160189555E+02 -0.12387535584E+03  0.43527823009E+02  0.15287537536E+03  0.47000000000E+01 0.  1.
         13    1    4    4    0    0  0.28926245227E+01 -0.11178780594E+02  0.27106590380E+02  0.29463530919E+02  0.00000000000E+00 0. -1.
        -14    1    4    4    0    0 -0.35859040232E+01 -0.38314576639E+02 -0.62787846795E+02  0.73642237852E+02  0.00000000000E+00 0.  1.
</event>
<event>
12    1  0.8113184E-002  0.1845292E+03  0.7818608E-02  0.1163551E+00
         21   -1    0    0  501  502  0.00000000000E+00  0.00000000000E+00  0.27268928654E+03  0.27268928654E+03  0.00000000000E+00 0.  1.
         21   -1    0    0  502  503 -0.00000000000E+00 -0.00000000000E+00 -0.20055710699E+03  0.20055710699E+03  0.00000000000E+00 0.  1.
         -6    2    1    2    0  503  0.33747531376E+02  0.57137759482E+02 -0.10944776495E+03  0.21454565557E+03  0.17218422006E+03 0.  0.
        -24    2    3    3    0    0 -0.44852855127E+02  0.56240069901E+02 -0.62458949408E+02  0.12284578975E+03  0.77558001668E+02 0.  0.
          6    2    1    2  501    0 -0.33747531376E+02 -0.57137759482E+02  0.18157994450E+03  0.25870073796E+03  0.17190455533E+03 0.  0.
         24    2    5    5    0    0 -0.40534858728E+02 -0.99223735553E+02  0.16661468230E+03  0.21327666651E+03  0.78981388008E+02 0.  0.
          5    1    5    5  501    0  0.67873273515E+01  0.42085976071E+02  0.14965262203E+02  0.45424071451E+02  0.47000000000E+01 0. -1.
        -13    1    6    6    0    0 -0.10156194973E+02 -0.10212058227E+03  0.12844081452E+03  0.16440439304E+03  0.00000000000E+00 0.  1.
         14    1    6    6    0    0 -0.30378663755E+02  0.28968467133E+01  0.38173867782E+02  0.48872273467E+02  0.00000000000E+00 0. -1.
         -5    1    3    3    0  503  0.78600386503E+02  0.89768958087E+00 -0.46988815540E+02  0.91699865817E+02  0.47000000000E+01 0.  1.
         11    1    4    4    0    0  0.12345421892E+02  0.23744855336E+02  0.65010115898E+01  0.27540710744E+02  0.00000000000E+00 0. -1.
        -12    1    4    4    0    0 -0.57198277019E+02  0.32495214565E+02 -0.68959960997E+02  0.95305079006E+02  0.00000000000E+00 0.  1.
</event>
<event>
12    1  0.8113184E-002  0.2057918E+03  0.7818608E-02  0.1145076E+00
         21   -1    0    0  503  502  0.00000000000E+00  0.00000000000E+00  0.12392256297E+04  0.12392256297E+04  0.00000000000E+00 0.  1.
         21   -1    0    0  501  503 -0.00000000000E+00 -0.00000000000E+00 -0.49736801619E+02  0.49736801619E+02  0.00000000000E+00 0.  1.
          6    2    1    2  501    0  0.11109385009E+03 -0.66785223809E+01  0.95714887107E+03  0.97902207692E+03  0.17310060517E+03 0.  0.
         24    2    3    3    0    0  0.47105662639E+02 -0.46612920350E+02  0.77325183945E+03  0.78020192574E+03  0.80030806085E+02 0.  0.
         -6    2    1    2    0  502 -0.11109385009E+03  0.66785223809E+01  0.23233995704E+03  0.30994035443E+03  0.17232156417E+03 0.  0.
        -24    2    5    5    0    0 -0.14364016321E+03  0.24830005419E+02  0.20373333677E+03  0.26272629342E+03  0.79175798583E+02 0.  0.
          5    1    3    3  501    0  0.63988187454E+02  0.39934397969E+02  0.18389703162E+03  0.19882015118E+03  0.47000000000E+01 0. -1.
        -13    1    4    4    0    0 -0.16955565163E+02 -0.16282373339E+02  0.37169979369E+03  0.37244240293E+03  0.00000000000E+00 0.  1.
         14    1    4    4    0    0  0.64061227801E+02 -0.30330547010E+02  0.40155204576E+03  0.40775952281E+03  0.00000000000E+00 0. -1.
         -5    1    5    5    0  502  0.32546313122E+02 -0.18151483038E+02  0.28606620263E+02  0.47214061011E+02  0.47000000000E+01 0.  1.
         11    1    6    6    0    0 -0.21678159766E+02  0.44712949614E+01  0.96654178366E+02  0.99156266998E+02  0.00000000000E+00 0. -1.
        -12    1    6    6    0    0 -0.12196200345E+03  0.20358710458E+02  0.10707915841E+03  0.16357002642E+03  0.00000000000E+00 0.  1.
</event>
<event>
12    1  0.8113184E-002  0.1915620E+03  0.7818608E-02  0.1157564E+00
         21   -1    0    0  503  502  0.00000000000E+00  0.00000000000E+00  0.72692765295E+03  0.72692765295E+03  0.00000000000E+00 0. -1.
         21   -1    0    0  501  503 -0.00000000000E+00 -0.00000000000E+00 -0.51552539304E+02  0.51552539304E+02  0.00000000000E+00 0. -1.
          6    2    1    2  501    0 -0.77979511115E+01 -0.85011484889E+02  0.40950325114E+03  0.45209394090E+03  0.17148836143E+03 0.  0.
         24    2    3    3    0    0 -0.51666881236E+02 -0.22726886074E+01  0.24525046525E+03  0.26296102703E+03  0.79536653805E+02 0.  0.
         -6    2    1    2    0  502  0.77979511115E+01  0.85011484889E+02  0.26587186251E+03  0.32638625135E+03  0.16897448681E+03 0.  0.
        -24    2    5    5    0    0  0.16846794353E+02  0.11814177810E+03  0.15384881465E+03  0.20912265451E+03  0.76298968846E+02 0.  0.
          5    1    3    3  501    0  0.43868930125E+02 -0.82738796281E+02  0.16425278589E+03  0.18913291388E+03  0.47000000000E+01 0. -1.
        -11    1    4    4    0    0 -0.61079350340E+02 -0.26233511987E+02  0.14590784620E+03  0.16033709419E+03  0.00000000000E+00 0.  1.
         12    1    4    4    0    0  0.94124691042E+01  0.23960823380E+02  0.99342619053E+02  0.10262393284E+03  0.00000000000E+00 0. -1.
         -5    1    5    5    0  502 -0.90488432414E+01 -0.33130293215E+02  0.11202304785E+03  0.11726359683E+03  0.47000000000E+01 0.  1.
         13    1    6    6    0    0  0.73702773333E+01  0.65950136702E+02  0.13901606012E+03  0.15404287225E+03  0.00000000000E+00 0. -1.
        -14    1    6    6    0    0  0.94765170196E+01  0.52191641402E+02  0.14832754528E+02  0.55079782261E+02  0.00000000000E+00 0.  1.
</event>
<event>
12    1  0.8113184E-002  0.2627767E+03  0.7818608E-02  0.1105600E+00
         21   -1    0    0  503  502  0.00000000000E+00  0.00000000000E+00  0.70608069434E+03  0.70608069434E+03  0.00000000000E+00 0.  1.
         21   -1    0    0  501  503 -0.00000000000E+00 -0.00000000000E+00 -0.24468134729E+03  0.24468134729E+03  0.00000000000E+00 0.  1.
          6    2    1    2  501    0 -0.19674656695E+03  0.11582166695E+02 -0.13784742332E+03  0.29673813557E+03  0.17380520934E+03 0.  0.
         24    2    3    3    0    0 -0.16719935609E+03  0.69083422462E+02 -0.11190404931E+03  0.22691993780E+03  0.79006316101E+02 0.  0.
         -6    2    1    2    0  502  0.19674656695E+03 -0.11582166695E+02  0.59924677037E+03  0.65402390607E+03  0.17264767510E+03 0.  0.
        -24    2    5    5    0    0  0.12053871523E+03 -0.73913770900E+02  0.34115252288E+03  0.37774941189E+03  0.79477964980E+02 0.  0.
          5    1    3    3  501    0 -0.29547210856E+02 -0.57501255768E+02 -0.25943374004E+02  0.69818197764E+02  0.47000000000E+01 0. -1.
        -13    1    4    4    0    0 -0.96693705771E+02  0.45922490064E+02 -0.10881854929E+03  0.15264345548E+03  0.00000000000E+00 0.  1.
         14    1    4    4    0    0 -0.70505650320E+02  0.23160932398E+02 -0.30855000201E+01  0.74276482328E+02  0.00000000000E+00 0. -1.
         -5    1    5    5    0  502  0.76207851719E+02  0.62331604205E+02  0.25809424749E+03  0.27627449418E+03  0.47000000000E+01 0.  1.
         11    1    6    6    0    0  0.67816621211E+01  0.15659716560E+02  0.28929794851E+02  0.33587954597E+02  0.00000000000E+00 0. -1.
        -12    1    6    6    0    0  0.11375705311E+03 -0.89573487460E+02  0.31222272803E+03  0.34416145730E+03  0.00000000000E+00 0.  1.
</event>
<event>
12    1  0.8113184E-002  0.2130168E+03  0.7818608E-02  0.1139236E+00
         21   -1    0    0  503  502  0.00000000000E+00  0.00000000000E+00  0.10404357372E+03  0.10404357372E+03  0.00000000000E+00 0.  1.
         21   -1    0    0  501  503 -0.00000000000E+00 -0.00000000000E+00 -0.46886563251E+03  0.46886563251E+03  0.00000000000E+00 0. -1.
          6    2    1    2  501    0 -0.89268764977E+02 -0.88817868910E+02 -0.25847929917E+03  0.33482324388E+03  0.17157368767E+03 0.  0.
         24    2    3    3    0    0 -0.75144758913E+02 -0.72536901075E+02 -0.78291622818E+02  0.15329019958E+03  0.80373940266E+02 0.  0.
         -6    2    1    2    0  502  0.89268764977E+02  0.88817868910E+02 -0.10634275962E+03  0.23808596235E+03  0.17180982716E+03 0.  0.
        -24    2    5    5    0    0  0.10520453578E+03  0.18861942572E+02 -0.39717384528E+02  0.14006141937E+03  0.81338572245E+02 0.  0.
          5    1    3    3  501    0 -0.14124006063E+02 -0.16280967835E+02 -0.18018767636E+03  0.18153304430E+03  0.47000000000E+01 0. -1.
        -13    1    4    4    0    0 -0.49838132587E+02  0.26975286996E+01 -0.16074354415E+02  0.52435684326E+02  0.00000000000E+00 0.  1.
         14    1    4    4    0    0 -0.25306626326E+02 -0.75234429774E+02 -0.62217268403E+02  0.10085451525E+03  0.00000000000E+00 0. -1.
         -5    1    5    5    0  502 -0.15935770806E+02  0.69955926338E+02 -0.66625375095E+02  0.98024542986E+02  0.47000000000E+01 0.  1.
         11    1    6    6    0    0  0.39780360119E+02  0.31191213157E+02 -0.51822221318E+02  0.72394139623E+02  0.00000000000E+00 0. -1.
        -12    1    6    6    0    0  0.65424175664E+02 -0.12329270585E+02  0.12104836790E+02  0.67667279745E+02  0.00000000000E+00 0.  1.
</event>
<event>
12    1  0.8113184E-002  0.1899612E+03  0.7818608E-02  0.1158740E+00
         21   -1    0    0  503  502  0.00000000000E+00  0.00000000000E+00  0.82841831316E+02  0.82841831316E+02  0.00000000000E+00 0. -1.
         21   -1    0    0  501  503 -0.00000000000E+00 -0.00000000000E+00 -0.46221670157E+03  0.46221670157E+03  0.00000000000E+00 0. -1.
          6    2    1    2  501    0 -0.80434122481E+02 -0.15108514705E+02 -0.25856465386E+03  0.32084412814E+03  0.17142741629E+03 0.  0.
         24    2    3    3    0    0 -0.12087185403E+02 -0.50748039206E+02 -0.20739625285E+03  0.22820625912E+03  0.79645636840E+02 0.  0.
         -6    2    1    2    0  502  0.80434122481E+02  0.15108514705E+02 -0.12081021640E+03  0.22421440475E+03  0.17023241653E+03 0.  0.
        -24    2    5    5    0    0  0.10028745345E+03 -0.36496727207E+02 -0.80322322893E+02  0.15552222715E+03  0.79661177294E+02 0.  0.
          5    1    3    3  501    0 -0.68346937077E+02  0.35639524502E+02 -0.51168401008E+02  0.92637869019E+02  0.47000000000E+01 0. -1.
        -11    1    4    4    0    0 -0.86596534669E+01 -0.54068799109E+02 -0.61948991432E+02  0.82680724324E+02  0.00000000000E+00 0.  1.
         12    1    4    4    0    0 -0.34275319364E+01  0.33207599025E+01 -0.14544726142E+03  0.14552553479E+03  0.00000000000E+00 0. -1.
         -5    1    5    5    0  502 -0.19853330968E+02  0.51605241911E+02 -0.40487893502E+02  0.68692177601E+02  0.47000000000E+01 0.  1.
         11    1    6    6    0    0  0.61445886343E+02  0.12453784799E+02 -0.66750416442E+02  0.91576808197E+02  0.00000000000E+00 0. -1.
        -12    1    6    6    0    0  0.38841567105E+02 -0.48950512006E+02 -0.13571906451E+02  0.63945418957E+02  0.00000000000E+00 0.  1.
</event>
<event>
12    1  0.8113184E-002  0.1828574E+03  0.7818608E-02  0.1165385E+00
         21   -1    0    0  501  502  0.00000000000E+00  0.00000000000E+00  0.22222036044E+03  0.22222036044E+03  0.00000000000E+00 0.  1.
         21   -1    0    0  502  503 -0.00000000000E+00 -0.00000000000E+00 -0.17658993485E+03  0.17658993485E+03  0.00000000000E+00 0.  1.
         -6    2    1    2    0  503 -0.38997813676E+02 -0.42676051341E+02  0.10103940788E+03  0.20774226472E+03  0.17206339465E+03 0.  0.
        -24    2    3    3    0    0  0.41170306881E+02 -0.44067255447E+02  0.41513490967E+02  0.10777082987E+03  0.79083909023E+02 0.  0.
          6    2    1    2  501    0  0.38997813676E+02  0.42676051341E+02 -0.55408982301E+02  0.19106803057E+03  0.17347841986E+03 0.  0.
         24    2    5    5    0    0  0.30196747775E+02  0.53434100887E+02  0.30785940140E+02  0.10363320315E+03  0.77621002129E+02 0.  0.
          5    1    5    5  501    0  0.88010659008E+01 -0.10758049546E+02 -0.86194922441E+02  0.87434827418E+02  0.47000000000E+01 0. -1.
        -13    1    6    6    0    0  0.31859634323E+02 -0.54474334771E+01  0.30917426240E+02  0.44728045744E+02  0.00000000000E+00 0.  1.
         14    1    6    6    0    0 -0.16628865479E+01  0.58881534364E+02 -0.13148610050E+00  0.58905157409E+02  0.00000000000E+00 0. -1.
         -5    1    3    3    0  503 -0.80168120557E+02  0.13912041065E+01  0.59525916918E+02  0.99971434857E+02  0.47000000000E+01 0.  1.
         11    1    4    4    0    0  0.19787024589E+02  0.83963176217E+01  0.46167481848E+02  0.50926033342E+02  0.00000000000E+00 0. -1.
        -12    1    4    4    0    0  0.21383282292E+02 -0.52463573069E+02 -0.46539908818E+01  0.56844796524E+02  0.00000000000E+00 0.  1.
</event>
<event>
12    1  0.8113184E-002  0.2734926E+03  0.7818608E-02  0.1100989E+00
         21   -1    0    0  501  502  0.00000000000E+00  0.00000000000E+00  0.26369684447E+03  0.26369684447E+03  0.00000000000E+00 0.  1.
         21   -1    0    0  502  503 -0.00000000000E+00 -0.00000000000E+00 -0.27499596858E+03  0.27499596858E+03  0.00000000000E+00 0.  1.
         -6    2    1    2    0  503 -0.19612147680E+03  0.15995354748E+02 -0.35436959374E+02  0.26413707516E+03  0.17260686936E+03 0.  0.
        -24    2    3    3    0    0 -0.97530642123E+02 -0.34358189395E+02 -0.69498365598E+02  0.14821511225E+03  0.80280666094E+02 0.  0.
          6    2    1    2  501    0  0.19612147680E+03 -0.15995354748E+02  0.24137835264E+02  0.27455573790E+03  0.18994402619E+03 0.  0.
         24    2    5    5    0    0  0.91363286152E+02  0.56260789467E+01  0.87782649366E+02  0.14999845282E+03  0.80092693167E+02 0.  0.
          5    1    5    5  501    0  0.10475819065E+03 -0.21621433695E+02 -0.63644814101E+02  0.12455728507E+03  0.47000000000E+01 0. -1.
        -13    1    6    6    0    0  0.81919097373E+02  0.36197775159E+02  0.62375277020E+02  0.10914070104E+03  0.00000000000E+00 0.  1.
         14    1    6    6    0    0  0.94441887792E+01 -0.30571696212E+02  0.25407372346E+02  0.40857751780E+02  0.00000000000E+00 0. -1.
         -5    1    3    3    0  503 -0.98590834678E+02  0.50353544143E+02  0.34061406224E+02  0.11592196291E+03  0.47000000000E+01 0.  1.
         13    1    4    4    0    0 -0.80090969053E+01  0.16309426383E+01  0.16853982156E+02  0.18731319272E+02  0.00000000000E+00 0. -1.
        -14    1    4    4    0    0 -0.89521545217E+02 -0.35989132033E+02 -0.86352347754E+02  0.12948379298E+03  0.00000000000E+00 0.  1.
</event>
<event>
12    1  0.8113184E-002  0.2739781E+03  0.7818608E-02  0.1099789E+00
         21   -1    0    0  501  502  0.00000000000E+00  0.00000000000E+00  0.42022378408E+03  0.42022378408E+03  0.00000000000E+00 0.  1.
         21   -1    0    0  502  503 -0.00000000000E+00 -0.00000000000E+00 -0.28260488804E+03  0.28260488804E+03  0.00000000000E+00 0.  1.
         -6    2    1    2    0  503 -0.11917502678E+02 -0.20656435555E+03  0.28593568037E+03  0.39600907243E+03  0.17959151507E+03 0.  0.
        -24    2    3    3    0    0 -0.64553212409E+02 -0.16803767472E+03  0.16524866197E+03  0.25874192602E+03  0.85067541640E+02 0.  0.
          6    2    1    2  501    0  0.11917502678E+02  0.20656435555E+03 -0.14831678433E+03  0.30681959969E+03  0.17125868849E+03 0.  0.
         24    2    5    5    0    0  0.71382763991E+01  0.23832279521E+02 -0.77568995191E+02  0.11075534419E+03  0.75039087916E+02 0.  0.
          5    1    5    5  501    0  0.47792262786E+01  0.18273207603E+03 -0.70747789141E+02  0.19606425549E+03  0.47000000000E+01 0. -1.
        -11    1    6    6    0    0  0.99331628758E+01  0.50328276104E+02 -0.59510195772E+02  0.78568864705E+02  0.00000000000E+00 0.  1.
         12    1    6    6    0    0 -0.27948864767E+01 -0.26495996583E+02 -0.18058799420E+02  0.32186479488E+02  0.00000000000E+00 0. -1.
         -5    1    3    3    0  503  0.52635709731E+02 -0.38526680836E+02  0.12068701839E+03  0.13726714641E+03  0.47000000000E+01 0.  1.
         11    1    4    4    0    0 -0.28197027675E+02 -0.14405496905E+03  0.91136889632E+02  0.17277974167E+03  0.00000000000E+00 0. -1.
        -12    1    4    4    0    0 -0.36356184733E+02 -0.23982705663E+02  0.74111772342E+02  0.85962184354E+02  0.00000000000E+00 0.  1.
</event>
<event>
12    1  0.8113184E-002  0.1793796E+03  0.7818608E-02  0.1168777E+00
         21   -1    0    0  503  502  0.00000000000E+00  0.00000000000E+00  0.47754743525E+02  0.47754743525E+02  0.00000000000E+00 0.  1.
         21   -1    0    0  501  503 -0.00000000000E+00 -0.00000000000E+00 -0.74176885853E+03  0.74176885853E+03  0.00000000000E+00 0.  1.
          6    2    1    2  501    0  0.44751051409E+02 -0.35999599402E+01 -0.47275455375E+03  0.50564208087E+03  0.17367046251E+03 0.  0.
         24    2    3    3    0    0 -0.39623632874E+02 -0.36279478006E+02 -0.23286654885E+03  0.24921395616E+03  0.70672014026E+02 0.  0.
         -6    2    1    2    0  502 -0.44751051409E+02  0.35999599402E+01 -0.22125956126E+03  0.28388152118E+03  0.17209679923E+03 0.  0.
        -24    2    5    5    0    0 -0.43588156907E+02 -0.31816263956E+02 -0.57343511605E+02  0.11611316131E+03  0.85333380530E+02 0.  0.
          5    1    3    3  501    0  0.84374684282E+02  0.32679518066E+02 -0.23988800490E+03  0.25642812472E+03  0.47000000000E+01 0. -1.
        -13    1    4    4    0    0 -0.27382848374E+01 -0.34744210835E+02 -0.40924163408E+02  0.53753563054E+02  0.00000000000E+00 0.  1.
         14    1    4    4    0    0 -0.36885348036E+02 -0.15352671709E+01 -0.19194238544E+03  0.19546039311E+03  0.00000000000E+00 0. -1.
         -5    1    5    5    0  502 -0.11628945019E+01  0.35416223896E+02 -0.16391604965E+03  0.16776835987E+03  0.47000000000E+01 0.  1.
         11    1    6    6    0    0 -0.32764449526E+02 -0.53633582715E+02 -0.65163656909E+02  0.90533819810E+02  0.00000000000E+00 0. -1.
        -12    1    6    6    0    0 -0.10823707381E+02  0.21817318759E+02  0.78201453038E+01  0.25579341505E+02  0.00000000000E+00 0.  1.
</event>
<event>
12    1  0.8113184E-002  0.2137236E+03  0.7818608E-02  0.1138694E+00
         21   -1    0    0  501  502  0.00000000000E+00  0.00000000000E+00  0.18980160379E+03  0.18980160379E+03  0.00000000000E+00 0. -1.
         21   -1    0    0  502  503 -0.00000000000E+00 -0.00000000000E+00 -0.28678217754E+03  0.28678217754E+03  0.00000000000E+00 0.  1.
         -6    2    1    2    0  503 -0.54028685312E+01  0.12705117676E+03 -0.14429175895E+03  0.25768626316E+03  0.17149608164E+03 0.  0.
        -24    2    3    3    0    0 -0.28080138319E+02  0.96818264816E+02 -0.16896589738E+03  0.21230795736E+03  0.79767936611E+02 0.  0.
          6    2    1    2  501    0  0.54028685312E+01 -0.12705117676E+03  0.47311185195E+02  0.21889751817E+03  0.17177480232E+03 0.  0.
         24    2    5    5    0    0  0.26102285883E+02 -0.15570022989E+03  0.46289255428E+02  0.18322724393E+03  0.80657528071E+02 0.  0.
          5    1    5    5  501    0 -0.20699417352E+02  0.28649053126E+02  0.10219297674E+01  0.35670274238E+02  0.47000000000E+01 0. -1.
        -11    1    6    6    0    0 -0.54613133970E+01 -0.56003678894E+02 -0.19648271162E+02  0.59601112014E+02  0.00000000000E+00 0.  1.
         12    1    6    6    0    0  0.31563599280E+02 -0.99696550995E+02  0.65937526590E+02  0.12362613192E+03  0.00000000000E+00 0. -1.
         -5    1    3    3    0  503  0.22677269788E+02  0.30232911947E+02  0.24674138436E+02  0.45378305801E+02  0.47000000000E+01 0.  1.
         13    1    4    4    0    0  0.30807067787E+01 -0.12346024350E+02 -0.70140438293E+01  0.14529689685E+02  0.00000000000E+00 0. -1.
        -14    1    4    4    0    0 -0.31160845098E+02  0.10916428917E+03 -0.16195185355E+03  0.19777826768E+03  0.00000000000E+00 0.  1.
</event>
<event>
12    1  0.8113184E-002  0.1934736E+03  0.7818608E-02  0.1155561E+00
         21   -1    0    0  501  502  0.00000000000E+00  0.00000000000E+00  0.38594052449E+02  0.38594052449E+02  0.00000000000E+00 0. -1.
         21   -1    0    0  502  503 -0.00000000000E+00 -0.00000000000E+00 -0.15110148033E+04  0.15110148033E+04  0.00000000000E+00 0. -1.
         -6    2    1    2    0  503 -0.25227413044E+02 -0.84987123149E+02 -0.12006958297E+04  0.12160425942E+04  0.17096748826E+03 0.  0.
        -24    2    3    3    0    0  0.12397959352E+01 -0.10895980490E+03 -0.63227679322E+03  0.64648355984E+03  0.79330156410E+02 0.  0.
          6    2    1    2  501    0  0.25227413044E+02  0.84987123149E+02 -0.27172492119E+03  0.33356626156E+03  0.17196739397E+03 0.  0.
         24    2    5    5    0    0 -0.30883043183E+02  0.30815048884E+01 -0.17450620051E+03  0.19453215334E+03  0.80169112724E+02 0.  0.
          5    1    5    5  501    0  0.56110456227E+02  0.81905618261E+02 -0.97218720675E+02  0.13903410823E+03  0.47000000000E+01 0. -1.
        -13    1    6    6    0    0  0.13892410360E+02 -0.58855815299E+01 -0.10037874530E+01  0.15121068904E+02  0.00000000000E+00 0.  1.
         14    1    6    6    0    0 -0.44775453543E+02  0.89670864182E+01 -0.17350241306E+03  0.17941108443E+03  0.00000000000E+00 0. -1.
         -5    1    3    3    0  503 -0.26467208979E+02  0.23972681754E+02 -0.56841903647E+03  0.56955903438E+03  0.47000000000E+01 0.  1.
         11    1    4    4    0    0 -0.17799851571E+01 -0.55767734641E+02 -0.51078195942E+03  0.51382041478E+03  0.00000000000E+00 0. -1.
        -12    1    4    4    0    0  0.30197810924E+01 -0.53192070262E+02 -0.12149483380E+03  0.13266314506E+03  0.00000000000E+00 0.  1.
</event>
<event>
12    1  0.8113184E-002  0.1918808E+03  0.7818608E-02  0.1157125E+00
         21   -1    0    0  501  502  0.00000000000E+00  0.00000000000E+00  0.76078790619E+02  0.76078790619E+02  0.00000000000E+00 0.  1.
         21   -1    0    0  502  503 -0.00000000000E+00 -0.00000000000E+00 -0.14788689808E+04  0.14788689808E+04  0.00000000000E+00 0.  1.
         -6    2    1    2    0  503 -0.18062763648E+01  0.85900123027E+02 -0.13412788049E+04  0.13549343464E+04  0.17156968547E+03 0.  0.
        -24    2    3    3    0    0  0.22093461565E+02  0.11222373139E+03 -0.77333010019E+03  0.78585443027E+03  0.80283589752E+02 0.  0.
          6    2    1    2  501    0  0.18062763648E+01 -0.85900123027E+02 -0.61511385350E+02  0.20001342503E+03  0.16982233626E+03 0.  0.
         24    2    5    5    0    0 -0.47398464597E+02 -0.31414307845E+02  0.94360136164E+01  0.97810518958E+02  0.79021427994E+02 0.  0.
          5    1    5    5  501    0  0.49204740962E+02 -0.54485815182E+02 -0.70947398967E+02  0.10220290607E+03  0.47000000000E+01 0. -1.
        -11    1    6    6    0    0 -0.31534180307E+02 -0.40605779302E+01  0.41829880667E+02  0.52541714260E+02  0.00000000000E+00 0.  1.
         12    1    6    6    0    0 -0.15864284290E+02 -0.27353729915E+02 -0.32393867050E+02  0.45268804698E+02  0.00000000000E+00 0. -1.
         -5    1    3    3    0  503 -0.23899737930E+02 -0.26323608358E+02 -0.56794870469E+03  0.56907991617E+03  0.47000000000E+01 0.  1.
         13    1    4    4    0    0  0.29061957574E+02  0.54564267654E+02 -0.59729534596E+03  0.60048612556E+03  0.00000000000E+00 0. -1.
        -14    1    4    4    0    0 -0.69684960087E+01  0.57659463732E+02 -0.17603475423E+03  0.18536830471E+03  0.00000000000E+00 0.  1.
</event>
<event>
12    1  0.8113184E-002  0.1969561E+03  0.7818608E-02  0.1152432E+00
         21   -1    0    0  503  502  0.00000000000E+00  0.00000000000E+00  0.56012528169E+03  0.56012528169E+03  0.00000000000E+00 0.  1.
         21   -1    0    0  501  503 -0.00000000000E+00 -0.00000000000E+00 -0.72802470472E+02  0.72802470472E+02  0.00000000000E+00 0. -1.
          6    2    1    2  501    0 -0.66466674537E+02 -0.68973094283E+02  0.17250212179E+03  0.26181803264E+03  0.17209472285E+03 0.  0.
         24    2    3    3    0    0  0.43493742714E+01 -0.47021693064E+01  0.22138039622E+02  0.83556674589E+02  0.80315612538E+02 0.  0.
         -6    2    1    2    0  502  0.66466674537E+02  0.68973094283E+02  0.31482068943E+03  0.37110971953E+03  0.17156704484E+03 0.  0.
        -24    2    5    5    0    0 -0.98180990880E+01 -0.78899849650E+01  0.86296561545E+02  0.11818153473E+03  0.79756703070E+02 0.  0.
          5    1    3    3  501    0 -0.70816048809E+02 -0.64270924977E+02  0.15036408217E+03  0.17826135805E+03  0.47000000000E+01 0. -1.
        -13    1    4    4    0    0 -0.34620976532E+02  0.15260173541E+01 -0.58900641082E+01  0.35151580337E+02  0.00000000000E+00 0.  1.
         14    1    4    4    0    0  0.38970350804E+02 -0.62281866605E+01  0.28028103730E+02  0.48405094252E+02  0.00000000000E+00 0. -1.
         -5    1    5    5    0  502  0.76284773626E+02  0.76863079248E+02  0.22852412788E+03  0.25292818479E+03  0.47000000000E+01 0.  1.
         11    1    6    6    0    0  0.20782793198E+02 -0.80921109609E+01  0.84646692007E+02  0.87535531189E+02  0.00000000000E+00 0. -1.
        -12    1    6    6    0    0 -0.30600892286E+02  0.20212599591E+00  0.16498695381E+01  0.30646003542E+02  0.00000000000E+00 0.  1.
</event>
<event>
12    1  0.8113184E-002  0.2100274E+03  0.7818608E-02  0.1141731E+00
         21   -1    0    0  503  502  0.00000000000E+00  0.00000000000E+00  0.12709610274E+03  0.12709610274E+03  0.00000000000E+00 0.  1.
         21   -1    0    0  501  503 -0.00000000000E+00 -0.00000000000E+00 -0.63816498657E+03  0.63816498657E+03  0.00000000000E+00 0.  1.
          6    2    1    2  501    0 -0.14980291011E+00  0.11942599020E+03 -0.51495336267E+03  0.55613711446E+03  0.17276844266E+03 0.  0.
         24    2    3    3    0    0  0.33814105709E+02  0.37610841205E+02 -0.39938965672E+03  0.41045140539E+03  0.80001807317E+02 0.  0.
         -6    2    1    2    0  502  0.14980291011E+00 -0.11942599020E+03  0.38844788322E+01  0.20912397485E+03  0.17162505093E+03 0.  0.
        -24    2    5    5    0    0  0.44767036593E+02 -0.23361216382E+02  0.30706275918E+02  0.99759277125E+02  0.80369173168E+02 0.  0.
          5    1    3    3  501    0 -0.33963908620E+02  0.81815148990E+02 -0.11556370595E+03  0.14568570906E+03  0.47000000000E+01 0. -1.
        -11    1    4    4    0    0  0.18207284387E+02  0.59756330444E+02 -0.33188768765E+03  0.33771550371E+03  0.00000000000E+00 0.  1.
         12    1    4    4    0    0  0.15606821322E+02 -0.22145489238E+02 -0.67501969069E+02  0.72735901683E+02  0.00000000000E+00 0. -1.
         -5    1    5    5    0  502 -0.44617233683E+02 -0.96064773813E+02 -0.26821797085E+02  0.10936469772E+03  0.47000000000E+01 0.  1.
         11    1    6    6    0    0  0.16980628205E+02 -0.42655403467E+02  0.43830920198E+02  0.63474205348E+02  0.00000000000E+00 0. -1.
        -12    1    6    6    0    0  0.27786408388E+02  0.19294187085E+02 -0.13124644281E+02  0.36285071777E+02  0.00000000000E+00 0.  1.
</event>
<event>
12    1  0.8113184E-002  0.2011545E+03  0.7818608E-02  0.1148829E+00
         21   -1    0    0  501  502  0.00000000000E+00  0.00000000000E+00  0.11998695258E+04  0.11998695258E+04  0.00000000000E+00 0.  1.
         21   -1    0    0  502  503 -0.00000000000E+00 -0.00000000000E+00 -0.34820232861E+02  0.34820232861E+02  0.00000000000E+00 0. -1.
         -6    2    1    2    0  503 -0.91759848580E+02  0.47554828720E+02  0.47012204355E+03  0.51123485377E+03  0.17223532837E+03 0.  0.
        -24    2    3    3    0    0 -0.48391244410E+02 -0.32517198439E+02  0.33189428258E+03  0.34564086456E+03  0.76907162972E+02 0.  0.
          6    2    1    2  501    0  0.91759848580E+02 -0.47554828720E+02  0.69492724939E+03  0.72345490488E+03  0.17257400126E+03 0.  0.
         24    2    5    5    0    0  0.11540364259E+03 -0.63442183262E+02  0.66208946742E+03  0.67973023274E+03  0.79547564983E+02 0.  0.
          5    1    5    5  501    0 -0.23643794007E+02  0.15887354542E+02  0.32837781969E+02  0.43724672143E+02  0.47000000000E+01 0. -1.
        -13    1    6    6    0    0  0.11963865842E+03 -0.55763970990E+02  0.49150730305E+03  0.50892284091E+03  0.00000000000E+00 0.  1.
         14    1    6    6    0    0 -0.42350158338E+01 -0.76782122719E+01  0.17058216437E+03  0.17080739183E+03  0.00000000000E+00 0. -1.
         -5    1    3    3    0  503 -0.43368604169E+02  0.80072027160E+02  0.13822776097E+03  0.16559398921E+03  0.47000000000E+01 0.  1.
         13    1    4    4    0    0 -0.89819904746E+01 -0.32345711310E+02  0.45477103727E+02  0.56525110849E+02  0.00000000000E+00 0. -1.
        -14    1    4    4    0    0 -0.39409253936E+02 -0.17148712902E+00  0.28641717885E+03  0.28911575371E+03  0.00000000000E+00 0.  1.
</event>
<event>
12    1  0.8113184E-002  0.1907899E+03  0.7818608E-02  0.1157831E+00
         21   -1    0    0  501  502  0.00000000000E+00  0.00000000000E+00  0.12661167235E+04  0.12661167235E+04  0.00000000000E+00 0. -1.
         21   -1    0    0  502  503 -0.00000000000E+00 -0.00000000000E+00 -0.30249421761E+03  0.30249421761E+03  0.00000000000E+00 0. -1.
         -6    2    1    2    0  503 -0.89505159771E+02 -0.10658853791E+02 -0.26440810387E+03  0.32584790151E+03  0.16775107968E+03 0.  0.
        -24    2    3    3    0    0 -0.46331402339E+02  0.52278043963E+02 -0.10160433921E+03  0.14598077773E+03  0.78149555315E+02 0.  0.
          6    2    1    2  501    0  0.89505159771E+02  0.10658853791E+02  0.12280306097E+04  0.12427630396E+04  0.16815471830E+03 0.  0.
         24    2    5    5    0    0  0.51603425373E+01 -0.40542240547E+02  0.50232001405E+03  0.51036044608E+03  0.80449276001E+02 0.  0.
          5    1    5    5  501    0  0.84344817234E+02  0.51201094338E+02  0.72571059569E+03  0.73240259349E+03  0.47000000000E+01 0. -1.
        -13    1    6    6    0    0 -0.32388885942E+02 -0.67240239583E+01  0.30028635032E+03  0.30210287092E+03  0.00000000000E+00 0.  1.
         14    1    6    6    0    0  0.37549228479E+02 -0.33818216588E+02  0.20203366372E+03  0.20825757516E+03  0.00000000000E+00 0. -1.
         -5    1    3    3    0  503 -0.43173757431E+02 -0.62936897754E+02 -0.16280376466E+03  0.17986712378E+03  0.47000000000E+01 0.  1.
         13    1    4    4    0    0  0.15314862405E+02  0.30705612780E+02 -0.58198781303E+02  0.67560919264E+02  0.00000000000E+00 0. -1.
        -14    1    4    4    0    0 -0.61646264744E+02  0.21572431183E+02 -0.43405557908E+02  0.78419858463E+02  0.00000000000E+00 0.  1.
</event>
<event>
12    1  0.8113184E-002  0.1738720E+03  0.7818608E-02  0.1174251E+00
         21   -1    0    0  501  502  0.00000000000E+00  0.00000000000E+00  0.67639381270E+02  0.67639381270E+02  0.00000000000E+00 0. -1.
         21   -1    0    0  502  503 -0.00000000000E+00 -0.00000000000E+00 -0.45468815229E+03  0.45468815229E+03  0.00000000000E+00 0. -1.
         -6    2    1    2    0  503 -0.99200430384E+01 -0.71498361017E+01 -0.23603314279E+03  0.29316056900E+03  0.17344148094E+03 0.  0.
        -24    2    3    3    0    0 -0.83668226801E+01  0.21785061112E+02 -0.24958477692E+03  0.26082827002E+03  0.72071027210E+02 0.  0.
          6    2    1    2  501    0  0.99200430384E+01  0.71498361017E+01 -0.15101562822E+03  0.22916696456E+03  0.17193676240E+03 0.  0.
         24    2    5    5    0    0  0.95405638166E+01  0.39847711890E+02 -0.17262005876E+02  0.91393902687E+02  0.79849897312E+02 0.  0.
          5    1    5    5  501    0  0.37947922181E+00 -0.32697875788E+02 -0.13375362235E+03  0.13777306187E+03  0.47000000000E+01 0. -1.
        -11    1    6    6    0    0 -0.71319059965E+01  0.17162509167E+02 -0.46940956327E+02  0.50486326713E+02  0.00000000000E+00 0.  1.
         12    1    6    6    0    0  0.16672469813E+02  0.22685202723E+02  0.29678950451E+02  0.40907575975E+02  0.00000000000E+00 0. -1.
         -5    1    3    3    0  503 -0.15532203584E+01 -0.28934897214E+02  0.13551634122E+02  0.32332298984E+02  0.47000000000E+01 0.  1.
         13    1    4    4    0    0 -0.15123797160E+02 -0.15809698037E+02 -0.18105580699E+03  0.18237291750E+03  0.00000000000E+00 0. -1.
        -14    1    4    4    0    0  0.67569744799E+01  0.37594759149E+02 -0.68528969921E+02  0.78455352514E+02  0.00000000000E+00 0.  1.
</event>
<event>
12    1  0.8113184E-002  0.2524730E+03  0.7818608E-02  0.1111925E+00
         21   -1    0    0  501  502  0.00000000000E+00  0.00000000000E+00  0.40927945342E+03  0.40927945342E+03  0.00000000000E+00 0.  1.
         21   -1    0    0  502  503 -0.00000000000E+00 -0.00000000000E+00 -0.15532167881E+03  0.15532167881E+03  0.00000000000E+00 0. -1.
         -6    2    1    2    0  503 -0.17573493705E+03 -0.55550326627E+02  0.13884345922E+03  0.28813211085E+03  0.17255144232E+03 0.  0.
        -24    2    3    3    0    0 -0.19973368891E+03 -0.65295784721E+02  0.13029236932E+03  0.26045314441E+03  0.81869731548E+02 0.  0.
          6    2    1    2  501    0  0.17573493705E+03  0.55550326627E+02  0.11511431539E+03  0.27646902138E+03  0.17092456606E+03 0.  0.
         24    2    5    5    0    0  0.77440652014E+02  0.90374936343E+01  0.12178672699E+03  0.16741939423E+03  0.84371297356E+02 0.  0.
          5    1    5    5  501    0  0.98294285039E+02  0.46512832993E+02 -0.66724115994E+01  0.10904962715E+03  0.47000000000E+01 0. -1.
        -13    1    6    6    0    0  0.67095012180E+02  0.37554747765E+01  0.27809469375E+02  0.72726960868E+02  0.00000000000E+00 0.  1.
         14    1    6    6    0    0  0.10345639834E+02  0.52820188578E+01  0.93977257617E+02  0.94692433362E+02  0.00000000000E+00 0. -1.
         -5    1    3    3    0  503  0.23998751862E+02  0.97454580936E+01  0.85510899015E+01  0.27678966434E+02  0.47000000000E+01 0.  1.
         11    1    4    4    0    0 -0.17496083520E+03 -0.23348148156E+02  0.10747934880E+03  0.20665972103E+03  0.00000000000E+00 0. -1.
        -12    1    4    4    0    0 -0.24772853710E+02 -0.41947636564E+02  0.22813020511E+02  0.53793423382E+02  0.00000000000E+00 0.  1.
</event>
<event>
12    1  0.8113184E-002  0.1742664E+03  0.7818608E-02  0.1173542E+00
         21   -1    0    0  503  502  0.00000000000E+00  0.00000000000E+00  0.58735418252E+02  0.58735418252E+02  0.00000000000E+00 0. -1.
         21   -1    0    0  501  503 -0.00000000000E+00 -0.00000000000E+00 -0.72454817239E+03  0.72454817239E+03  0.00000000000E+00 0. -1.
          6    2    1    2  501    0  0.82071516843E+01 -0.27945185641E+02 -0.54272853695E+03  0.56993290993E+03  0.17152540993E+03 0.  0.
         24    2    3    3    0    0  0.15374903276E+02 -0.59364917557E+01 -0.54022192180E+03  0.54618143863E+03  0.78757917186E+02 0.  0.
         -6    2    1    2    0  502 -0.82071516843E+01  0.27945185641E+02 -0.12308421718E+03  0.21335068071E+03  0.17181530113E+03 0.  0.
        -24    2    5    5    0    0 -0.37920214850E+02  0.49549333034E+02 -0.18139463635E+02  0.10206233180E+03  0.78705783351E+02 0.  0.
          5    1    3    3  501    0 -0.71677515917E+01 -0.22008693885E+02 -0.25066151533E+01  0.23751471301E+02  0.47000000000E+01 0. -1.
        -13    1    4    4    0    0  0.25128166392E+02 -0.21114541060E+02 -0.93464740089E+02  0.99060114225E+02  0.00000000000E+00 0.  1.
         14    1    4    4    0    0 -0.97532631160E+01  0.15178049305E+02 -0.44675718171E+03  0.44712132440E+03  0.00000000000E+00 0. -1.
         -5    1    5    5    0  502  0.29713063166E+02 -0.21604147393E+02 -0.10494475355E+03  0.11128834891E+03  0.47000000000E+01 0.  1.
         11    1    6    6    0    0 -0.32924205024E+02  0.64744462279E+02 -0.33407823873E+02  0.79949555147E+02  0.00000000000E+00 0. -1.
        -12    1    6    6    0    0 -0.49960098262E+01 -0.15195129244E+02  0.15268360238E+02  0.22112776653E+02  0.00000000000E+00 0.  1.
</event>
<event>
12    1  0.8113184E-002  0.2271448E+03  0.7818608E-02  0.1129241E+00
         21   -1    0    0  503  502  0.00000000000E+00  0.00000000000E+00  0.10005972859E+04  0.10005972859E+04  0.00000000000E+00 0. -1.
         21   -1    0    0  501  503 -0.00000000000E+00 -0.00000000000E+00 -0.85455488575E+02  0.85455488575E+02  0.00000000000E+00 0.  1.
          6    2    1    2  501    0  0.44477196094E+02  0.13647160438E+03  0.11390263597E+03  0.25410343959E+03  0.17604552752E+03 0.  0.
         24    2    3    3    0    0 -0.91799654806E+01  0.55940780780E+01  0.11157607613E+02  0.79213048975E+02  0.77683006150E+02 0.  0.
         -6    2    1    2    0  502 -0.44477196094E+02 -0.13647160438E+03  0.80123916131E+03  0.83194933483E+03  0.17190922706E+03 0.  0.
        -24    2    5    5    0    0 -0.20805121388E+02 -0.16600608877E+03  0.68870014964E+03  0.71312268784E+03  0.79026560152E+02 0.  0.
          5    1    3    3  501    0  0.53657161575E+02  0.13087752630E+03  0.10274502836E+03  0.17489039062E+03  0.47000000000E+01 0. -1.
        -13    1    4    4    0    0 -0.57737531132E+01  0.40892755121E+02 -0.21038921086E+01  0.41351904532E+02  0.00000000000E+00 0.  1.
         14    1    4    4    0    0 -0.34062123674E+01 -0.35298677043E+02  0.13261499721E+02  0.37861144443E+02  0.00000000000E+00 0. -1.
         -5    1    5    5    0  502 -0.23672074707E+02  0.29534484397E+02  0.11253901167E+03  0.11882664700E+03  0.47000000000E+01 0.  1.
         11    1    6    6    0    0 -0.45766899490E+02 -0.10451121871E+03  0.50705896551E+03  0.51973647018E+03  0.00000000000E+00 0. -1.
        -12    1    6    6    0    0  0.24961778103E+02 -0.61494870063E+02  0.18164118413E+03  0.19338621766E+03  0.00000000000E+00 0.  1.
</event>
<event>
12    1  0.8113184E-002  0.2579903E+03  0.7818608E-02  0.1108413E+00
         21   -1    0    0  501  502  0.00000000000E+00  0.00000000000E+00  0.15874215279E+04  0.15874215279E+04  0.00000000000E+00 0.  1.
         21   -1    0    0  502  503 -0.00000000000E+00 -0.00000000000E+00 -0.26833993718E+03  0.26833993718E+03  0.00000000000E+00 0. -1.
         -6    2    1    2    0  503  0.18656446671E+03 -0.44666076871E+02 -0.19295814452E+03  0.32186995754E+03  0.17194785654E+03 0.  0.
        -24    2    3    3    0    0  0.10667618600E+03 -0.29838525885E+02 -0.19769476231E+03  0.24034377027E+03  0.80073482351E+02 0.  0.
          6    2    1    2  501    0 -0.18656446671E+03  0.44666076871E+02  0.15120397352E+04  0.15338915075E+04  0.17250402113E+03 0.  0.
         24    2    5    5    0    0 -0.88658599879E+02  0.38270007973E+02  0.46032086000E+03  0.47759554950E+03  0.82929330769E+02 0.  0.
          5    1    5    5  501    0 -0.97905866835E+02  0.63960688975E+01  0.10517188752E+04  0.10562959580E+04  0.47000000000E+01 0. -1.
        -11    1    6    6    0    0 -0.18378884159E+02 -0.24527629339E+02  0.77424311161E+02  0.83270114343E+02  0.00000000000E+00 0.  1.
         12    1    6    6    0    0 -0.70279715720E+02  0.62797637312E+02  0.38289654884E+03  0.39432543515E+03  0.00000000000E+00 0. -1.
         -5    1    3    3    0  503  0.79888280713E+02 -0.14827550986E+02  0.47366177883E+01  0.81526187275E+02  0.47000000000E+01 0.  1.
         13    1    4    4    0    0  0.98014336949E+02 -0.24711710447E+02 -0.10019347052E+03  0.14232431421E+03  0.00000000000E+00 0. -1.
        -14    1    4    4    0    0  0.86618490527E+01 -0.51268154376E+01 -0.97501291784E+02  0.98019456054E+02  0.00000000000E+00 0.  1.
</event>
<event>
12    1  0.8113184E-002  0.1855989E+03  0.7818608E-02  0.1162540E+00
         21   -1    0    0  501  502  0.00000000000E+00  0.00000000000E+00  0.24699417378E+03  0.24699417378E+03  0.00000000000E+00 0. -1.
         21   -1    0    0  502  503 -0.00000000000E+00 -0.00000000000E+00 -0.17683701119E+03  0.17683701119E+03  0.00000000000E+00 0. -1.
         -6    2    1    2    0  503  0.31349287963E+02  0.63563951562E+02 -0.62559703556E+02  0.19566303737E+03  0.17131011030E+03 0.  0.
        -24    2    3    3    0    0  0.65935733514E+02 -0.10815842334E+02 -0.31093022375E+02  0.10768111888E+03  0.78510788586E+02 0.  0.
          6    2    1    2  501    0 -0.31349287963E+02 -0.63563951562E+02  0.13271686615E+03  0.22816814759E+03  0.17153362126E+03 0.  0.
         24    2    5    5    0    0 -0.47033421884E+02  0.24007914692E+02  0.88901782047E+02  0.12888735685E+03  0.76940893954E+02 0.  0.
          5    1    5    5  501    0  0.15684133920E+02 -0.87571866254E+02  0.43815084102E+02  0.99280790745E+02  0.47000000000E+01 0. -1.
        -13    1    6    6    0    0 -0.46532546403E+02  0.23175399665E+02  0.13807566431E+02  0.53786856342E+02  0.00000000000E+00 0.  1.
         14    1    6    6    0    0 -0.50087548084E+00  0.83251502626E+00  0.75094215616E+02  0.75100500508E+02  0.00000000000E+00 0. -1.
         -5    1    3    3    0  503 -0.34586445551E+02  0.74379793896E+02 -0.31466681181E+02  0.87981918486E+02  0.47000000000E+01 0.  1.
         11    1    4    4    0    0 -0.39063863623E+01  0.28894348926E+01 -0.36010965835E+02  0.36337285931E+02  0.00000000000E+00 0. -1.
        -12    1    4    4    0    0  0.69842119877E+02 -0.13705277226E+02  0.49179434606E+01  0.71343832954E+02  0.00000000000E+00 0.  1.
</event>
<event>
12    1  0.8113184E-002  0.3746163E+03  0.7818608E-02  0.1053078E+00
         21   -1    0    0  503  502  0.00000000000E+00  0.00000000000E+00  0.42028048922E+03  0.42028048922E+03  0.00000000000E+00 0. -1.
         21   -1    0    0  501  503 -0.00000000000E+00 -0.00000000000E+00 -0.33333107679E+03  0.33333107679E+03  0.00000000000E+00 0. -1.
          6    2    1    2  501    0  0.95693419890E+02 -0.31793381107E+03  0.60823604881E+02  0.37952189101E+03  0.17348837430E+03 0.  0.
         24    2    3    3    0    0  0.10880382039E+03 -0.25591033909E+03  0.98442416162E+02  0.30565675282E+03  0.80042290457E+02 0.  0.
         -6    2    1    2    0  502 -0.95693419890E+02  0.31793381107E+03  0.26125807551E+02  0.37408967500E+03  0.17035665027E+03 0.  0.
        -24    2    5    5    0    0 -0.13131732792E+03  0.22703021167E+03  0.46453421140E+01  0.27400956907E+03  0.79200423722E+02 0.  0.
          5    1    3    3  501    0 -0.13110400502E+02 -0.62023471979E+02 -0.37618811282E+02  0.73865138191E+02  0.47000000000E+01 0. -1.
        -13    1    4    4    0    0  0.63585924265E+02 -0.79637641248E+02  0.74086706812E+01  0.10217735595E+03  0.00000000000E+00 0.  1.
         14    1    4    4    0    0  0.45217896127E+02 -0.17627269784E+03  0.91033745481E+02  0.20347939687E+03  0.00000000000E+00 0. -1.
         -5    1    5    5    0  502  0.35623908028E+02  0.90903599404E+02  0.21480465437E+02  0.10008010593E+03  0.47000000000E+01 0.  1.
         11    1    6    6    0    0 -0.87576989865E+02  0.18266666840E+03  0.33542302463E+02  0.20533369659E+03  0.00000000000E+00 0. -1.
        -12    1    6    6    0    0 -0.43740338054E+02  0.44363543262E+02 -0.28896960349E+02  0.68675872482E+02  0.00000000000E+00 0.  1.
</event>
<event>
12    1  0.8113184E-002  0.1750051E+03  0.7818608E-02  0.1172820E+00
         21   -1    0    0  501  502  0.00000000000E+00  0.00000000000E+00  0.98499366196E+02  0.98499366196E+02  0.00000000000E+00 0.  1.
         21   -1    0    0  502  503 -0.00000000000E+00 -0.00000000000E+00 -0.26979951841E+04  0.26979951841E+04  0.00000000000E+00 0.  1.
         -6    2    1    2    0  503 -0.10943799106E+02  0.27692101462E+02 -0.26152973274E+04  0.26211461007E+04  0.17245333193E+03 0.  0.
        -24    2    3    3    0    0 -0.22141847445E+02  0.17503357760E+01 -0.60903724945E+03  0.61468155788E+03  0.80085712256E+02 0.  0.
          6    2    1    2  501    0  0.10943799106E+02 -0.27692101462E+02  0.15801509447E+02  0.17534844957E+03  0.17207780752E+03 0.  0.
         24    2    5    5    0    0  0.74824603852E+02 -0.18921954954E+02  0.21339038835E+01  0.10926845164E+03  0.77319333003E+02 0.  0.
          5    1    5    5  501    0 -0.63880804746E+02 -0.87701465080E+01  0.13667605564E+02  0.66079997932E+02  0.47000000000E+01 0. -1.
        -13    1    6    6    0    0  0.76921571418E+02  0.86652244918E+01  0.14849481260E+02  0.78819549343E+02  0.00000000000E+00 0.  1.
         14    1    6    6    0    0 -0.20969675660E+01 -0.27587179446E+02 -0.12715577377E+02  0.30448902292E+02  0.00000000000E+00 0. -1.
         -5    1    3    3    0  503  0.11198048339E+02  0.25941765686E+02 -0.20062600779E+04  0.20064645428E+04  0.47000000000E+01 0.  1.
         11    1    4    4    0    0  0.62251598998E+01  0.36766752270E+02 -0.31740873419E+03  0.31959169456E+03  0.00000000000E+00 0. -1.
        -12    1    4    4    0    0 -0.28367007345E+02 -0.35016416494E+02 -0.29162851525E+03  0.29508986333E+03  0.00000000000E+00 0.  1.
</event>
<event>
12    1  0.8113184E-002  0.1811106E+03  0.7818608E-02  0.1167163E+00
         21   -1    0    0  503  502  0.00000000000E+00  0.00000000000E+00  0.29191577570E+04  0.29191577570E+04  0.00000000000E+00 0. -1.
         21   -1    0    0  501  503 -0.00000000000E+00 -0.00000000000E+00 -0.11889821851E+02  0.11889821851E+02  0.00000000000E+00 0. -1.
          6    2    1    2  501    0  0.43185840266E+02  0.31130593286E+02  0.18317934503E+04  0.18407249383E+04  0.17310957017E+03 0.  0.
         24    2    3    3    0    0  0.33502955105E+02  0.86248968567E+02  0.10078249976E+04  0.10148448655E+04  0.75083571587E+02 0.  0.
         -6    2    1    2    0  502 -0.43185840266E+02 -0.31130593286E+02  0.10754744849E+04  0.10903226406E+04  0.17124240800E+03 0.  0.
        -24    2    5    5    0    0 -0.92520612042E+02 -0.35993906728E+02  0.84212317631E+03  0.85171732896E+03  0.79970865906E+02 0.  0.
          5    1    3    3  501    0  0.96828851616E+01 -0.55118375281E+02  0.82396845270E+03  0.82588007277E+03  0.47000000000E+01 0. -1.
        -13    1    4    4    0    0  0.25508766973E+02  0.82351425160E+01  0.52574124092E+03  0.52642413239E+03  0.00000000000E+00 0.  1.
         14    1    4    4    0    0  0.79941881320E+01  0.78013826051E+02  0.48208375668E+03  0.48842073314E+03  0.00000000000E+00 0. -1.
         -5    1    5    5    0  502  0.49334771776E+02  0.48633134415E+01  0.23335130856E+03  0.23860531161E+03  0.47000000000E+01 0.  1.
         11    1    6    6    0    0  0.21392801699E+01 -0.31525349768E+02  0.26308818721E+03  0.26497890189E+03  0.00000000000E+00 0. -1.
        -12    1    6    6    0    0 -0.94659892212E+02 -0.44685569596E+01  0.57903498910E+03  0.58673842706E+03  0.00000000000E+00 0.  1.
</event>
<event>
12    1  0.8113184E-002  0.1970486E+03  0.7818608E-02  0.1152466E+00
         21   -1    0    0  503  502  0.00000000000E+00  0.00000000000E+00  0.52375892363E+03  0.52375892363E+03  0.00000000000E+00 0.  1.
         21   -1    0    0  501  503 -0.00000000000E+00 -0.00000000000E+00 -0.13166329952E+03  0.13166329952E+03  0.00000000000E+00 0.  1.
          6    2    1    2  501    0  0.31727138230E+02 -0.87988516101E+02 -0.20996039709E+02  0.19816402140E+03  0.17343458545E+03 0.  0.
         24    2    3    3    0    0 -0.32048525569E+02 -0.10058368417E+02  0.20055534556E+02  0.89316582476E+02  0.80292893038E+02 0.  0.
         -6    2    1    2    0  502 -0.31727138230E+02  0.87988516101E+02  0.41309166382E+03  0.45725820175E+03  0.17231294230E+03 0.  0.
        -24    2    5    5    0    0  0.24020976745E+02 -0.36578228950E+01  0.26036779575E+03  0.27056708345E+03  0.69460568596E+02 0.  0.
          5    1    3    3  501    0  0.63775663798E+02 -0.77930147684E+02 -0.41051574265E+02  0.10884743893E+03  0.47000000000E+01 0. -1.
        -13    1    4    4    0    0 -0.41418573501E+01  0.79015481022E+01 -0.28859151836E+02  0.30206623270E+02  0.00000000000E+00 0.  1.
         14    1    4    4    0    0 -0.27906668219E+02 -0.17959916520E+02  0.48914686392E+02  0.59109959206E+02  0.00000000000E+00 0. -1.
         -5    1    5    5    0  502 -0.55748114974E+02  0.91646338996E+02  0.15272386807E+03  0.18669111830E+03  0.47000000000E+01 0.  1.
         11    1    6    6    0    0  0.46662200506E+02  0.21942690643E+01  0.13046031717E+03  0.13857153434E+03  0.00000000000E+00 0. -1.
        -12    1    6    6    0    0 -0.22641223761E+02 -0.58520919593E+01  0.12990747858E+03  0.13199554911E+03  0.00000000000E+00 0.  1.
</event>
<event>
12    1  0.8113184E-002  0.1971343E+03  0.7818608E-02  0.1153388E+00
         21   -1    0    0  503  502  0.00000000000E+00  0.00000000000E+00  0.60652673407E+03  0.60652673407E+03  0.00000000000E+00 0.  1.
         21   -1    0    0  501  503 -0.00000000000E+00 -0.00000000000E+00 -0.66877595172E+02  0.66877595172E+02  0.00000000000E+00 0.  1.
          6    2    1    2  501    0 -0.22534449134E+02 -0.88915726076E+02  0.17801996829E+03  0.26153348804E+03  0.16821072652E+03 0.  0.
         24    2    3    3    0    0 -0.31812103928E+02  0.11202226547E+02  0.91918264925E+02  0.12907491852E+03  0.84106285907E+02 0.  0.
         -6    2    1    2    0  502  0.22534449134E+02  0.88915726076E+02  0.36162917060E+03  0.41187084120E+03  0.17449391123E+03 0.  0.
        -24    2    5    5    0    0  0.37633173626E+02  0.45321931551E+01  0.87404514682E+02  0.12452122135E+03  0.80182222773E+02 0.  0.
          5    1    3    3  501    0  0.92776547947E+01 -0.10011795262E+03  0.86101703368E+02  0.13245856952E+03  0.47000000000E+01 0. -1.
        -11    1    4    4    0    0 -0.58754415483E+01 -0.22324918960E+01  0.98853624345E+02  0.99053237603E+02  0.00000000000E+00 0.  1.
         12    1    4    4    0    0 -0.25936662380E+02  0.13434718442E+02 -0.69353594198E+01  0.30021680921E+02  0.00000000000E+00 0. -1.
         -5    1    5    5    0  502 -0.15098724493E+02  0.84383532921E+02  0.27422465592E+03  0.28734961984E+03  0.47000000000E+01 0.  1.
         11    1    6    6    0    0 -0.10962034713E+02  0.16240387136E+02  0.68223851064E+02  0.70981759864E+02  0.00000000000E+00 0. -1.
        -12    1    6    6    0    0  0.48595208340E+02 -0.11708193980E+02  0.19180663618E+02  0.53539461490E+02  0.00000000000E+00 0.  1.
</event>
<event>
12    1  0.8113184E-002  0.2271763E+03  0.7818608E-02  0.1128737E+00
         21   -1    0    0  503  502  0.00000000000E+00  0.00000000000E+00  0.17901831133E+03  0.17901831133E+03  0.00000000000E+00 0. -1.
         21   -1    0    0  501  503 -0.00000000000E+00 -0.00000000000E+00 -0.63663061778E+03  0.63663061778E+03  0.00000000000E+00 0. -1.
          6    2    1    2  501    0 -0.12456233724E+03 -0.80215987169E+02 -0.53088479454E+03  0.57744935369E+03  0.17221704491E+03 0.  0.
         24    2    3    3    0    0 -0.95227202048E+02 -0.71202062392E+02 -0.52138761687E+03  0.54498264182E+03  0.10499085271E+03 0.  0.
         -6    2    1    2    0  502  0.12456233724E+03  0.80215987169E+02  0.73272488092E+02  0.23819957542E+03  0.17152200956E+03 0.  0.
        -24    2    5    5    0    0  0.15616408550E+03  0.84350999035E+02  0.64924211686E+02  0.20491966353E+03  0.79212389177E+02 0.  0.
          5    1    3    3  501    0 -0.29335135191E+02 -0.90139247774E+01 -0.94971776606E+01  0.32466711877E+02  0.47000000000E+01 0. -1.
        -11    1    4    4    0    0 -0.41460468155E+02  0.19098359683E+02 -0.24647763090E+03  0.25066898551E+03  0.00000000000E+00 0.  1.
         12    1    4    4    0    0 -0.53766733893E+02 -0.90300422075E+02 -0.27490998598E+03  0.29431365631E+03  0.00000000000E+00 0. -1.
         -5    1    5    5    0  502 -0.31601748263E+02 -0.41350118658E+01  0.83482764056E+01  0.33279911890E+02  0.47000000000E+01 0.  1.
         13    1    6    6    0    0  0.97985055974E+01  0.39005411299E+02  0.21762262503E+02  0.45727769373E+02  0.00000000000E+00 0. -1.
        -14    1    6    6    0    0  0.14636557990E+03  0.45345587736E+02  0.43161949183E+02  0.15919189416E+03  0.00000000000E+00 0.  1.
</event>
<event>
12    1  0.8113184E-002  0.1824004E+03  0.7818608E-02  0.1165584E+00
         21   -1    0    0  501  502  0.00000000000E+00  0.00000000000E+00  0.58137603116E+02  0.58137603116E+02  0.00000000000E+00 0. -1.
         21   -1    0    0  502  503 -0.00000000000E+00 -0.00000000000E+00 -0.85776074941E+03  0.85776074941E+03  0.00000000000E+00 0. -1.
         -6    2    1    2    0  503  0.86280202893E+01  0.58361868307E+02 -0.66478701803E+03  0.68935600076E+03  0.17259596182E+03 0.  0.
        -24    2    3    3    0    0  0.54295330980E+02  0.84634073901E+02 -0.51324128431E+03  0.52884453244E+03  0.78415649865E+02 0.  0.
          6    2    1    2  501    0 -0.86280202893E+01 -0.58361868307E+02 -0.13483612826E+03  0.22654235177E+03  0.17222109410E+03 0.  0.
         24    2    5    5    0    0  0.50383088482E+02 -0.73169357487E+02 -0.98504129479E+02  0.15552350335E+03  0.81192894334E+02 0.  0.
          5    1    5    5  501    0 -0.59011108772E+02  0.14807489180E+02 -0.36331998785E+02  0.71018848414E+02  0.47000000000E+01 0. -1.
        -13    1    6    6    0    0  0.68032900765E+01  0.17351690267E+02 -0.79202900644E+01  0.20250849505E+02  0.00000000000E+00 0.  1.
         14    1    6    6    0    0  0.43579798406E+02 -0.90521047754E+02 -0.90583839415E+02  0.13527265385E+03  0.00000000000E+00 0. -1.
         -5    1    3    3    0  503 -0.45667310691E+02 -0.26272205593E+02 -0.15154573372E+03  0.16051146831E+03  0.47000000000E+01 0.  1.
         13    1    4    4    0    0  0.48220324337E+02  0.85796113345E+01 -0.25080701148E+03  0.25554445097E+03  0.00000000000E+00 0. -1.
        -14    1    4    4    0    0  0.60750066428E+01  0.76054462566E+02 -0.26243427283E+03  0.27330008148E+03  0.00000000000E+00 0.  1.
</event>
<event>
12    1  0.8113184E-002  0.1764962E+03  0.7818608E-02  0.1171846E+00
         21   -1    0    0  503  502  0.00000000000E+00  0.00000000000E+00  0.66837185311E+03  0.66837185311E+03  0.00000000000E+00 0. -1.
         21   -1    0    0  501  503 -0.00000000000E+00 -0.00000000000E+00 -0.96280899277E+02  0.96280899277E+02  0.00000000000E+00 0. -1.
          6    2    1    2  501    0  0.16787890974E+02  0.31499805060E+02  0.10616079730E+02  0.17681522825E+03  0.17284921981E+03 0.  0.
         24    2    3    3    0    0  0.23806736752E+02 -0.25540630879E+02 -0.42758117330E+02  0.98241883910E+02  0.81265777644E+02 0.  0.
         -6    2    1    2    0  502 -0.16787890974E+02 -0.31499805060E+02  0.56147487410E+03  0.58783752414E+03  0.17036680880E+03 0.  0.
        -24    2    5    5    0    0 -0.88963418394E+01  0.12922433923E+02  0.51873627518E+03  0.52551345414E+03  0.82649459139E+02 0.  0.
          5    1    3    3  501    0 -0.70188457779E+01  0.57040435939E+02  0.53374197061E+02  0.78573344335E+02  0.47000000000E+01 0. -1.
        -11    1    4    4    0    0 -0.27428513811E+02 -0.11498982972E+02 -0.32648085569E+02  0.44163870648E+02  0.00000000000E+00 0.  1.
         12    1    4    4    0    0  0.51235250563E+02 -0.14041647907E+02 -0.10110031762E+02  0.54078013262E+02  0.00000000000E+00 0. -1.
         -5    1    5    5    0  502 -0.78915491343E+01 -0.44422238983E+02  0.42738598922E+02  0.62324070003E+02  0.47000000000E+01 0.  1.
         11    1    6    6    0    0 -0.26477539818E+02 -0.26029810143E+02  0.32532469219E+03  0.32743666025E+03  0.00000000000E+00 0. -1.
        -12    1    6    6    0    0  0.17581197978E+02  0.38952244066E+02  0.19341158299E+03  0.19807679389E+03  0.00000000000E+00 0.  1.
</event>
<event>
12    1  0.8113184E-002  0.2162646E+03  0.7818608E-02  0.1136826E+00
         21   -1    0    0  501  502  0.00000000000E+00  0.00000000000E+00  0.17693697500E+04  0.17693697500E+04  0.00000000000E+00 0. -1.
         21   -1    0    0  502  503 -0.00000000000E+00 -0.00000000000E+00 -0.55080573624E+02  0.55080573624E+02  0.00000000000E+00 0.  1.
         -6    2    1    2    0  503 -0.12550465571E+03 -0.35113482807E+02  0.19896878331E+03  0.29386896860E+03  0.17258626451E+03 0.  0.
        -24    2    3    3    0    0 -0.60207327819E+02 -0.13205297154E+01  0.19990556069E+03  0.22018944458E+03  0.69960647425E+02 0.  0.
          6    2    1    2  501    0  0.12550465571E+03  0.35113482807E+02  0.15153203931E+04  0.15305813550E+04  0.17175277414E+03 0.  0.
         24    2    5    5    0    0  0.57931196205E+02  0.12643343264E+01  0.36489909645E+03  0.37767060957E+03  0.78269513259E+02 0.  0.
          5    1    5    5  501    0  0.67573459503E+02  0.33849148481E+02  0.11504212966E+04  0.11529107455E+04  0.47000000000E+01 0. -1.
        -11    1    6    6    0    0 -0.71412504712E+01  0.40291853821E+01  0.13215180398E+01  0.83053117380E+01  0.00000000000E+00 0.  1.
         12    1    6    6    0    0  0.65072446676E+02 -0.27648510557E+01  0.36357757841E+03  0.36936529783E+03  0.00000000000E+00 0. -1.
         -5    1    3    3    0  503 -0.65297327889E+02 -0.33792953092E+02 -0.93677737935E+00  0.73679524021E+02  0.47000000000E+01 0.  1.
         11    1    4    4    0    0  0.14423471313E+02  0.59803406404E+01  0.20708429771E+02  0.25935305328E+02  0.00000000000E+00 0. -1.
        -12    1    4    4    0    0 -0.74630799132E+02 -0.73008703558E+01  0.17919713092E+03  0.19425413926E+03  0.00000000000E+00 0.  1.
</event>
<event>
12    1  0.8113184E-002  0.2025678E+03  0.7818608E-02  0.1147926E+00
         21   -1    0    0  501  502  0.00000000000E+00  0.00000000000E+00  0.70101044429E+02  0.70101044429E+02  0.00000000000E+00 0. -1.
         21   -1    0    0  502  503 -0.00000000000E+00 -0.00000000000E+00 -0.60734361151E+03  0.60734361151E+03  0.00000000000E+00 0. -1.
         -6    2    1    2    0  503  0.52914781918E+02  0.92707205359E+02 -0.19870733309E+03  0.28375752900E+03  0.17216018985E+03 0.  0.
        -24    2    3    3    0    0  0.53308106853E+02  0.72130764820E+02 -0.22182020167E+03  0.25245514405E+03  0.80528233544E+02 0.  0.
          6    2    1    2  501    0 -0.52914781918E+02 -0.92707205359E+02 -0.33853523398E+03  0.39368712693E+03  0.17026112062E+03 0.  0.
         24    2    5    5    0    0  0.31489234453E+02 -0.22296996118E+02 -0.16965077479E+03  0.19212898122E+03  0.81507251929E+02 0.  0.
          5    1    5    5  501    0 -0.84404016371E+02 -0.70410209241E+02 -0.16888445919E+03  0.20155814571E+03  0.47000000000E+01 0. -1.
        -11    1    6    6    0    0  0.24512544554E+02  0.27684649578E+02 -0.95737861540E+02  0.10263061334E+03  0.00000000000E+00 0.  1.
         12    1    6    6    0    0  0.69766898995E+01 -0.49981645696E+02 -0.73912913251E+02  0.89498367882E+02  0.00000000000E+00 0. -1.
         -5    1    3    3    0  503 -0.39332493475E+00  0.20576440539E+02  0.23112868578E+02  0.31302384951E+02  0.47000000000E+01 0.  1.
         11    1    4    4    0    0  0.43686093678E+02  0.33327762627E+02 -0.44565878558E+02  0.70748371531E+02  0.00000000000E+00 0. -1.
        -12    1    4    4    0    0  0.96220131744E+01  0.38803002193E+02 -0.17725432311E+03  0.18170677252E+03  0.00000000000E+00 0.  1.
</event>
<event>
12    1  0.8113184E-002  0.2328240E+03  0.7818608E-02  0.1125341E+00
         21   -1    0    0  501  502  0.00000000000E+00  0.00000000000E+00  0.95208853781E+03  0.95208853781E+03  0.00000000000E+00 0.  1.
         21   -1    0    0  502  503 -0.00000000000E+00 -0.00000000000E+00 -0.94383700174E+02  0.94383700174E+02  0.00000000000E+00 0.  1.
         -6    2    1    2    0  503 -0.14723525018E+03 -0.33637659974E+02  0.97294522857E+02  0.25233557318E+03  0.17719285045E+03 0.  0.
        -24    2    3    3    0    0 -0.93482767537E+02 -0.88532598485E+02  0.88655550315E+02  0.17487909823E+03  0.78395430838E+02 0.  0.
          6    2    1    2  501    0  0.14723525018E+03  0.33637659974E+02  0.76041031478E+03  0.79413666481E+03  0.17210312173E+03 0.  0.
         24    2    5    5    0    0  0.16549516913E+03  0.51905483601E+02  0.72687031949E+03  0.75154371581E+03  0.79966650459E+02 0.  0.
          5    1    5    5  501    0 -0.18259918958E+02 -0.18267823627E+02  0.33539995296E+02  0.42592949004E+02  0.47000000000E+01 0. -1.
        -13    1    6    6    0    0  0.34606454368E+02 -0.21650013020E+02  0.16083960130E+03  0.16593886553E+03  0.00000000000E+00 0.  1.
         14    1    6    6    0    0  0.13088871477E+03  0.73555496621E+02  0.56603071819E+03  0.58560485028E+03  0.00000000000E+00 0. -1.
         -5    1    3    3    0  503 -0.53752482640E+02  0.54894938511E+02  0.86389725412E+01  0.77456474943E+02  0.47000000000E+01 0.  1.
         11    1    4    4    0    0 -0.11679619439E+02 -0.52590328699E+02  0.60918971492E+02  0.81322058942E+02  0.00000000000E+00 0. -1.
        -12    1    4    4    0    0 -0.81803148098E+02 -0.35942269786E+02  0.27736578824E+02  0.93557039291E+02  0.00000000000E+00 0.  1.
</event>
<event>
12    1  0.8113184E-002  0.2037646E+03  0.7818608E-02  0.1146626E+00
         21   -1    0    0  501  502  0.00000000000E+00  0.00000000000E+00  0.17265778921E+03  0.17265778921E+03  0.00000000000E+00 0.  1.
         21   -1    0    0  502  503 -0.00000000000E+00 -0.00000000000E+00 -0.48962168203E+03  0.48962168203E+03  0.00000000000E+00 0. -1.
         -6    2    1    2    0  503 -0.10505789706E+03 -0.28923100152E+02 -0.39478672093E+03  0.44427082342E+03  0.17218101539E+03 0.  0.
        -24    2    3    3    0    0 -0.10936994021E+03 -0.15946791483E+02 -0.40475159387E+03  0.42671044201E+03  0.77729431974E+02 0.  0.
          6    2    1    2  501    0  0.10505789706E+03  0.28923100152E+02  0.77822828118E+02  0.21800864781E+03  0.17203973520E+03 0.  0.
         24    2    5    5    0    0  0.11531045789E+03  0.56583382930E+02  0.99608887506E+02  0.18103664989E+03  0.79712967642E+02 0.  0.
          5    1    5    5  501    0 -0.10252560832E+02 -0.27660282778E+02 -0.21786059388E+02  0.36971997926E+02  0.47000000000E+01 0. -1.
        -11    1    6    6    0    0  0.46001808522E+02  0.55748803323E+02  0.82421354429E+02  0.10962378905E+03  0.00000000000E+00 0.  1.
         12    1    6    6    0    0  0.69308649367E+02  0.83457960691E+00  0.17187533077E+02  0.71412860841E+02  0.00000000000E+00 0. -1.
         -5    1    3    3    0  503  0.43120431554E+01 -0.12976308668E+02  0.99648729368E+01  0.17560381416E+02  0.47000000000E+01 0.  1.
         13    1    4    4    0    0 -0.73542129520E+02 -0.29756950785E+02 -0.15601309339E+03  0.17502573024E+03  0.00000000000E+00 0. -1.
        -14    1    4    4    0    0 -0.35827810692E+02  0.13810159302E+02 -0.24873850048E+03  0.25168471177E+03  0.00000000000E+00 0.  1.
</event>
<event>
12    1  0.8113184E-002  0.1981041E+03  0.7818608E-02  0.1151395E+00
         21   -1    0    0  501  502  0.00000000000E+00  0.00000000000E+00  0.41588190752E+03  0.41588190752E+03  0.00000000000E+00 0. -1.
         21   -1    0    0  502  503 -0.00000000000E+00 -0.00000000000E+00 -0.11493748459E+03  0.11493748459E+03  0.00000000000E+00 0.  1.
         -6    2    1    2    0  503 -0.84037126081E+02 -0.51146093865E+02  0.37837022120E+02  0.20147042880E+03  0.17169895736E+03 0.  0.
        -24    2    3    3    0    0 -0.70200675668E+02 -0.12252769597E+02 -0.39844774906E+02  0.11337565244E+03  0.78664904831E+02 0.  0.
          6    2    1    2  501    0  0.84037126081E+02  0.51146093865E+02  0.26310740081E+03  0.32934896331E+03  0.17195078887E+03 0.  0.
         24    2    5    5    0    0  0.15364568232E+02 -0.34796124841E+01  0.21333137681E+03  0.22835574294E+03  0.79924285041E+02 0.  0.
          5    1    5    5  501    0  0.68672557848E+02  0.54625706350E+02  0.49776023997E+02  0.10099322037E+03  0.47000000000E+01 0. -1.
        -11    1    6    6    0    0 -0.12213656131E+02  0.27314995798E+02  0.38808758118E+02  0.49004102871E+02  0.00000000000E+00 0.  1.
         12    1    6    6    0    0  0.27578224363E+02 -0.30794608282E+02  0.17452261869E+03  0.17935164007E+03  0.00000000000E+00 0. -1.
         -5    1    3    3    0  503 -0.13836450413E+02 -0.38893324269E+02  0.77681797025E+02  0.88094776359E+02  0.47000000000E+01 0.  1.
         11    1    4    4    0    0 -0.31492539679E+02 -0.35073372852E+02  0.79187739978E+01  0.47797787818E+02  0.00000000000E+00 0. -1.
        -12    1    4    4    0    0 -0.38708135988E+02  0.22820603255E+02 -0.47763548903E+02  0.65577864623E+02  0.00000000000E+00 0.  1.
</event>
<event>
12    1  0.8113184E-002  0.1963140E+03  0.7818608E-02  0.1153096E+00
         21   -1    0    0  503  502  0.00000000000E+00  0.00000000000E+00  0.45313337934E+02  0.45313337934E+02  0.00000000000E+00 0.  1.
         21   -1    0    0  501  503 -0.00000000000E+00 -0.00000000000E+00 -0.11916481504E+04  0.11916481504E+04  0.00000000000E+00 0.  1.
          6    2    1    2  501    0  0.40815675272E+02 -0.85528627673E+02 -0.23922124317E+03  0.30884822631E+03  0.17081966576E+03 0.  0.
         24    2    3    3    0    0  0.37749144876E+02 -0.72836520207E+01 -0.20421216583E+03  0.22294476119E+03  0.80769476557E+02 0.  0.
         -6    2    1    2    0  502 -0.40815675272E+02  0.85528627673E+02 -0.90711356928E+03  0.92811326200E+03  0.17192479183E+03 0.  0.
        -24    2    5    5    0    0  0.25747215450E+02  0.21285755592E+02 -0.23085071223E+03  0.24553630161E+03  0.76681298760E+02 0.  0.
          5    1    3    3  501    0  0.30665303958E+01 -0.78244975653E+02 -0.35009077342E+02  0.85903465122E+02  0.47000000000E+01 0. -1.
        -11    1    4    4    0    0  0.48139643052E+02 -0.31103443178E+02 -0.97353289936E+02  0.11297129048E+03  0.00000000000E+00 0.  1.
         12    1    4    4    0    0 -0.10390498176E+02  0.23819791158E+02 -0.10685887590E+03  0.10997347072E+03  0.00000000000E+00 0. -1.
         -5    1    5    5    0  502 -0.66562890722E+02  0.64242872082E+02 -0.67626285705E+03  0.68257696039E+03  0.47000000000E+01 0.  1.
         11    1    6    6    0    0  0.32532582794E+02 -0.53476216146E+01 -0.20555839358E+03  0.20818554026E+03  0.00000000000E+00 0. -1.
        -12    1    6    6    0    0 -0.67853673445E+01  0.26633377206E+02 -0.25292318645E+02  0.37350761356E+02  0.00000000000E+00 0.  1.
</event>
<event>
12    1  0.8113184E-002  0.1832624E+03  0.7818608E-02  0.1164734E+00
         21   -1    0    0  503  502  0.00000000000E+00  0.00000000000E+00  0.41302795975E+03  0.41302795975E+03  0.00000000000E+00 0. -1.
         21   -1    0    0  501  503 -0.00000000000E+00 -0.00000000000E+00 -0.81280978776E+02  0.81280978776E+02  0.00000000000E+00 0. -1.
          6    2    1    2  501    0 -0.52020576840E+02  0.35225284079E+02  0.17261950932E+03  0.25160197234E+03  0.17192759067E+03 0.  0.
         24    2    3    3    0    0  0.96550777223E+01  0.13115256567E+02  0.17137902620E+03  0.18590289715E+03  0.70170407334E+02 0.  0.
         -6    2    1    2    0  502  0.52020576840E+02 -0.35225284079E+02  0.15912747166E+03  0.24270696619E+03  0.17215736449E+03 0.  0.
        -24    2    5    5    0    0  0.60877458047E+02 -0.60663423821E+01  0.17938197763E+03  0.20581491776E+03  0.80243511051E+02 0.  0.
          5    1    3    3  501    0 -0.61675654562E+02  0.22110027512E+02  0.12404831170E+01  0.65699075189E+02  0.47000000000E+01 0. -1.
        -11    1    4    4    0    0 -0.21645104050E+02 -0.17034699124E+02  0.82317202918E+02  0.86803302931E+02  0.00000000000E+00 0.  1.
         12    1    4    4    0    0  0.31300181773E+02  0.30149955691E+02  0.89061823283E+02  0.99099594215E+02  0.00000000000E+00 0. -1.
         -5    1    5    5    0  502 -0.88568812069E+01 -0.29158941697E+02 -0.20254505971E+02  0.36892048435E+02  0.47000000000E+01 0.  1.
         13    1    6    6    0    0  0.41365327516E+02 -0.40912088981E+02  0.81828059758E+02  0.10040279234E+03  0.00000000000E+00 0. -1.
        -14    1    6    6    0    0  0.19512130531E+02  0.34845746599E+02  0.97553917872E+02  0.10541212542E+03  0.00000000000E+00 0.  1.
</event>
<event>
12    1  0.8113184E-002  0.2175557E+03  0.7818608E-02  0.1137077E+00
         21   -1    0    0  501  502  0.00000000000E+00  0.00000000000E+00  0.86907291036E+03  0.86907291036E+03  0.00000000000E+00 0. -1.
         21   -1    0    0  502  503 -0.00000000000E+00 -0.00000000000E+00 -0.83694708705E+02  0.83694708705E+02  0.00000000000E+00 0. -1.
         -6    2    1    2    0  503  0.10840320485E+03  0.67148255696E+02  0.98770502722E+02  0.23251724183E+03  0.16747690131E+03 0.  0.
        -24    2    3    3    0    0  0.11980924724E+02  0.16399916259E+02  0.91398501017E+02  0.12320536475E+03  0.80083557019E+02 0.  0.
          6    2    1    2  501    0 -0.10840320485E+03 -0.67148255696E+02  0.68660769894E+03  0.72025037724E+03  0.17626778098E+03 0.  0.
         24    2    5    5    0    0 -0.14972792882E+02 -0.18601112889E+02  0.13908191077E+03  0.16267289773E+03  0.80922851060E+02 0.  0.
          5    1    5    5  501    0 -0.93430411970E+02 -0.48547142807E+02  0.54752578816E+03  0.55757747951E+03  0.47000000000E+01 0. -1.
        -11    1    6    6    0    0 -0.19947306970E+02  0.25416676216E+02  0.26831997267E+02  0.41998316187E+02  0.00000000000E+00 0.  1.
         12    1    6    6    0    0  0.49745140883E+01 -0.44017789105E+02  0.11224991350E+03  0.12067458154E+03  0.00000000000E+00 0. -1.
         -5    1    3    3    0  503  0.96422280128E+02  0.50748339437E+02  0.73720017048E+01  0.10931187708E+03  0.47000000000E+01 0.  1.
         11    1    4    4    0    0  0.25364387744E+02 -0.14043329514E+02  0.34714234392E+01  0.29199624145E+02  0.00000000000E+00 0. -1.
        -12    1    4    4    0    0 -0.13383463021E+02  0.30443245773E+02  0.87927077578E+02  0.94005740606E+02  0.00000000000E+00 0.  1.
</event>
<event>
12    1  0.8113184E-002  0.3655339E+03  0.7818608E-02  0.1056428E+00
         21   -1    0    0  501  502  0.00000000000E+00  0.00000000000E+00  0.12860180916E+03  0.12860180916E+03  0.00000000000E+00 0.  1.
         21   -1    0    0  502  503 -0.00000000000E+00 -0.00000000000E+00 -0.10960234815E+04  0.10960234815E+04  0.00000000000E+00 0. -1.
         -6    2    1    2    0  503 -0.25061139068E+03 -0.20326121807E+03 -0.62398091686E+03  0.72316472321E+03  0.17173770809E+03 0.  0.
        -24    2    3    3    0    0 -0.13788018457E+03 -0.49591461273E+02 -0.36325143410E+03  0.40017142271E+03  0.81946963654E+02 0.  0.
          6    2    1    2  501    0  0.25061139068E+03  0.20326121807E+03 -0.34344075548E+03  0.50146056745E+03  0.17143499141E+03 0.  0.
         24    2    5    5    0    0  0.21540121759E+03  0.22462263280E+03 -0.32116694387E+03  0.45440444126E+03  0.80511978617E+02 0.  0.
          5    1    5    5  501    0  0.35210173096E+02 -0.21361414729E+02 -0.22273811606E+02  0.47056126192E+02  0.47000000000E+01 0. -1.
        -11    1    6    6    0    0  0.98935166166E+02  0.12655927020E+03 -0.11258253423E+03  0.19616381672E+03  0.00000000000E+00 0.  1.
         12    1    6    6    0    0  0.11646605142E+03  0.98063362602E+02 -0.20858440964E+03  0.25824062454E+03  0.00000000000E+00 0. -1.
         -5    1    3    3    0  503 -0.11273120611E+03 -0.15366975680E+03 -0.26072948276E+03  0.32299330050E+03  0.47000000000E+01 0.  1.
         11    1    4    4    0    0 -0.52889979070E+02 -0.62249799901E+02 -0.18844909846E+03  0.20539096910E+03  0.00000000000E+00 0. -1.
        -12    1    4    4    0    0 -0.84990205504E+02  0.12658338628E+02 -0.17480233563E+03  0.19478045362E+03  0.00000000000E+00 0.  1.
</event>
<event>
12    1  0.8113184E-002  0.1993844E+03  0.7818608E-02  0.1150390E+00
         21   -1    0    0  501  502  0.00000000000E+00  0.00000000000E+00  0.80383109384E+02  0.80383109384E+02  0.00000000000E+00 0.  1.
         21   -1    0    0  502  503 -0.00000000000E+00 -0.00000000000E+00 -0.66358751109E+03  0.66358751109E+03  0.00000000000E+00 0. -1.
         -6    2    1    2    0  503  0.40598798190E+02 -0.92161051750E+02 -0.47985397947E+03  0.51939227087E+03  0.17136676327E+03 0.  0.
        -24    2    3    3    0    0  0.31103142864E+02 -0.64581509059E+02 -0.47793694653E+03  0.48978545307E+03  0.79548025607E+02 0.  0.
          6    2    1    2  501    0 -0.40598798190E+02  0.92161051750E+02 -0.10335042223E+03  0.22457834960E+03  0.17208196727E+03 0.  0.
         24    2    5    5    0    0 -0.52153338625E+02  0.20673728260E+02 -0.20307493384E+01  0.99952064493E+02  0.82697747753E+02 0.  0.
          5    1    5    5  501    0  0.11554540435E+02  0.71487323490E+02 -0.10131967289E+03  0.12462628511E+03  0.47000000000E+01 0. -1.
        -13    1    6    6    0    0 -0.16459982778E+02 -0.14275995037E+02  0.32568872038E+02  0.39185028942E+02  0.00000000000E+00 0.  1.
         14    1    6    6    0    0 -0.35693355847E+02  0.34949723297E+02 -0.34599621376E+02  0.60767035551E+02  0.00000000000E+00 0. -1.
         -5    1    3    3    0  503  0.94956553262E+01 -0.27579542690E+02 -0.19170329481E+01  0.29606817803E+02  0.47000000000E+01 0.  1.
         11    1    4    4    0    0 -0.78661282772E+01 -0.65615421245E+02 -0.34402175526E+03  0.35031161495E+03  0.00000000000E+00 0. -1.
        -12    1    4    4    0    0  0.38969271141E+02  0.10339121856E+01 -0.13391519127E+03  0.13947383812E+03  0.00000000000E+00 0.  1.
</event>
<event>
12    1  0.8113184E-002  0.2125861E+03  0.7818608E-02  0.1139705E+00
         21   -1    0    0  501  502  0.00000000000E+00  0.00000000000E+00  0.92400532473E+02  0.92400532473E+02  0.00000000000E+00 0.  1.
         21   -1    0    0  502  503 -0.00000000000E+00 -0.00000000000E+00 -0.57299741734E+03  0.57299741734E+03  0.00000000000E+00 0. -1.
         -6    2    1    2    0  503  0.96106171405E+02 -0.79501882295E+02 -0.36954033898E+03  0.42632490952E+03  0.17215086661E+03 0.  0.
        -24    2    3    3    0    0  0.19088645605E+01 -0.54503587937E+02 -0.97010830234E+02  0.13685561845E+03  0.79649697149E+02 0.  0.
          6    2    1    2  501    0 -0.96106171405E+02  0.79501882295E+02 -0.11105654588E+03  0.23907304028E+03  0.17107137907E+03 0.  0.
         24    2    5    5    0    0 -0.11861408228E+03  0.10210885980E+03 -0.10744136347E+03  0.20662552839E+03  0.81577831752E+02 0.  0.
          5    1    5    5  501    0  0.22507910879E+02 -0.22606977506E+02 -0.36151824061E+01  0.32447511891E+02  0.47000000000E+01 0. -1.
        -13    1    6    6    0    0 -0.73625668454E+02  0.32387253918E+02 -0.13971263402E+02  0.81638651831E+02  0.00000000000E+00 0.  1.
         14    1    6    6    0    0 -0.44988413829E+02  0.69721605883E+02 -0.93470100071E+02  0.12498687656E+03  0.00000000000E+00 0. -1.
         -5    1    3    3    0  503  0.94197306844E+02 -0.24998294358E+02 -0.27252950875E+03  0.28946929108E+03  0.47000000000E+01 0.  1.
         13    1    4    4    0    0  0.39260671429E+02 -0.41093341382E+02 -0.58175029620E+02  0.81328943791E+02  0.00000000000E+00 0. -1.
        -14    1    4    4    0    0 -0.37351806868E+02 -0.13410246555E+02 -0.38835800614E+02  0.55526674656E+02  0.00000000000E+00 0.  1.
</event>
<event>
12    1  0.8113184E-002  0.2503592E+03  0.7818608E-02  0.1113204E+00
         21   -1    0    0  503  502  0.00000000000E+00  0.00000000000E+00  0.46725017047E+03  0.46725017047E+03  0.00000000000E+00 0. -1.
         21   -1    0    0  501  503 -0.00000000000E+00 -0.00000000000E+00 -0.15533758729E+03  0.15533758729E+03  0.00000000000E+00 0. -1.
          6    2    1    2  501    0  0.13277305750E+03  0.12442085566E+03  0.39614329493E+02  0.25268769602E+03  0.17079971457E+03 0.  0.
         24    2    3    3    0    0  0.53184577455E+02  0.20859445703E+02 -0.32337430859E+02  0.10349507688E+03  0.80011285135E+02 0.  0.
         -6    2    1    2    0  502 -0.13277305750E+03 -0.12442085566E+03  0.27229825368E+03  0.36990006175E+03  0.17196070074E+03 0.  0.
        -24    2    5    5    0    0 -0.10642322868E+03 -0.14041946371E+03  0.27758171641E+03  0.33827295444E+03  0.79582994628E+02 0.  0.
          5    1    3    3  501    0  0.79588480043E+02  0.10356140996E+03  0.71951760352E+02  0.14919261914E+03  0.47000000000E+01 0. -1.
        -13    1    4    4    0    0 -0.19910241452E+02  0.13777729706E+02 -0.13324563135E+02  0.27636706267E+02  0.00000000000E+00 0.  1.
         14    1    4    4    0    0  0.73094818907E+02  0.70817159972E+01 -0.19012867724E+02  0.75858370610E+02  0.00000000000E+00 0. -1.
         -5    1    5    5    0  502 -0.26349828819E+02  0.15998608045E+02 -0.52834627221E+01  0.31627107305E+02  0.47000000000E+01 0.  1.
         13    1    6    6    0    0 -0.12383126911E+02 -0.61641673232E+02  0.14276042338E+03  0.15599223120E+03  0.00000000000E+00 0. -1.
        -14    1    6    6    0    0 -0.94040101768E+02 -0.78777790474E+02  0.13482129303E+03  0.18228072324E+03  0.00000000000E+00 0.  1.
</event>
<event>
12    1  0.8113184E-002  0.2856967E+03  0.7818608E-02  0.1092808E+00
         21   -1    0    0  501  502  0.00000000000E+00  0.00000000000E+00  0.12580393979E+03  0.12580393979E+03  0.00000000000E+00 0.  1.
         21   -1    0    0  502  503 -0.00000000000E+00 -0.00000000000E+00 -0.92024988043E+03  0.92024988043E+03  0.00000000000E+00 0. -1.
         -6    2    1    2    0  503 -0.22527176589E+03  0.26178287505E+02 -0.68367067458E+03  0.74096435461E+03  0.17375244539E+03 0.  0.
        -24    2    3    3    0    0 -0.16331865719E+03  0.73631850565E+02 -0.57118531379E+03  0.60397868121E+03  0.80267997751E+02 0.  0.
          6    2    1    2  501    0  0.22527176589E+03 -0.26178287505E+02 -0.11077526605E+03  0.30508946561E+03  0.17139355650E+03 0.  0.
         24    2    5    5    0    0  0.14613480588E+03  0.12883522076E+01 -0.13880135391E+03  0.21663254764E+03  0.79415385835E+02 0.  0.
          5    1    5    5  501    0  0.79136960011E+02 -0.27466639713E+02  0.28026087853E+02  0.88456917972E+02  0.47000000000E+01 0. -1.
        -11    1    6    6    0    0  0.37656927616E+02  0.28731383389E+02 -0.14834869751E+02  0.49634765533E+02  0.00000000000E+00 0.  1.
         12    1    6    6    0    0  0.10847787827E+03 -0.27443031181E+02 -0.12396648416E+03  0.16699778210E+03  0.00000000000E+00 0. -1.
         -5    1    3    3    0  503 -0.61953108706E+02 -0.47453563060E+02 -0.11248536078E+03  0.13698567340E+03  0.47000000000E+01 0.  1.
         13    1    4    4    0    0 -0.68264660664E+02  0.51978226931E+02 -0.16176110042E+03  0.18310776493E+03  0.00000000000E+00 0. -1.
        -14    1    4    4    0    0 -0.95053996525E+02  0.21653623633E+02 -0.40942421338E+03  0.42087091628E+03  0.00000000000E+00 0.  1.
</event>
<event>
12    1  0.8113184E-002  0.2107147E+03  0.7818608E-02  0.1141161E+00
         21   -1    0    0  503  502  0.00000000000E+00  0.00000000000E+00  0.94842014397E+02  0.94842014397E+02  0.00000000000E+00 0.  1.
         21   -1    0    0  501  503 -0.00000000000E+00 -0.00000000000E+00 -0.53898915387E+03  0.53898915387E+03  0.00000000000E+00 0.  1.
          6    2    1    2  501    0 -0.50968490716E+02 -0.11060484184E+03 -0.10610786942E+03  0.23592275357E+03  0.17195769135E+03 0.  0.
         24    2    3    3    0    0  0.28648006808E+02 -0.83614177893E+02 -0.32039300061E+02  0.12378210267E+03  0.80519892909E+02 0.  0.
         -6    2    1    2    0  502  0.50968490716E+02  0.11060484184E+03 -0.33803927005E+03  0.39790841469E+03  0.17096590392E+03 0.  0.
        -24    2    5    5    0    0  0.38147543258E+01  0.37476534069E+02 -0.27873595149E+03  0.29250349144E+03  0.80283989044E+02 0.  0.
          5    1    3    3  501    0 -0.79616497523E+02 -0.26990663947E+02 -0.74068569356E+02  0.11214065090E+03  0.47000000000E+01 0. -1.
        -11    1    4    4    0    0  0.23119778862E+02 -0.97544675401E+02 -0.15459124366E+02  0.10143210734E+03  0.00000000000E+00 0.  1.
         12    1    4    4    0    0  0.55282279455E+01  0.13930497508E+02 -0.16580175695E+02  0.22349995327E+02  0.00000000000E+00 0. -1.
         -5    1    5    5    0  502  0.47153736390E+02  0.73128307771E+02 -0.59303318564E+02  0.10540492325E+03  0.47000000000E+01 0.  1.
         11    1    6    6    0    0  0.29381447287E+02 -0.12727227936E+02 -0.89279145310E+02  0.94847338196E+02  0.00000000000E+00 0. -1.
        -12    1    6    6    0    0 -0.25566692961E+02  0.50203762005E+02 -0.18945680618E+03  0.19765615324E+03  0.00000000000E+00 0.  1.
</event>
<event>
12    1  0.8113184E-002  0.2009345E+03  0.7818608E-02  0.1149598E+00
         21   -1    0    0  501  502  0.00000000000E+00  0.00000000000E+00  0.31934826598E+04  0.31934826598E+04  0.00000000000E+00 0. -1.
         21   -1    0    0  502  503 -0.00000000000E+00 -0.00000000000E+00 -0.12708624761E+02  0.12708624761E+02  0.00000000000E+00 0. -1.
         -6    2    1    2    0  503 -0.71537321312E+02  0.77845215035E+02  0.13505110908E+04  0.13649316311E+04  0.16727428190E+03 0.  0.
        -24    2    3    3    0    0 -0.87960571126E+02  0.10430756371E+03  0.77932663870E+03  0.79287940678E+03  0.51871128754E+02 0.  0.
          6    2    1    2  501    0  0.71537321312E+02 -0.77845215035E+02  0.18302629443E+04  0.18412596535E+04  0.17087188338E+03 0.  0.
         24    2    5    5    0    0  0.99106550818E+01 -0.95889830499E+02  0.88714368577E+03  0.89594516619E+03  0.80004630701E+02 0.  0.
          5    1    5    5  501    0  0.61626666230E+02  0.18044615464E+02  0.94311925848E+03  0.94531448728E+03  0.47000000000E+01 0. -1.
        -11    1    6    6    0    0  0.35570618723E+01 -0.26958339305E+02  0.59585870724E+02  0.65497181139E+02  0.00000000000E+00 0.  1.
         12    1    6    6    0    0  0.63535932095E+01 -0.68931491194E+02  0.82755781505E+03  0.83044798505E+03  0.00000000000E+00 0. -1.
         -5    1    3    3    0  503  0.16423249814E+02 -0.26462348677E+02  0.57118445212E+03  0.57205222434E+03  0.47000000000E+01 0.  1.
         11    1    4    4    0    0 -0.36007947347E+02  0.36329438619E+02  0.16858442396E+03  0.17617351783E+03  0.00000000000E+00 0. -1.
        -12    1    4    4    0    0 -0.51952623780E+02  0.67978125093E+02  0.61074221474E+03  0.61670588895E+03  0.00000000000E+00 0.  1.
</event>
<event>
12    1  0.8113184E-002  0.1980674E+03  0.7818608E-02  0.1151584E+00
         21   -1    0    0  503  502  0.00000000000E+00  0.00000000000E+00  0.83371049573E+03  0.83371049573E+03  0.00000000000E+00 0. -1.
         21   -1    0    0  501  503 -0.00000000000E+00 -0.00000000000E+00 -0.17381238753E+03  0.17381238753E+03  0.00000000000E+00 0.  1.
          6    2    1    2  501    0  0.90487945787E+02  0.34405023085E+02 -0.10041942292E+03  0.22206928276E+03  0.17279737238E+03 0.  0.
         24    2    3    3    0    0  0.35866061024E+02 -0.43808575457E+02 -0.73270435562E+02  0.12277137338E+03  0.80614439020E+02 0.  0.
         -6    2    1    2    0  502 -0.90487945787E+02 -0.34405023085E+02  0.76031753112E+03  0.78545360049E+03  0.17170566809E+03 0.  0.
        -24    2    5    5    0    0 -0.96321954129E+02  0.19836701454E+02  0.65102302411E+03  0.66320966569E+03  0.79653431616E+02 0.  0.
          5    1    3    3  501    0  0.54621884763E+02  0.78213598542E+02 -0.27148987358E+02  0.99297909377E+02  0.47000000000E+01 0. -1.
        -11    1    4    4    0    0  0.19390672731E+02  0.11160719298E+02 -0.59769065995E+02  0.63819284657E+02  0.00000000000E+00 0.  1.
         12    1    4    4    0    0  0.16475388293E+02 -0.54969294755E+02 -0.13501369566E+02  0.58952088728E+02  0.00000000000E+00 0. -1.
         -5    1    5    5    0  502  0.58340083421E+01 -0.54241724540E+02  0.10929450700E+03  0.12224393480E+03  0.47000000000E+01 0.  1.
         13    1    6    6    0    0  0.25022161846E+01  0.32179157813E+01  0.24391965153E+03  0.24395370969E+03  0.00000000000E+00 0. -1.
        -14    1    6    6    0    0 -0.98824170314E+02  0.16618785673E+02  0.40710337258E+03  0.41925595600E+03  0.00000000000E+00 0.  1.
</event>
<event>
12    1  0.8113184E-002  0.2226726E+03  0.7818608E-02  0.1131939E+00
         21   -1    0    0  501  502  0.00000000000E+00  0.00000000000E+00  0.12156416367E+04  0.12156416367E+04  0.00000000000E+00 0.  1.
         21   -1    0    0  502  503 -0.00000000000E+00 -0.00000000000E+00 -0.41008500967E+02  0.41008500967E+02  0.00000000000E+00 0.  1.
         -6    2    1    2    0  503  0.98698920424E+02 -0.10121321176E+03  0.63649912481E+03  0.67426598495E+03  0.17180771649E+03 0.  0.
        -24    2    3    3    0    0 -0.69520290519E+01 -0.96067832574E+01  0.19450160943E+03  0.21065218611E+03  0.80017788338E+02 0.  0.
          6    2    1    2  501    0 -0.98698920424E+02  0.10121321176E+03  0.53813401092E+03  0.58238415271E+03  0.17203922954E+03 0.  0.
         24    2    5    5    0    0 -0.43395715652E+02  0.90994544704E+02  0.49533066837E+03  0.51155279138E+03  0.78553116073E+02 0.  0.
          5    1    5    5  501    0 -0.55303204772E+02  0.10218667057E+02  0.42803342549E+02  0.70831361330E+02  0.47000000000E+01 0. -1.
        -13    1    6    6    0    0 -0.54639940828E+02  0.40790534846E+02  0.36723417302E+03  0.37351081470E+03  0.00000000000E+00 0.  1.
         14    1    6    6    0    0  0.11244225176E+02  0.50204009858E+02  0.12809649535E+03  0.13804197668E+03  0.00000000000E+00 0. -1.
         -5    1    3    3    0  503  0.10565094948E+03 -0.91606428503E+02  0.44199751538E+03  0.46361379884E+03  0.47000000000E+01 0.  1.
         13    1    4    4    0    0  0.18937251071E+01 -0.32913910620E+01  0.19889335592E+03  0.19892960182E+03  0.00000000000E+00 0. -1.
        -14    1    4    4    0    0 -0.88457541590E+01 -0.63153921954E+01 -0.43917464933E+01  0.11722584292E+02  0.00000000000E+00 0.  1.
</event>
<event>
12    1  0.8113184E-002  0.1752681E+03  0.7818608E-02  0.1172505E+00
         21   -1    0    0  503  502  0.00000000000E+00  0.00000000000E+00  0.43930355277E+02  0.43930355277E+02  0.00000000000E+00 0. -1.
         21   -1    0    0  501  503 -0.00000000000E+00 -0.00000000000E+00 -0.73364644188E+03  0.73364644188E+03  0.00000000000E+00 0. -1.
          6    2    1    2  501    0 -0.34389207290E+02 -0.25760945836E+01 -0.42999219361E+03  0.46434058396E+03  0.17184189685E+03 0.  0.
         24    2    3    3    0    0  0.17452922828E+01  0.33795903349E+01 -0.41765411872E+03  0.42541128479E+03  0.80779518847E+02 0.  0.
         -6    2    1    2    0  502  0.34389207290E+02  0.25760945836E+01 -0.25972389300E+03  0.31323621320E+03  0.17167169488E+03 0.  0.
        -24    2    5    5    0    0  0.80829889121E+02  0.35187534197E+02 -0.17870453793E+03  0.21420859675E+03  0.78602655858E+02 0.  0.
          5    1    3    3  501    0 -0.36134499572E+02 -0.59556849185E+01 -0.12338074883E+02  0.38929299172E+02  0.47000000000E+01 0. -1.
        -13    1    4    4    0    0  0.33055983949E+02 -0.92954262909E+01 -0.95399915166E+02  0.10139155211E+03  0.00000000000E+00 0.  1.
         14    1    4    4    0    0 -0.31310691666E+02  0.12675016626E+02 -0.32225420356E+03  0.32401973269E+03  0.00000000000E+00 0. -1.
         -5    1    5    5    0  502 -0.46440681831E+02 -0.32611439613E+02 -0.81019355072E+02  0.99027616445E+02  0.47000000000E+01 0.  1.
         11    1    6    6    0    0  0.19114426615E+02 -0.87359317200E+01 -0.10984750583E+03  0.11183985132E+03  0.00000000000E+00 0. -1.
        -12    1    6    6    0    0  0.61715462506E+02  0.43923465917E+02 -0.68857032100E+02  0.10236874543E+03  0.00000000000E+00 0.  1.
</event>
<event>
12    1  0.8113184E-002  0.1864805E+03  0.7818608E-02  0.1162165E+00
         21   -1    0    0  503  502  0.00000000000E+00  0.00000000000E+00  0.86243455585E+02  0.86243455585E+02  0.00000000000E+00 0. -1.
         21   -1    0    0  501  503 -0.00000000000E+00 -0.00000000000E+00 -0.39908715215E+03  0.39908715215E+03  0.00000000000E+00 0.  1.
          6    2    1    2  501    0  0.29864939089E+02  0.64565296243E+02 -0.14763776236E+03  0.23619612358E+03  0.17009146908E+03 0.  0.
         24    2    3    3    0    0  0.18029904519E+02  0.83397425346E+02 -0.16563793212E+03  0.20719934374E+03  0.90639039463E+02 0.  0.
         -6    2    1    2    0  502 -0.29864939089E+02 -0.64565296243E+02 -0.16520593421E+03  0.24913448416E+03  0.17237864843E+03 0.  0.
        -24    2    5    5    0    0 -0.21028833275E+02 -0.84278063121E+02 -0.18488971881E+03  0.21953361727E+03  0.80410181176E+02 0.  0.
          5    1    3    3  501    0  0.11835034570E+02 -0.18832129103E+02  0.18000169763E+02  0.28996779843E+02  0.47000000000E+01 0. -1.
        -11    1    4    4    0    0 -0.28515685637E+01  0.13236159901E+02 -0.12037320705E+03  0.12113230926E+03  0.00000000000E+00 0.  1.
         12    1    4    4    0    0  0.20881473083E+02  0.70161265444E+02 -0.45264725077E+02  0.86067034474E+02  0.00000000000E+00 0. -1.
         -5    1    5    5    0  502 -0.88361058141E+01  0.19712766878E+02  0.19683784608E+02  0.29600866887E+02  0.47000000000E+01 0.  1.
         13    1    6    6    0    0 -0.20091198830E+02  0.10882436288E+02 -0.29428609768E+02  0.37257573228E+02  0.00000000000E+00 0. -1.
        -14    1    6    6    0    0 -0.93763444417E+00 -0.95160499409E+02 -0.15546110905E+03  0.18227604404E+03  0.00000000000E+00 0.  1.
</event>
<event>
12    1  0.8113184E-002  0.1813292E+03  0.7818608E-02  0.1166589E+00
         21   -1    0    0  503  502  0.00000000000E+00  0.00000000000E+00  0.23036443348E+03  0.23036443348E+03  0.00000000000E+00 0. -1.
         21   -1    0    0  501  503 -0.00000000000E+00 -0.00000000000E+00 -0.22578284178E+03  0.22578284178E+03  0.00000000000E+00 0. -1.
          6    2    1    2  501    0 -0.31296990299E+01 -0.55794701338E+02 -0.13621690924E+03  0.22657268045E+03  0.17221291894E+03 0.  0.
         24    2    3    3    0    0 -0.24332727677E+02 -0.55835748168E+02 -0.12699670370E+02  0.10116068578E+03  0.79765219927E+02 0.  0.
         -6    2    1    2    0  502  0.31296990299E+01  0.55794701338E+02  0.14079850095E+03  0.22957459480E+03  0.17250342894E+03 0.  0.
        -24    2    5    5    0    0 -0.15217787829E+02  0.10209488376E+03  0.10355126780E+03  0.16720646558E+03  0.81118374692E+02 0.  0.
          5    1    3    3  501    0  0.21203028647E+02  0.41046829761E-01 -0.12351723887E+03  0.12541199467E+03  0.47000000000E+01 0. -1.
        -13    1    4    4    0    0 -0.20007976632E+02 -0.43715333348E+02 -0.45334627760E+02  0.66080087567E+02  0.00000000000E+00 0.  1.
         14    1    4    4    0    0 -0.43247510448E+01 -0.12120414820E+02  0.32634957391E+02  0.35080598212E+02  0.00000000000E+00 0. -1.
         -5    1    5    5    0  502  0.18347486858E+02 -0.46300182418E+02  0.37247233146E+02  0.62368129225E+02  0.47000000000E+01 0.  1.
         13    1    6    6    0    0 -0.25179210955E+02  0.46139254233E+02  0.41783894972E+01  0.52728383099E+02  0.00000000000E+00 0. -1.
        -14    1    6    6    0    0  0.99614231260E+01  0.55955629524E+02  0.99372878302E+02  0.11447808248E+03  0.00000000000E+00 0.  1.
</event>
<event>
12    1  0.8113184E-002  0.2089822E+03  0.7818608E-02  0.1145275E+00
         21   -1    0    0  503  502  0.00000000000E+00  0.00000000000E+00  0.77939265897E+02  0.77939265897E+02  0.00000000000E+00 0.  1.
         21   -1    0    0  501  503 -0.00000000000E+00 -0.00000000000E+00 -0.68939916663E+03  0.68939916663E+03  0.00000000000E+00 0.  1.
          6    2    1    2  501    0 -0.81499494934E+02 -0.39294480016E+02 -0.48586564956E+03  0.52351987207E+03  0.17268874657E+03 0.  0.
         24    2    3    3    0    0 -0.93959261912E+02 -0.80828981426E+02 -0.32185207296E+03  0.35380568907E+03  0.78917942281E+02 0.  0.
         -6    2    1    2    0  502  0.81499494934E+02  0.39294480016E+02 -0.12559425117E+03  0.24381856046E+03  0.18838086597E+03 0.  0.
        -24    2    5    5    0    0 -0.15016073923E+01  0.47878849559E+02 -0.13081969335E+03  0.16007926482E+03  0.78847573199E+02 0.  0.
          5    1    3    3  501    0  0.12459766978E+02  0.41534501410E+02 -0.16401357660E+03  0.16971418300E+03  0.47000000000E+01 0. -1.
        -13    1    4    4    0    0 -0.37861226851E+02 -0.30170553122E+02 -0.22908071361E+03  0.23414035988E+03  0.00000000000E+00 0.  1.
         14    1    4    4    0    0 -0.56098035061E+02 -0.50658428304E+02 -0.92771359344E+02  0.11966532919E+03  0.00000000000E+00 0. -1.
         -5    1    5    5    0  502  0.83001102327E+02 -0.85843695433E+01  0.52254421724E+01  0.83739295637E+02  0.47000000000E+01 0.  1.
         13    1    6    6    0    0 -0.23659654197E+01 -0.15525330784E+02 -0.11632517528E+01  0.15747598006E+02  0.00000000000E+00 0. -1.
        -14    1    6    6    0    0  0.86435802749E+00  0.63404180343E+02 -0.12965644159E+03  0.14433166682E+03  0.00000000000E+00 0.  1.
</event>
<event>
12    1  0.8113184E-002  0.1849616E+03  0.7818608E-02  0.1163335E+00
         21   -1    0    0  501  502  0.00000000000E+00  0.00000000000E+00  0.10295967582E+03  0.10295967582E+03  0.00000000000E+00 0.  1.
         21   -1    0    0  502  503 -0.00000000000E+00 -0.00000000000E+00 -0.33616019919E+03  0.33616019919E+03  0.00000000000E+00 0.  1.
         -6    2    1    2    0  503  0.27923120387E+02  0.60212444819E+02 -0.14576581664E+03  0.23549621586E+03  0.17264285453E+03 0.  0.
        -24    2    3    3    0    0 -0.15786899810E+02  0.63568446569E+02 -0.26200318077E+02  0.10806063582E+03  0.81856403180E+02 0.  0.
          6    2    1    2  501    0 -0.27923120387E+02 -0.60212444819E+02 -0.87434706728E+02  0.20362365915E+03  0.17150080892E+03 0.  0.
         24    2    5    5    0    0 -0.14557031029E+02  0.33815984669E+02 -0.36296369800E+02  0.95655064636E+02  0.80480040745E+02 0.  0.
          5    1    5    5  501    0 -0.13366089358E+02 -0.94028429488E+02 -0.51138336928E+02  0.10796859451E+03  0.47000000000E+01 0. -1.
        -11    1    6    6    0    0  0.15894410301E+02 -0.13452740421E+02  0.97363804526E+01  0.22987074802E+02  0.00000000000E+00 0.  1.
         12    1    6    6    0    0 -0.30451441330E+02  0.47268725090E+02 -0.46032750252E+02  0.72667989834E+02  0.00000000000E+00 0. -1.
         -5    1    3    3    0  503  0.43710020197E+02 -0.33560017506E+01 -0.11956549857E+03  0.12743558004E+03  0.47000000000E+01 0.  1.
         11    1    4    4    0    0 -0.30179249048E+02  0.19826861475E+02  0.21283794685E+02  0.41915288682E+02  0.00000000000E+00 0. -1.
        -12    1    4    4    0    0  0.14392349238E+02  0.43741585094E+02 -0.47484112762E+02  0.66145347138E+02  0.00000000000E+00 0.  1.
</event>
<event>
12    1  0.8113184E-002  0.1956652E+03  0.7818608E-02  0.1156881E+00
         21   -1    0    0  503  502  0.00000000000E+00  0.00000000000E+00  0.27600987280E+03  0.27600987280E+03  0.00000000000E+00 0.  1.
         21   -1    0    0  501  503 -0.00000000000E+00 -0.00000000000E+00 -0.14999427057E+03  0.14999427057E+03  0.00000000000E+00 0. -1.
          6    2    1    2  501    0 -0.24186727156E+02 -0.48168856501E+02  0.14201852617E+03  0.22968559058E+03  0.17228166541E+03 0.  0.
         24    2    3    3    0    0  0.37643161231E+02  0.12291400997E+02  0.10046468949E+03  0.13362733129E+03  0.78708472904E+02 0.  0.
         -6    2    1    2    0  502  0.24186727156E+02  0.48168856501E+02 -0.16002923949E+02  0.19631855279E+03  0.18809477422E+03 0.  0.
        -24    2    5    5    0    0  0.12693417834E+02  0.92407450890E+02  0.34381697936E+02  0.12812874772E+03  0.80836965577E+02 0.  0.
          5    1    3    3  501    0 -0.61829888387E+02 -0.60460257498E+02  0.41553836678E+02  0.96058259287E+02  0.47000000000E+01 0. -1.
        -13    1    4    4    0    0  0.40451906106E+02 -0.14725834565E+01  0.10962317693E+03  0.11685788861E+03  0.00000000000E+00 0.  1.
         14    1    4    4    0    0 -0.28087448747E+01  0.13763984453E+02 -0.91584874357E+01  0.16769442683E+02  0.00000000000E+00 0. -1.
         -5    1    5    5    0  502  0.11493309322E+02 -0.44238594389E+02 -0.50384621884E+02  0.68189805067E+02  0.47000000000E+01 0.  1.
         13    1    6    6    0    0  0.17023637605E+02  0.76367312378E+02 -0.11729159076E+02  0.79116014876E+02  0.00000000000E+00 0. -1.
        -14    1    6    6    0    0 -0.43302197706E+01  0.16040138512E+02  0.46110857012E+02  0.49012732847E+02  0.00000000000E+00 0.  1.
</event>
<event>
12    1  0.8113184E-002  0.1966882E+03  0.7818608E-02  0.1153063E+00
         21   -1    0    0  503  502  0.00000000000E+00  0.00000000000E+00  0.28992961494E+03  0.28992961494E+03  0.00000000000E+00 0.  1.
         21   -1    0    0  501  503 -0.00000000000E+00 -0.00000000000E+00 -0.28762834982E+03  0.28762834982E+03  0.00000000000E+00 0.  1.
          6    2    1    2  501    0 -0.91220555476E+02 -0.10821554051E+02 -0.21134909397E+03  0.28871210747E+03  0.17391936552E+03 0.  0.
         24    2    3    3    0    0 -0.81293629383E+02 -0.62515444307E+02 -0.90633995954E+02  0.15693567922E+03  0.76794864644E+02 0.  0.
         -6    2    1    2    0  502  0.91220555476E+02  0.10821554051E+02  0.21365035909E+03  0.28884585729E+03  0.17131012102E+03 0.  0.
        -24    2    5    5    0    0  0.55810012570E+02  0.95675950909E+01  0.37925553770E+02  0.10952275179E+03  0.85735576939E+02 0.  0.
          5    1    3    3  501    0 -0.99269260929E+01  0.51693890256E+02 -0.12071509802E+03  0.13177642824E+03  0.47000000000E+01 0. -1.
        -13    1    4    4    0    0 -0.51124136823E+02 -0.75528028513E+02 -0.82744730501E+02  0.12314564906E+03  0.00000000000E+00 0.  1.
         14    1    4    4    0    0 -0.30169492560E+02  0.13012584206E+02 -0.78892654525E+01  0.33790030163E+02  0.00000000000E+00 0. -1.
         -5    1    5    5    0  502  0.35410542906E+02  0.12539589597E+01  0.17572480532E+03  0.17932310550E+03  0.47000000000E+01 0.  1.
         11    1    6    6    0    0  0.27588333765E+02  0.45751011208E+02  0.34307660556E+02  0.63492414974E+02  0.00000000000E+00 0. -1.
        -12    1    6    6    0    0  0.28221678805E+02 -0.36183416117E+02  0.36178932139E+01  0.46030336820E+02  0.00000000000E+00 0.  1.
</event>
<event>
12    1  0.8113184E-002  0.1842183E+03  0.7818608E-02  0.1163886E+00
         21   -1    0    0  503  502  0.00000000000E+00  0.00000000000E+00  0.96422573679E+03  0.96422573679E+03  0.00000000000E+00 0. -1.
         21   -1    0    0  501  503 -0.00000000000E+00 -0.00000000000E+00 -0.36006085680E+02  0.36006085680E+02  0.00000000000E+00 0. -1.
          6    2    1    2  501    0 -0.63625452462E+02 -0.63519201228E+01  0.38579944368E+03  0.42752494404E+03  0.17276522204E+03 0.  0.
         24    2    3    3    0    0 -0.39769755604E+02 -0.19266339004E+02  0.38836619623E+03  0.39987436166E+03  0.84370477431E+02 0.  0.
         -6    2    1    2    0  502  0.63625452462E+02  0.63519201228E+01  0.54242020743E+03  0.57270687843E+03  0.17229318639E+03 0.  0.
        -24    2    5    5    0    0  0.80884243646E+02 -0.20592311267E+02  0.52141004251E+03  0.53414038379E+03  0.80443850062E+02 0.  0.
          5    1    3    3  501    0 -0.23855696858E+02  0.12914418881E+02 -0.25667525469E+01  0.27650582386E+02  0.47000000000E+01 0. -1.
        -13    1    4    4    0    0 -0.22777058700E+02  0.27346118650E+02  0.80226617804E+02  0.87766250988E+02  0.00000000000E+00 0.  1.
         14    1    4    4    0    0 -0.16992696903E+02 -0.46612457654E+02  0.30813957842E+03  0.31210811067E+03  0.00000000000E+00 0. -1.
         -5    1    5    5    0  502 -0.17258791184E+02  0.26944231390E+02  0.21010164920E+02  0.38566494633E+02  0.47000000000E+01 0.  1.
         11    1    6    6    0    0  0.17436421604E+01 -0.51197756921E+01  0.27126297981E+03  0.27131689333E+03  0.00000000000E+00 0. -1.
        -12    1    6    6    0    0  0.79140601485E+02 -0.15472535575E+02  0.25014706271E+03  0.26282349047E+03  0.00000000000E+00 0.  1.
</event>
<event>
12    1  0.8113184E-002  0.2066203E+03  0.7818608E-02  0.1146180E+00
         21   -1    0    0  503  502  0.00000000000E+00  0.00000000000E+00  0.13821371397E+03  0.13821371397E+03  0.00000000000E+00 0. -1.
         21   -1    0    0  501  503 -0.00000000000E+00 -0.00000000000E+00 -0.29527613638E+03  0.29527613638E+03  0.00000000000E+00 0. -1.
          6    2    1    2  501    0  0.58867578623E+02 -0.98594322192E+02 -0.78905848168E+02  0.22117428034E+03  0.17177222484E+03 0.  0.
         24    2    3    3    0    0  0.73662137435E+02 -0.17972978794E+01 -0.35216831688E+02  0.11384598469E+03  0.79317981718E+02 0.  0.
         -6    2    1    2    0  502 -0.58867578623E+02  0.98594322192E+02 -0.78156574240E+02  0.21231557002E+03  0.16057153856E+03 0.  0.
        -24    2    5    5    0    0  0.85500134712E+00  0.46662341685E+02 -0.93255192388E+02  0.13160760618E+03  0.80286524010E+02 0.  0.
          5    1    3    3  501    0 -0.14794558813E+02 -0.96797024312E+02 -0.43689016481E+02  0.10732829565E+03  0.47000000000E+01 0. -1.
        -11    1    4    4    0    0 -0.16051404419E+02  0.80366741178E+01 -0.72691940554E+01  0.19366902099E+02  0.00000000000E+00 0.  1.
         12    1    4    4    0    0  0.89713541854E+02 -0.98339719972E+01 -0.27947637632E+02  0.94479082587E+02  0.00000000000E+00 0. -1.
         -5    1    5    5    0  502 -0.59722579970E+02  0.51931980506E+02  0.15098618148E+02  0.80707963842E+02  0.47000000000E+01 0.  1.
         13    1    6    6    0    0  0.18720442601E+01  0.34363112117E+02  0.30184469957E+01  0.34546187146E+02  0.00000000000E+00 0. -1.
        -14    1    6    6    0    0 -0.10170429129E+01  0.12299229569E+02 -0.96273639384E+02  0.97061419032E+02  0.00000000000E+00 0.  1.
</event>
<event>
12    1  0.8113184E-002  0.1726072E+03  0.7818608E-02  0.1175570E+00
         21   -1    0    0  501  502  0.00000000000E+00  0.00000000000E+00  0.17646401277E+02  0.17646401277E+02  0.00000000000E+00 0. -1.
         21   -1    0    0  502  503 -0.00000000000E+00 -0.00000000000E+00 -0.17249172692E+04  0.17249172692E+04  0.00000000000E+00 0. -1.
         -6    2    1    2    0  503  0.15080519618E+01  0.14062076255E+02 -0.10014530615E+04  0.10159468478E+04  0.17041052472E+03 0.  0.
        -24    2    3    3    0    0 -0.95709106222E+01 -0.50876875308E+02 -0.43353431384E+03  0.44420074611E+03  0.81744986369E+02 0.  0.
          6    2    1    2  501    0 -0.15080519618E+01 -0.14062076255E+02 -0.70581780647E+03  0.72661682273E+03  0.17202678554E+03 0.  0.
         24    2    5    5    0    0  0.41317147757E+02 -0.55800777266E+02 -0.34104867231E+03  0.35694841980E+03  0.79228429688E+02 0.  0.
          5    1    5    5  501    0 -0.42825199718E+02  0.41738701011E+02 -0.36476913416E+03  0.36966840293E+03  0.47000000000E+01 0. -1.
        -11    1    6    6    0    0 -0.23000504379E+01 -0.17285340003E+02 -0.85949826516E+01  0.19440857435E+02  0.00000000000E+00 0.  1.
         12    1    6    6    0    0  0.43617198194E+02 -0.38515437263E+02 -0.33245368966E+03  0.33750756236E+03  0.00000000000E+00 0. -1.
         -5    1    3    3    0  503  0.11078962584E+02  0.64938951563E+02 -0.56791874766E+03  0.57174610168E+03  0.47000000000E+01 0.  1.
         13    1    4    4    0    0 -0.17852726994E+02  0.19104289602E+02 -0.10692937590E+03  0.11007990358E+03  0.00000000000E+00 0. -1.
        -14    1    4    4    0    0  0.82818163718E+01 -0.69981164909E+02 -0.32660493794E+03  0.33412084253E+03  0.00000000000E+00 0.  1.
</event>
<event>
12    1  0.8113184E-002  0.2806306E+03  0.7818608E-02  0.1095727E+00
         21   -1    0    0  503  502  0.00000000000E+00  0.00000000000E+00  0.42236145724E+03  0.42236145724E+03  0.00000000000E+00 0. -1.
         21   -1    0    0  501  503 -0.00000000000E+00 -0.00000000000E+00 -0.23978213263E+03  0.23978213263E+03  0.00000000000E+00 0.  1.
          6    2    1    2  501    0 -0.17905039320E+03 -0.12546779810E+03 -0.67167113582E+02  0.28855668569E+03  0.17593273727E+03 0.  0.
         24    2    3    3    0    0 -0.23375154524E+02 -0.63496504134E+02 -0.41142679553E+02  0.11892596212E+03  0.88726887128E+02 0.  0.
         -6    2    1    2    0  502  0.17905039320E+03  0.12546779810E+03  0.24974643819E+03  0.37358690418E+03  0.17144293487E+03 0.  0.
        -24    2    5    5    0    0  0.13376895272E+03  0.88916161382E+02  0.25811505974E+03  0.31460762964E+03  0.80959002543E+02 0.  0.
          5    1    3    3  501    0 -0.15567523867E+03 -0.61971293970E+02 -0.26024434029E+02  0.16963072357E+03  0.47000000000E+01 0. -1.
        -11    1    4    4    0    0 -0.51742276138E+02 -0.47504543139E+02 -0.52134042203E+01  0.70435249289E+02  0.00000000000E+00 0.  1.
         12    1    4    4    0    0  0.28367121614E+02 -0.15991960994E+02 -0.35929275333E+02  0.48490712833E+02  0.00000000000E+00 0. -1.
         -5    1    5    5    0  502  0.45281440473E+02  0.36551636722E+02 -0.83686215507E+01  0.58979274538E+02  0.47000000000E+01 0.  1.
         13    1    6    6    0    0  0.50727981801E+01 -0.13008365703E+02  0.10312833469E+02  0.17358150644E+02  0.00000000000E+00 0. -1.
        -14    1    6    6    0    0  0.12869615454E+03  0.10192452708E+03  0.24780222628E+03  0.29724947899E+03  0.00000000000E+00 0.  1.
</event>
<event>
12    1  0.8113184E-002  0.1928868E+03  0.7818608E-02  0.1155986E+00
         21   -1    0    0  503  502  0.00000000000E+00  0.00000000000E+00  0.11440331112E+03  0.11440331112E+03  0.00000000000E+00 0.  1.
         21   -1    0    0  501  503 -0.00000000000E+00 -0.00000000000E+00 -0.32458960056E+03  0.32458960056E+03  0.00000000000E+00 0.  1.
          6    2    1    2  501    0 -0.66531949837E+02 -0.58533607637E+02 -0.11007789313E+03  0.22208661175E+03  0.17132611298E+03 0.  0.
         24    2    3    3    0    0 -0.98320026462E+02 -0.60004371915E+01 -0.96716582487E+02  0.15907208616E+03  0.79037955554E+02 0.  0.
         -6    2    1    2    0  502  0.66531949837E+02  0.58533607637E+02 -0.10010839631E+03  0.21690629993E+03  0.17080388862E+03 0.  0.
        -24    2    5    5    0    0  0.65312475201E+02  0.15328284964E+02  0.10800862605E+01  0.10677280807E+03  0.83057752318E+02 0.  0.
          5    1    3    3  501    0  0.31788076626E+02 -0.52533170446E+02 -0.13361310644E+02  0.63014525585E+02  0.47000000000E+01 0. -1.
        -13    1    4    4    0    0 -0.52289540565E+02 -0.41968419319E+02 -0.60709032726E+02  0.90449604350E+02  0.00000000000E+00 0.  1.
         14    1    4    4    0    0 -0.46030485897E+02  0.35967982128E+02 -0.36007549762E+02  0.68622481813E+02  0.00000000000E+00 0. -1.
         -5    1    5    5    0  502  0.12194746354E+01  0.43205322673E+02 -0.10118848257E+03  0.11013349186E+03  0.47000000000E+01 0.  1.
         11    1    6    6    0    0 -0.44650019318E+01  0.34040569965E+02 -0.26448440767E+01  0.34433876429E+02  0.00000000000E+00 0. -1.
        -12    1    6    6    0    0  0.69777477133E+02 -0.18712285001E+02  0.37249303373E+01  0.72338931641E+02  0.00000000000E+00 0.  1.
</event>
<event>
12    1  0.8113184E-002  0.2095603E+03  0.7818608E-02  0.1142109E+00
         21   -1    0    0  503  502  0.00000000000E+00  0.00000000000E+00  0.78542144426E+03  0.78542144426E+03  0.00000000000E+00 0. -1.
         21   -1    0    0  501  503 -0.00000000000E+00 -0.00000000000E+00 -0.58661394976E+02  0.58661394976E+02  0.00000000000E+00 0. -1.
          6    2    1    2  501    0  0.20368239797E+02 -0.11621071728E+03  0.26700207721E+03  0.33881766352E+03  0.17201018538E+03 0.  0.
         24    2    3    3    0    0  0.47492209170E+02 -0.45296876283E+02  0.23423911540E+03  0.25599264178E+03  0.79730499350E+02 0.  0.
         -6    2    1    2    0  502 -0.20368239797E+02  0.11621071728E+03  0.45975797207E+03  0.50526517571E+03  0.17319269298E+03 0.  0.
        -24    2    5    5    0    0 -0.36043354793E+02  0.12490319048E+03  0.23827069652E+03  0.28300413200E+03  0.80115438543E+02 0.  0.
          5    1    3    3  501    0 -0.27123969373E+02 -0.70913841001E+02  0.32762961805E+02  0.82825021740E+02  0.47000000000E+01 0. -1.
        -13    1    4    4    0    0 -0.56789961243E+01 -0.49239545827E+02  0.12391326835E+03  0.13345891481E+03  0.00000000000E+00 0.  1.
         14    1    4    4    0    0  0.53171205294E+02  0.39426695440E+01  0.11032584706E+03  0.12253372697E+03  0.00000000000E+00 0. -1.
         -5    1    5    5    0  502  0.15675114996E+02 -0.86924731960E+01  0.22148727555E+03  0.22226104371E+03  0.47000000000E+01 0.  1.
         11    1    6    6    0    0 -0.20284706913E+02  0.41625005785E+01  0.83753240909E+02  0.86275147687E+02  0.00000000000E+00 0. -1.
        -12    1    6    6    0    0 -0.15758647879E+02  0.12074068990E+03  0.15451745561E+03  0.19672898431E+03  0.00000000000E+00 0.  1.
</event>
<event>
12    1  0.8113184E-002  0.1769522E+03  0.7818608E-02  0.1171163E+00
         21   -1    0    0  503  502  0.00000000000E+00  0.00000000000E+00  0.48066861695E+03  0.48066861695E+03  0.00000000000E+00 0. -1.
         21   -1    0    0  501  503 -0.00000000000E+00 -0.00000000000E+00 -0.16132098727E+03  0.16132098727E+03  0.00000000000E+00 0. -1.
          6    2    1    2  501    0 -0.86994869298E+01 -0.45639105790E+02 -0.88618358609E+02  0.19790221845E+03  0.17074385944E+03 0.  0.
         24    2    3    3    0    0  0.56429560026E+00  0.36397638743E+02 -0.82411097695E+02  0.11497776363E+03  0.71436619249E+02 0.  0.
         -6    2    1    2    0  502  0.86994869298E+01  0.45639105790E+02  0.40796598829E+03  0.44408738576E+03  0.16917077034E+03 0.  0.
        -24    2    5    5    0    0 -0.63190104119E+01  0.67516755769E+02  0.14197290557E+03  0.17673257117E+03  0.80496295518E+02 0.  0.
          5    1    3    3  501    0 -0.92637825300E+01 -0.82036744533E+02 -0.62072609144E+01  0.82924454828E+02  0.47000000000E+01 0. -1.
        -11    1    4    4    0    0  0.12986852956E+01 -0.97871808404E+01  0.84853088275E+01  0.13018293214E+02  0.00000000000E+00 0.  1.
         12    1    4    4    0    0 -0.73438969533E+00  0.46184819584E+02 -0.90896406523E+02  0.10195947041E+03  0.00000000000E+00 0. -1.
         -5    1    5    5    0  502  0.15018497342E+02 -0.21877649980E+02  0.26599308272E+03  0.26735481460E+03  0.47000000000E+01 0.  1.
         13    1    6    6    0    0 -0.36720774008E+02  0.13234955531E+02  0.79494176318E+02  0.88560168023E+02  0.00000000000E+00 0. -1.
        -14    1    6    6    0    0  0.30401763596E+02  0.54281800239E+02  0.62478729253E+02  0.88172403143E+02  0.00000000000E+00 0.  1.
</event>
<event>
12    1  0.8113184E-002  0.2460846E+03  0.7818608E-02  0.1116106E+00
         21   -1    0    0  503  502  0.00000000000E+00  0.00000000000E+00  0.16154211657E+03  0.16154211657E+03  0.00000000000E+00 0.  1.
         21   -1    0    0  501  503 -0.00000000000E+00 -0.00000000000E+00 -0.41896783604E+03  0.41896783604E+03  0.00000000000E+00 0. -1.
          6    2    1    2  501    0  0.17281454289E+03 -0.26672730325E+01 -0.22542091330E+03  0.33235286721E+03  0.17254523931E+03 0.  0.
         24    2    3    3    0    0  0.17505662822E+03 -0.40287032123E+02 -0.14725221303E+03  0.24544654452E+03  0.79327951794E+02 0.  0.
         -6    2    1    2    0  502 -0.17281454289E+03  0.26672730325E+01 -0.32004806165E+02  0.24815708541E+03  0.17517320240E+03 0.  0.
        -24    2    5    5    0    0 -0.10812188579E+03  0.63898236598E+02  0.10375411616E+02  0.14940211773E+03  0.80249715193E+02 0.  0.
          5    1    3    3  501    0 -0.22420853259E+01  0.37619759090E+02 -0.78168700271E+02  0.86906322685E+02  0.47000000000E+01 0. -1.
        -13    1    4    4    0    0  0.10695475900E+03 -0.32069007168E+02 -0.40945564295E+02  0.11892973105E+03  0.00000000000E+00 0.  1.
         14    1    4    4    0    0  0.68101869221E+02 -0.82180249548E+01 -0.10630664873E+03  0.12651681347E+03  0.00000000000E+00 0. -1.
         -5    1    5    5    0  502 -0.64692657098E+02 -0.61230963566E+02 -0.42380217781E+02  0.98754967676E+02  0.47000000000E+01 0.  1.
         11    1    6    6    0    0 -0.47569865977E+02  0.62184391519E+02 -0.21169500272E+02  0.81104490871E+02  0.00000000000E+00 0. -1.
        -12    1    6    6    0    0 -0.60552019815E+02  0.17138450794E+01  0.31544911888E+02  0.68297626860E+02  0.00000000000E+00 0.  1.
</event>
<event>
12    1  0.8113184E-002  0.1867546E+03  0.7818608E-02  0.1161971E+00
         21   -1    0    0  501  502  0.00000000000E+00  0.00000000000E+00  0.58420708444E+03  0.58420708444E+03  0.00000000000E+00 0. -1.
         21   -1    0    0  502  503 -0.00000000000E+00 -0.00000000000E+00 -0.63551426884E+02  0.63551426884E+02  0.00000000000E+00 0. -1.
         -6    2    1    2    0  503  0.24994358702E+02  0.67682651424E+02  0.17468154893E+03  0.25571648687E+03  0.17225451765E+03 0.  0.
        -24    2    3    3    0    0  0.59457463538E+02  0.94903460871E+02  0.10468046112E+03  0.17294620019E+03  0.80065800225E+02 0.  0.
          6    2    1    2  501    0 -0.24994358702E+02 -0.67682651424E+02  0.34597410863E+03  0.39204202445E+03  0.16968560878E+03 0.  0.
         24    2    5    5    0    0 -0.66926668367E+02 -0.70868804347E+02  0.17288233791E+03  0.21385302015E+03  0.79644491954E+02 0.  0.
          5    1    5    5  501    0  0.41932309665E+02  0.31861529238E+01  0.17309177072E+03  0.17818900430E+03  0.47000000000E+01 0. -1.
        -11    1    6    6    0    0  0.15673068628E+01  0.15415097962E+02  0.17409323562E+02  0.23305927205E+02  0.00000000000E+00 0.  1.
         12    1    6    6    0    0 -0.68493975230E+02 -0.86283902309E+02  0.15547301435E+03  0.19054709295E+03  0.00000000000E+00 0. -1.
         -5    1    3    3    0  503 -0.34463104837E+02 -0.27220809447E+02  0.70001087814E+02  0.82770286680E+02  0.47000000000E+01 0.  1.
         13    1    4    4    0    0  0.17449425866E+02  0.82203137611E+02  0.97093250465E+02  0.12840925816E+03  0.00000000000E+00 0. -1.
        -14    1    4    4    0    0  0.42008037673E+02  0.12700323260E+02  0.75872106559E+01  0.44536942032E+02  0.00000000000E+00 0.  1.
</event>
<event>
12    1  0.8113184E-002  0.1860500E+03  0.7818608E-02  0.1162127E+00
         21   -1    0    0  501  502  0.00000000000E+00  0.00000000000E+00  0.17966414314E+03  0.17966414314E+03  0.00000000000E+00 0. -1.
         21   -1    0    0  502  503 -0.00000000000E+00 -0.00000000000E+00 -0.19704038572E+03  0.19704038572E+03  0.00000000000E+00 0. -1.
         -6    2    1    2    0  503 -0.69187904565E+02  0.39999110949E+01 -0.37528003220E+02  0.18979717938E+03  0.17266051328E+03 0.  0.
        -24    2    3    3    0    0 -0.54867508779E+02 -0.39612027359E+02 -0.75809747160E+02  0.12984172233E+03  0.80822019655E+02 0.  0.
          6    2    1    2  501    0  0.69187904565E+02 -0.39999110949E+01  0.20151760634E+02  0.18690734948E+03  0.17241026189E+03 0.  0.
         24    2    5    5    0    0  0.46778488508E+02  0.83955288952E+01  0.79952186424E+02  0.12168457903E+03  0.78460644702E+02 0.  0.
          5    1    5    5  501    0  0.22409416057E+02 -0.12395439990E+02 -0.59800425790E+02  0.65222770450E+02  0.47000000000E+01 0. -1.
        -13    1    6    6    0    0 -0.14774332324E+02  0.22751072043E+02  0.14757629141E+02  0.30881706439E+02  0.00000000000E+00 0.  1.
         14    1    6    6    0    0  0.61552820831E+02 -0.14355543148E+02  0.65194557283E+02  0.90802872590E+02  0.00000000000E+00 0. -1.
         -5    1    3    3    0  503 -0.14320395787E+02  0.43611938454E+02  0.38281743940E+02  0.59955457052E+02  0.47000000000E+01 0.  1.
         11    1    4    4    0    0 -0.18387712935E+02  0.23446424727E+02 -0.36314290719E+02  0.46974147462E+02  0.00000000000E+00 0. -1.
        -12    1    4    4    0    0 -0.36479795844E+02 -0.63058452086E+02 -0.39495456441E+02  0.82867574864E+02  0.00000000000E+00 0.  1.
</event>
<event>
12    1  0.8113184E-002  0.4448876E+03  0.7818608E-02  0.1029268E+00
         21   -1    0    0  503  502  0.00000000000E+00  0.00000000000E+00  0.52067939676E+03  0.52067939676E+03  0.00000000000E+00 0. -1.
         21   -1    0    0  501  503 -0.00000000000E+00 -0.00000000000E+00 -0.38110332554E+03  0.38110332554E+03  0.00000000000E+00 0.  1.
          6    2    1    2  501    0 -0.32375984575E+03 -0.25218860756E+03  0.93962457841E+02  0.45470201103E+03  0.17177148730E+03 0.  0.
         24    2    3    3    0    0 -0.22647570259E+03 -0.88836521612E+02  0.69130628492E+02  0.26290311051E+03  0.71804110475E+02 0.  0.
         -6    2    1    2    0  502  0.32375984575E+03  0.25218860756E+03  0.45613613380E+02  0.44708071126E+03  0.17140895296E+03 0.  0.
        -24    2    5    5    0    0  0.23012866196E+03  0.13221224450E+03  0.85107891791E+02  0.28978158763E+03  0.79314164122E+02 0.  0.
          5    1    3    3  501    0 -0.97284143155E+02 -0.16335208595E+03  0.24831829349E+02  0.19179890052E+03  0.47000000000E+01 0. -1.
        -11    1    4    4    0    0 -0.12805980099E+03 -0.51049256526E+02  0.19074995371E+01  0.13787304949E+03  0.00000000000E+00 0.  1.
         12    1    4    4    0    0 -0.98415901605E+02 -0.37787265086E+02  0.67223128955E+02  0.12503006102E+03  0.00000000000E+00 0. -1.
         -5    1    5    5    0  502  0.93631183790E+02  0.11997636305E+03 -0.39494278411E+02  0.15729912364E+03  0.47000000000E+01 0.  1.
         11    1    6    6    0    0  0.17621194547E+02  0.38117016838E+02  0.27963455956E+02  0.50451643570E+02  0.00000000000E+00 0. -1.
        -12    1    6    6    0    0  0.21250746741E+03  0.94095227667E+02  0.57144435835E+02  0.23932994406E+03  0.00000000000E+00 0.  1.
</event>
<event>
12    1  0.8113184E-002  0.1892277E+03  0.7818608E-02  0.1159477E+00
         21   -1    0    0  501  502  0.00000000000E+00  0.00000000000E+00  0.18291273561E+03  0.18291273561E+03  0.00000000000E+00 0.  1.
         21   -1    0    0  502  503 -0.00000000000E+00 -0.00000000000E+00 -0.21051896514E+03  0.21051896514E+03  0.00000000000E+00 0.  1.
         -6    2    1    2    0  503 -0.67702732460E+02  0.37800396305E+02 -0.68416206648E+02  0.20121608913E+03  0.17261114463E+03 0.  0.
        -24    2    3    3    0    0 -0.19120262202E+02  0.42791474214E+02  0.25567575613E+02  0.95196239087E+02  0.78815787260E+02 0.  0.
          6    2    1    2  501    0  0.67702732460E+02 -0.37800396305E+02  0.40809977119E+02  0.19221561163E+03  0.17108143434E+03 0.  0.
         24    2    5    5    0    0  0.48341324686E+02  0.42633077989E+02  0.11808010471E+02  0.10442260526E+03  0.81303064926E+02 0.  0.
          5    1    5    5  501    0  0.19361407773E+02 -0.80433474294E+02  0.29001966648E+02  0.87793006369E+02  0.47000000000E+01 0. -1.
        -13    1    6    6    0    0 -0.93205232239E+01 -0.17222666771E+02  0.82055460212E+01  0.21232602040E+02  0.00000000000E+00 0.  1.
         14    1    6    6    0    0  0.57661847910E+02  0.59855744761E+02  0.36024644499E+01  0.83190003218E+02  0.00000000000E+00 0. -1.
         -5    1    3    3    0  503 -0.48582470258E+02 -0.49910779099E+01 -0.93983782261E+02  0.10601985004E+03  0.47000000000E+01 0.  1.
         13    1    4    4    0    0  0.20089049498E+02 -0.12675224050E+02  0.57753058483E+01  0.24445559353E+02  0.00000000000E+00 0. -1.
        -14    1    4    4    0    0 -0.39209311700E+02  0.55466698264E+02  0.19792269765E+02  0.70750679734E+02  0.00000000000E+00 0.  1.
</event>
<event>
12    1  0.8113184E-002  0.1813601E+03  0.7818608E-02  0.1166657E+00
         21   -1    0    0  503  502  0.00000000000E+00  0.00000000000E+00  0.97290247656E+03  0.97290247656E+03  0.00000000000E+00 0. -1.
         21   -1    0    0  501  503 -0.00000000000E+00 -0.00000000000E+00 -0.34900019017E+02  0.34900019017E+02  0.00000000000E+00 0.  1.
          6    2    1    2  501    0 -0.20056102522E+02 -0.56152118387E+02  0.56403471471E+03  0.59247501426E+03  0.17127806479E+03 0.  0.
         24    2    3    3    0    0 -0.64840918172E+02 -0.21539436965E+02  0.47849714741E+03  0.48979842079E+03  0.79212883494E+02 0.  0.
         -6    2    1    2    0  502  0.20056102522E+02  0.56152118387E+02  0.37396774284E+03  0.41532748132E+03  0.17055713532E+03 0.  0.
        -24    2    5    5    0    0  0.69657663809E+02  0.53584806447E+02  0.18252292836E+03  0.21748887800E+03  0.79140830599E+02 0.  0.
          5    1    3    3  501    0  0.44784815649E+02 -0.34612681422E+02  0.85537567294E+02  0.10267659347E+03  0.47000000000E+01 0. -1.
        -11    1    4    4    0    0 -0.73746483921E+01  0.26588357576E+02  0.89943519061E+02  0.94080618720E+02  0.00000000000E+00 0.  1.
         12    1    4    4    0    0 -0.57466269780E+02 -0.48127794541E+02  0.38855362835E+03  0.39571780207E+03  0.00000000000E+00 0. -1.
         -5    1    5    5    0  502 -0.49601561286E+02  0.25673119398E+01  0.19144481447E+03  0.19783860332E+03  0.47000000000E+01 0.  1.
         11    1    6    6    0    0  0.14173032858E+01  0.49501125617E+02  0.85390221542E+02  0.98710992908E+02  0.00000000000E+00 0. -1.
        -12    1    6    6    0    0  0.68240360523E+02  0.40836808304E+01  0.97132706820E+02  0.11877788509E+03  0.00000000000E+00 0.  1.
</event>
<event>
12    1  0.8113184E-002  0.1812550E+03  0.7818608E-02  0.1166607E+00
         21   -1    0    0  501  502  0.00000000000E+00  0.00000000000E+00  0.47956547654E+03  0.47956547654E+03  0.00000000000E+00 0. -1.
         21   -1    0    0  502  503 -0.00000000000E+00 -0.00000000000E+00 -0.78601823143E+02  0.78601823143E+02  0.00000000000E+00 0. -1.
         -6    2    1    2    0  503  0.45383172853E+01  0.60795639795E+02  0.10033993084E+03  0.20712884899E+03  0.17063865981E+03 0.  0.
        -24    2    3    3    0    0  0.19884703429E+02  0.10523282722E+03  0.72912571202E+02  0.15249804037E+03  0.80436682686E+02 0.  0.
          6    2    1    2  501    0 -0.45383172853E+01 -0.60795639795E+02  0.30062372256E+03  0.35103845070E+03  0.17069465475E+03 0.  0.
         24    2    5    5    0    0 -0.48162185051E+02 -0.75140930966E+02  0.27134206399E+03  0.29637278738E+03  0.79022514716E+02 0.  0.
          5    1    5    5  501    0  0.43623867766E+02  0.14345291171E+02  0.29281658570E+02  0.54665663320E+02  0.47000000000E+01 0. -1.
        -13    1    6    6    0    0 -0.12664653974E+02 -0.21939125370E+02  0.98614060159E+01  0.27183929276E+02  0.00000000000E+00 0.  1.
         14    1    6    6    0    0 -0.35497531077E+02 -0.53201805597E+02  0.26148065797E+03  0.26918885810E+03  0.00000000000E+00 0. -1.
         -5    1    3    3    0  503 -0.15346386144E+02 -0.44437187424E+02  0.27427359635E+02  0.54630808619E+02  0.47000000000E+01 0.  1.
         11    1    4    4    0    0 -0.29144677424E+02  0.34512790962E+02  0.40092554770E+02  0.60398327047E+02  0.00000000000E+00 0. -1.
        -12    1    4    4    0    0  0.49029380853E+02  0.70720036257E+02  0.32820016432E+02  0.92099713320E+02  0.00000000000E+00 0.  1.
</event>
<event>
12    1  0.8113184E-002  0.1781775E+03  0.7818608E-02  0.1170624E+00
         21   -1    0    0  503  502  0.00000000000E+00  0.00000000000E+00  0.19496401760E+03  0.19496401760E+03  0.00000000000E+00 0.  1.
         21   -1    0    0  501  503 -0.00000000000E+00 -0.00000000000E+00 -0.19125074972E+03  0.19125074972E+03  0.00000000000E+00 0.  1.
          6    2    1    2  501    0  0.51874041727E+02  0.24626347865E+02  0.81155416904E+02  0.19578927492E+03  0.16867087854E+03 0.  0.
         24    2    3    3    0    0  0.64386463820E+02  0.41442572780E+01 -0.82015698975E+01  0.10314566839E+03  0.80056052654E+02 0.  0.
         -6    2    1    2    0  502 -0.51874041727E+02 -0.24626347865E+02 -0.77442149023E+02  0.19042549240E+03  0.16421695557E+03 0.  0.
        -24    2    5    5    0    0 -0.62200122702E+01 -0.71526610802E+02 -0.55459787871E+02  0.12122116255E+03  0.80399238634E+02 0.  0.
          5    1    3    3  501    0 -0.12512422094E+02  0.20482090587E+02  0.89356986802E+02  0.92643606535E+02  0.47000000000E+01 0. -1.
        -11    1    4    4    0    0  0.75650304736E+02  0.16692113578E+02  0.10255632153E+02  0.78145846039E+02  0.00000000000E+00 0.  1.
         12    1    4    4    0    0 -0.11263840915E+02 -0.12547856300E+02 -0.18457202050E+02  0.24999822348E+02  0.00000000000E+00 0. -1.
         -5    1    5    5    0  502 -0.45654029456E+02  0.46900262937E+02 -0.21982361151E+02  0.69204329857E+02  0.47000000000E+01 0.  1.
         13    1    6    6    0    0 -0.86552866615E+00 -0.24518907124E+00 -0.49481154383E+02  0.49489331139E+02  0.00000000000E+00 0. -1.
        -14    1    6    6    0    0 -0.53544836041E+01 -0.71281421731E+02 -0.59786334887E+01  0.71731831407E+02  0.00000000000E+00 0.  1.
</event>
<event>
12    1  0.8113184E-002  0.2478612E+03  0.7818608E-02  0.1114765E+00
         21   -1    0    0  501  502  0.00000000000E+00  0.00000000000E+00  0.51252115571E+02  0.51252115571E+02  0.00000000000E+00 0.  1.
         21   -1    0    0  502  503 -0.00000000000E+00 -0.00000000000E+00 -0.23466766939E+04  0.23466766939E+04  0.00000000000E+00 0. -1.
         -6    2    1    2    0  503 -0.76170596403E+02  0.16167108800E+03 -0.19866677221E+04  0.20019919767E+04  0.17083248011E+03 0.  0.
        -24    2    3    3    0    0  0.41210675281E+01  0.11350271938E+03 -0.15009054230E+04  0.15072657451E+04  0.78949901582E+02 0.  0.
          6    2    1    2  501    0  0.76170596403E+02 -0.16167108800E+03 -0.30875685617E+03  0.39593683272E+03  0.17174306047E+03 0.  0.
         24    2    5    5    0    0  0.60133453299E+02 -0.26107931702E+02 -0.85623621232E+02  0.13431670765E+03  0.80074447476E+02 0.  0.
          5    1    5    5  501    0  0.16037143104E+02 -0.13556315630E+03 -0.22313323494E+03  0.26162012506E+03  0.47000000000E+01 0. -1.
        -11    1    6    6    0    0 -0.75877942835E+01 -0.28975231718E+02 -0.48583567639E+02  0.57074527766E+02  0.00000000000E+00 0.  1.
         12    1    6    6    0    0  0.67721247583E+02  0.28673000161E+01 -0.37040053593E+02  0.77242179887E+02  0.00000000000E+00 0. -1.
         -5    1    3    3    0  503 -0.80291663931E+02  0.48168368624E+02 -0.48576229913E+03  0.49472623166E+03  0.47000000000E+01 0.  1.
         13    1    4    4    0    0  0.21896308499E+02  0.49246021011E+02 -0.10578736848E+04  0.10592456523E+04  0.00000000000E+00 0. -1.
        -14    1    4    4    0    0 -0.17775240971E+02  0.64256698367E+02 -0.44303173822E+03  0.44802009279E+03  0.00000000000E+00 0.  1.
</event>
<event>
12    1  0.8113184E-002  0.2596636E+03  0.7818608E-02  0.1107558E+00
         21   -1    0    0  501  502  0.00000000000E+00  0.00000000000E+00  0.21983620641E+03  0.21983620641E+03  0.00000000000E+00 0.  1.
         21   -1    0    0  502  503 -0.00000000000E+00 -0.00000000000E+00 -0.30561444963E+03  0.30561444963E+03  0.00000000000E+00 0.  1.
         -6    2    1    2    0  503 -0.33955365740E+02  0.19107931449E+03 -0.31417524602E+02  0.26015783029E+03  0.17038416746E+03 0.  0.
        -24    2    3    3    0    0 -0.70358108639E+02  0.19427852013E+03 -0.26491313756E+02  0.22298590324E+03  0.79539402214E+02 0.  0.
          6    2    1    2  501    0  0.33955365740E+02 -0.19107931449E+03 -0.54360718613E+02  0.26529282575E+03  0.17251354840E+03 0.  0.
         24    2    5    5    0    0 -0.12936050443E+02 -0.81355289593E+02 -0.84810208131E+02  0.14205554259E+03  0.78746309312E+02 0.  0.
          5    1    5    5  501    0  0.46891416183E+02 -0.10972402490E+03  0.30449489518E+02  0.12323728317E+03  0.47000000000E+01 0. -1.
        -11    1    6    6    0    0  0.16250633251E+01 -0.77389678791E+02 -0.26489355472E+02  0.81813746812E+02  0.00000000000E+00 0.  1.
         12    1    6    6    0    0 -0.14561113768E+02 -0.39656108021E+01 -0.58320852658E+02  0.60241795773E+02  0.00000000000E+00 0. -1.
         -5    1    3    3    0  503  0.36402742899E+02 -0.31992056379E+01 -0.49262108456E+01  0.37171927049E+02  0.47000000000E+01 0.  1.
         11    1    4    4    0    0  0.10578126136E+02  0.85108399930E+01 -0.14698775113E+02  0.20009626177E+02  0.00000000000E+00 0. -1.
        -12    1    4    4    0    0 -0.80936234775E+02  0.18576768013E+03 -0.11792538643E+02  0.20297627706E+03  0.00000000000E+00 0.  1.
</event>
<event>
12    1  0.8113184E-002  0.1744152E+03  0.7818608E-02  0.1173494E+00
         21   -1    0    0  503  502  0.00000000000E+00  0.00000000000E+00  0.15760251021E+03  0.15760251021E+03  0.00000000000E+00 0.  1.
         21   -1    0    0  501  503 -0.00000000000E+00 -0.00000000000E+00 -0.35403500282E+03  0.35403500282E+03  0.00000000000E+00 0.  1.
          6    2    1    2  501    0  0.11690335041E+02 -0.23101580367E+02 -0.27125015215E+03  0.32248612338E+03  0.17248277533E+03 0.  0.
         24    2    3    3    0    0  0.66116014766E+02 -0.26597381146E+02 -0.11629729780E+03  0.15814850655E+03  0.80044616031E+02 0.  0.
         -6    2    1    2    0  502 -0.11690335041E+02  0.23101580367E+02  0.74817659538E+02  0.18915138966E+03  0.17178538669E+03 0.  0.
        -24    2    5    5    0    0  0.47969046596E+02  0.50750698689E+02  0.58119903659E+02  0.12114682648E+03  0.80137179362E+02 0.  0.
          5    1    3    3  501    0 -0.54425679724E+02  0.34958007789E+01 -0.15495285435E+03  0.16433761683E+03  0.47000000000E+01 0. -1.
        -11    1    4    4    0    0  0.29315727075E+02 -0.45191123617E+02 -0.10044072987E+03  0.11397363609E+03  0.00000000000E+00 0.  1.
         12    1    4    4    0    0  0.36800287691E+02  0.18593742471E+02 -0.15856567931E+02  0.44174870455E+02  0.00000000000E+00 0. -1.
         -5    1    5    5    0  502 -0.59659381637E+02 -0.27649118322E+02  0.16697755879E+02  0.68004563175E+02  0.47000000000E+01 0.  1.
         13    1    6    6    0    0  0.36301296042E+02 -0.11479253771E+02  0.48052019722E+01  0.38375087329E+02  0.00000000000E+00 0. -1.
        -14    1    6    6    0    0  0.11667750553E+02  0.62229952460E+02  0.53314701687E+02  0.82771739151E+02  0.00000000000E+00 0.  1.
</event>
<event>
12    1  0.8113184E-002  0.1974447E+03  0.7818608E-02  0.1153952E+00
         21   -1    0    0  503  502  0.00000000000E+00  0.00000000000E+00  0.26674229376E+02  0.26674229376E+02  0.00000000000E+00 0.  1.
         21   -1    0    0  501  503 -0.00000000000E+00 -0.00000000000E+00 -0.19625532488E+04  0.19625532488E+04  0.00000000000E+00 0.  1.
          6    2    1    2  501    0  0.95520307178E+02 -0.32323237615E+02 -0.14867821858E+04  0.14986437744E+04  0.15888037571E+03 0.  0.
         24    2    3    3    0    0  0.11973722182E+03 -0.40262061370E+02 -0.99273778350E+03  0.10039201694E+04  0.79808294839E+02 0.  0.
         -6    2    1    2    0  502 -0.95520307178E+02  0.32323237615E+02 -0.44909683368E+03  0.49058370382E+03  0.16975124054E+03 0.  0.
        -24    2    5    5    0    0 -0.40757029067E+02  0.83778603818E+02 -0.28280355105E+03  0.30803996334E+03  0.78935294098E+02 0.  0.
          5    1    3    3  501    0 -0.24216914647E+02  0.79388237551E+01 -0.49404440229E+03  0.49472360497E+03  0.47000000000E+01 0. -1.
        -13    1    4    4    0    0  0.67695628969E+02 -0.19785432734E+02 -0.80356037879E+03  0.80664951738E+03  0.00000000000E+00 0.  1.
         14    1    4    4    0    0  0.52041592855E+02 -0.20476628636E+02 -0.18917740471E+03  0.19727065205E+03  0.00000000000E+00 0. -1.
         -5    1    5    5    0  502 -0.54763278111E+02 -0.51455366203E+02 -0.16629328263E+03  0.18254374048E+03  0.47000000000E+01 0.  1.
         13    1    6    6    0    0 -0.41464171803E+00  0.33920446542E+02 -0.20223873694E+03  0.20506407619E+03  0.00000000000E+00 0. -1.
        -14    1    6    6    0    0 -0.40342387349E+02  0.49858157277E+02 -0.80564814105E+02  0.10297588716E+03  0.00000000000E+00 0.  1.
</event>
<event>
12    1  0.8113184E-002  0.2067392E+03  0.7818608E-02  0.1144299E+00
         21   -1    0    0  503  502  0.00000000000E+00  0.00000000000E+00  0.79819866146E+03  0.79819866146E+03  0.00000000000E+00 0. -1.
         21   -1    0    0  501  503 -0.00000000000E+00 -0.00000000000E+00 -0.93940513640E+02  0.93940513640E+02  0.00000000000E+00 0. -1.
          6    2    1    2  501    0 -0.13634428062E+02  0.11308603018E+03  0.58748117121E+02  0.21433071549E+03  0.17179047264E+03 0.  0.
         24    2    3    3    0    0 -0.29223354197E+02  0.11631250986E+03  0.97444366150E+02  0.17222472449E+03  0.76048319195E+02 0.  0.
         -6    2    1    2    0  502  0.13634428062E+02 -0.11308603018E+03  0.64551003070E+03  0.67780845961E+03  0.17253046204E+03 0.  0.
        -24    2    5    5    0    0  0.70537231545E+02 -0.44298686047E+02  0.30147060446E+03  0.32234419338E+03  0.77996019340E+02 0.  0.
          5    1    3    3  501    0  0.15588926135E+02 -0.32264796838E+01 -0.38696249029E+02  0.42105991000E+02  0.47000000000E+01 0. -1.
        -13    1    4    4    0    0 -0.28200374505E+02  0.22489016499E+02 -0.11911546870E+01  0.36089275897E+02  0.00000000000E+00 0.  1.
         14    1    4    4    0    0 -0.10229796918E+01  0.93823493361E+02  0.98635520837E+02  0.13613544860E+03  0.00000000000E+00 0. -1.
         -5    1    5    5    0  502 -0.56902803484E+02 -0.68787344129E+02  0.34403942623E+03  0.35546426622E+03  0.47000000000E+01 0.  1.
         11    1    6    6    0    0 -0.10200755555E+02 -0.19839050027E+02  0.26066764154E+02  0.34309175352E+02  0.00000000000E+00 0. -1.
        -12    1    6    6    0    0  0.80737987101E+02 -0.24459636021E+02  0.27540384031E+03  0.28803501803E+03  0.00000000000E+00 0.  1.
</event>
<event>
12    1  0.8113184E-002  0.1858684E+03  0.7818608E-02  0.1162269E+00
         21   -1    0    0  501  502  0.00000000000E+00  0.00000000000E+00  0.21100891611E+03  0.21100891611E+03  0.00000000000E+00 0.  1.
         21   -1    0    0  502  503 -0.00000000000E+00 -0.00000000000E+00 -0.25782445908E+03  0.25782445908E+03  0.00000000000E+00 0. -1.
         -6    2    1    2    0  503  0.44507890759E+02 -0.53865089052E+02 -0.16510127904E+03  0.24851868184E+03  0.17210666090E+03 0.  0.
        -24    2    3    3    0    0  0.93658316143E+02 -0.28501967405E+02 -0.91014042478E+02  0.15594405855E+03  0.80316568289E+02 0.  0.
          6    2    1    2  501    0 -0.44507890759E+02  0.53865089052E+02  0.11828573607E+03  0.22031469335E+03  0.17223428401E+03 0.  0.
         24    2    5    5    0    0 -0.73169899405E+02  0.91089867836E+02  0.80525661194E+02  0.15985720291E+03  0.73612125430E+02 0.  0.
          5    1    5    5  501    0  0.28662008646E+02 -0.37224778784E+02  0.37760074881E+02  0.60457490439E+02  0.47000000000E+01 0. -1.
        -13    1    6    6    0    0 -0.55226331242E+02  0.69701967132E+02  0.93530213948E+02  0.12905895089E+03  0.00000000000E+00 0.  1.
         14    1    6    6    0    0 -0.17943568163E+02  0.21387900704E+02 -0.13004552755E+02  0.30798252017E+02  0.00000000000E+00 0. -1.
         -5    1    3    3    0  503 -0.49150425384E+02 -0.25363121647E+02 -0.74087236564E+02  0.92574623288E+02  0.47000000000E+01 0.  1.
         11    1    4    4    0    0  0.13190445832E+02  0.17717164316E+02 -0.49657689787E+02  0.54348614772E+02  0.00000000000E+00 0. -1.
        -12    1    4    4    0    0  0.80467870311E+02 -0.46219131721E+02 -0.41356352690E+02  0.10159544378E+03  0.00000000000E+00 0.  1.
</event>
<event>
12    1  0.8113184E-002  0.1917141E+03  0.7818608E-02  0.1157464E+00
         21   -1    0    0  501  502  0.00000000000E+00  0.00000000000E+00  0.20375670767E+03  0.20375670767E+03  0.00000000000E+00 0. -1.
         21   -1    0    0  502  503 -0.00000000000E+00 -0.00000000000E+00 -0.23952975148E+03  0.23952975148E+03  0.00000000000E+00 0.  1.
         -6    2    1    2    0  503  0.70209094924E+02 -0.45773525584E+02 -0.13018966162E+03  0.23174042968E+03  0.17242315999E+03 0.  0.
        -24    2    3    3    0    0  0.37855639275E+02 -0.81662877130E+02 -0.35277890891E+02  0.12513308533E+03  0.79447369573E+02 0.  0.
          6    2    1    2  501    0 -0.70209094924E+02  0.45773525584E+02  0.94416617805E+02  0.21154602947E+03  0.16974301816E+03 0.  0.
         24    2    5    5    0    0 -0.93040072604E+02  0.78361155100E+02  0.62866936298E+02  0.16054917131E+03  0.83826362135E+02 0.  0.
          5    1    5    5  501    0  0.22830977681E+02 -0.32587629517E+02  0.31549681507E+02  0.50996858164E+02  0.47000000000E+01 0. -1.
        -13    1    6    6    0    0 -0.47999775821E+01  0.21137764669E+02 -0.17765392858E+02  0.28025953390E+02  0.00000000000E+00 0.  1.
         14    1    6    6    0    0 -0.88240095022E+02  0.57223390431E+02  0.80632329156E+02  0.13252321792E+03  0.00000000000E+00 0. -1.
         -5    1    3    3    0  503  0.32353455648E+02  0.35889351546E+02 -0.94911770725E+02  0.10660734435E+03  0.47000000000E+01 0.  1.
         13    1    4    4    0    0 -0.20025016645E+02 -0.42344740103E+00 -0.91356183323E+01  0.22014543412E+02  0.00000000000E+00 0. -1.
        -14    1    4    4    0    0  0.57880655920E+02 -0.81239429728E+02 -0.26142272559E+02  0.10311854192E+03  0.00000000000E+00 0.  1.
</event>
<event>
12    1  0.8113184E-002  0.2223639E+03  0.7818608E-02  0.1132192E+00
         21   -1    0    0  501  502  0.00000000000E+00  0.00000000000E+00  0.52961533655E+03  0.52961533655E+03  0.00000000000E+00 0.  1.
         21   -1    0    0  502  503 -0.00000000000E+00 -0.00000000000E+00 -0.24752931386E+03  0.24752931386E+03  0.00000000000E+00 0.  1.
         -6    2    1    2    0  503 -0.65106255942E+02  0.12541165598E+03 -0.16578906049E+03  0.27710686182E+03  0.17127548649E+03 0.  0.
        -24    2    3    3    0    0 -0.86414154475E+02  0.45334737989E+02 -0.14460399457E+03  0.19144919227E+03  0.78865920490E+02 0.  0.
          6    2    1    2  501    0  0.65106255942E+02 -0.12541165598E+03  0.44787508318E+03  0.50003778859E+03  0.17169389000E+03 0.  0.
         24    2    5    5    0    0  0.47967921540E+02 -0.74220173560E+02  0.12570115358E+03  0.17333850593E+03  0.80224073471E+02 0.  0.
          5    1    5    5  501    0  0.17138334402E+02 -0.51191482418E+02  0.32217392960E+03  0.32669928266E+03  0.47000000000E+01 0. -1.
        -11    1    6    6    0    0 -0.97667905580E+01 -0.33538983382E+02  0.84822350494E+02  0.91733771030E+02  0.00000000000E+00 0.  1.
         12    1    6    6    0    0  0.57734712098E+02 -0.40681190179E+02  0.40878803090E+02  0.81604734896E+02  0.00000000000E+00 0. -1.
         -5    1    3    3    0  503  0.21307898533E+02  0.80076917990E+02 -0.21185065923E+02  0.85657669550E+02  0.47000000000E+01 0.  1.
         13    1    4    4    0    0 -0.12401156475E+02  0.38778662381E+02 -0.91413918316E+02  0.10007036424E+03  0.00000000000E+00 0. -1.
        -14    1    4    4    0    0 -0.74012998000E+02  0.65560756074E+01 -0.53190076254E+02  0.91378828030E+02  0.00000000000E+00 0.  1.
</event>
<event>
12    1  0.8113184E-002  0.2296672E+03  0.7818608E-02  0.1127237E+00
         21   -1    0    0  503  502  0.00000000000E+00  0.00000000000E+00  0.10247169043E+04  0.10247169043E+04  0.00000000000E+00 0.  1.
         21   -1    0    0  501  503 -0.00000000000E+00 -0.00000000000E+00 -0.10922754767E+03  0.10922754767E+03  0.00000000000E+00 0. -1.
          6    2    1    2  501    0 -0.42686261525E+02  0.14413083698E+03  0.44802096382E+02  0.23399627345E+03  0.17364104658E+03 0.  0.
         24    2    3    3    0    0 -0.33367014220E+02  0.31140148971E+02  0.72361669168E+02  0.11722571210E+03  0.80141062485E+02 0.  0.
         -6    2    1    2    0  502  0.42686261525E+02 -0.14413083698E+03  0.87068726021E+03  0.89994817848E+03  0.17092280061E+03 0.  0.
        -24    2    5    5    0    0 -0.22786009095E+02 -0.18004595587E+02  0.34636381848E+03  0.35668801196E+03  0.80094166125E+02 0.  0.
          5    1    3    3  501    0 -0.93192473056E+01  0.11299068801E+03 -0.27559572785E+02  0.11677056136E+03  0.47000000000E+01 0. -1.
        -13    1    4    4    0    0 -0.55365923636E+02  0.26628594601E+02  0.72156137486E+02  0.94768010042E+02  0.00000000000E+00 0.  1.
         14    1    4    4    0    0  0.21998909416E+02  0.45115543694E+01  0.20553168147E+00  0.22457702055E+02  0.00000000000E+00 0. -1.
         -5    1    5    5    0  502  0.65472270620E+02 -0.12612624139E+03  0.52432344173E+03  0.54326016653E+03  0.47000000000E+01 0.  1.
         13    1    6    6    0    0 -0.42878725122E+01  0.18885204028E+02  0.20422330514E+02  0.28144419793E+02  0.00000000000E+00 0. -1.
        -14    1    6    6    0    0 -0.18498136583E+02 -0.36889799615E+02  0.32594148797E+03  0.32854359217E+03  0.00000000000E+00 0.  1.
</event>
<event>
12    1  0.8113184E-002  0.2521931E+03  0.7818608E-02  0.1112125E+00
         21   -1    0    0  501  502  0.00000000000E+00  0.00000000000E+00  0.28760501739E+03  0.28760501739E+03  0.00000000000E+00 0.  1.
         21   -1    0    0  502  503 -0.00000000000E+00 -0.00000000000E+00 -0.50925748567E+03  0.50925748567E+03  0.00000000000E+00 0. -1.
         -6    2    1    2    0  503  0.18432274751E+03 -0.57293539905E+01 -0.41096928303E+03  0.48151789564E+03  0.17016471867E+03 0.  0.
        -24    2    3    3    0    0  0.13161898652E+03 -0.42700578082E+02 -0.17701207497E+03  0.23881926970E+03  0.80959693124E+02 0.  0.
          6    2    1    2  501    0 -0.18432274751E+03  0.57293539905E+01  0.18931681476E+03  0.31534460741E+03  0.17202809168E+03 0.  0.
         24    2    5    5    0    0 -0.13404909424E+03 -0.14465633333E+02  0.49660652480E+02  0.16547395856E+03  0.82079451401E+02 0.  0.
          5    1    5    5  501    0 -0.50273653273E+02  0.20194987324E+02  0.13965616228E+03  0.14987064886E+03  0.47000000000E+01 0. -1.
        -13    1    6    6    0    0 -0.42421398090E+02 -0.36869576577E+02  0.43269253506E+02  0.70930733761E+02  0.00000000000E+00 0.  1.
         14    1    6    6    0    0 -0.91627696145E+02  0.22403943244E+02  0.63913989732E+01  0.94543224795E+02  0.00000000000E+00 0. -1.
         -5    1    3    3    0  503  0.52703760987E+02  0.36971224092E+02 -0.23395720806E+03  0.24269862595E+03  0.47000000000E+01 0.  1.
         13    1    4    4    0    0  0.81179203078E+02 -0.69533546945E+01 -0.15133969594E+03  0.17187820025E+03  0.00000000000E+00 0. -1.
        -14    1    4    4    0    0  0.50439783444E+02 -0.35747223388E+02 -0.25672379038E+02  0.66941069452E+02  0.00000000000E+00 0.  1.
</event>
<event>
12    1  0.8113184E-002  0.1721099E+03  0.7818608E-02  0.1175731E+00
         21   -1    0    0  501  502  0.00000000000E+00  0.00000000000E+00  0.52116636649E+03  0.52116636649E+03  0.00000000000E+00 0.  1.
         21   -1    0    0  502  503 -0.00000000000E+00 -0.00000000000E+00 -0.58194737067E+02  0.58194737067E+02  0.00000000000E+00 0.  1.
         -6    2    1    2    0  503  0.12702248168E+02 -0.90170532194E+01  0.27724884253E+03  0.32632610127E+03  0.17140346942E+03 0.  0.
        -24    2    3    3    0    0 -0.39376599553E+02 -0.43013719746E+02  0.22175986530E+03  0.24284498778E+03  0.79972204887E+02 0.  0.
          6    2    1    2  501    0 -0.12702248168E+02  0.90170532194E+01  0.18572278690E+03  0.25303500229E+03  0.17114644155E+03 0.  0.
         24    2    5    5    0    0  0.50708277775E+02  0.33137352606E+02  0.86324932883E+02  0.13259951323E+03  0.80381734858E+02 0.  0.
          5    1    5    5  501    0 -0.63410525943E+02 -0.24120299386E+02  0.99397854014E+02  0.12043548906E+03  0.47000000000E+01 0. -1.
        -13    1    6    6    0    0  0.53067488430E+02 -0.12541213715E+02  0.41166088606E+02  0.68323401707E+02  0.00000000000E+00 0.  1.
         14    1    6    6    0    0 -0.23592106552E+01  0.45678566320E+02  0.45158844278E+02  0.64276111523E+02  0.00000000000E+00 0. -1.
         -5    1    3    3    0  503  0.52078847720E+02  0.33996666527E+02  0.55488977224E+02  0.83481113482E+02  0.47000000000E+01 0.  1.
         13    1    4    4    0    0  0.42812785364E+01 -0.26626997982E+02  0.14934807834E+02  0.30828150326E+02  0.00000000000E+00 0. -1.
        -14    1    4    4    0    0 -0.43657878089E+02 -0.16386721764E+02  0.20682505747E+03  0.21201683746E+03  0.00000000000E+00 0.  1.
</event>
<event>
12    1  0.8113184E-002  0.1839448E+03  0.7818608E-02  0.1164309E+00
         21   -1    0    0  501  502  0.00000000000E+00  0.00000000000E+00  0.16592262574E+03  0.16592262574E+03  0.00000000000E+00 0. -1.
         21   -1    0    0  502  503 -0.00000000000E+00 -0.00000000000E+00 -0.12346064994E+04  0.12346064994E+04  0.00000000000E+00 0. -1.
         -6    2    1    2    0  503  0.45792145677E+02  0.43154794189E+02 -0.11742843992E+04  0.11884273419E+04  0.17162878467E+03 0.  0.
        -24    2    3    3    0    0  0.90251493224E+02  0.59224828633E+02 -0.78052911631E+03  0.79181645898E+03  0.78068501598E+02 0.  0.
          6    2    1    2  501    0 -0.45792145677E+02 -0.43154794189E+02  0.10560052557E+03  0.21210178328E+03  0.17284802169E+03 0.  0.
         24    2    5    5    0    0 -0.20374239795E+02 -0.81925334924E+02  0.25297360228E+02  0.11925829599E+03  0.80347461555E+02 0.  0.
          5    1    5    5  501    0 -0.25417905883E+02  0.38770540736E+02  0.80303165345E+02  0.92843487293E+02  0.47000000000E+01 0. -1.
        -13    1    6    6    0    0  0.15722355128E+02  0.80484530739E+01 -0.37483391494E+01  0.18056026529E+02  0.00000000000E+00 0.  1.
         14    1    6    6    0    0 -0.36096594922E+02 -0.89973787998E+02  0.29045699378E+02  0.10120226946E+03  0.00000000000E+00 0. -1.
         -5    1    3    3    0  503 -0.44459347546E+02 -0.16070034444E+02 -0.39375528292E+03  0.39661088288E+03  0.47000000000E+01 0.  1.
         11    1    4    4    0    0  0.92459297517E+02  0.24072237768E+02 -0.63118991486E+03  0.63837990488E+03  0.00000000000E+00 0. -1.
        -12    1    4    4    0    0 -0.22078042937E+01  0.35152590865E+02 -0.14933920145E+03  0.15343655410E+03  0.00000000000E+00 0.  1.
</event>
<event>
12    1  0.8113184E-002  0.2189053E+03  0.7818608E-02  0.1134834E+00
         21   -1    0    0  501  502  0.00000000000E+00  0.00000000000E+00  0.97850171034E+03  0.97850171034E+03  0.00000000000E+00 0.  1.
         21   -1    0    0  502  503 -0.00000000000E+00 -0.00000000000E+00 -0.55802111857E+02  0.55802111857E+02  0.00000000000E+00 0.  1.
         -6    2    1    2    0  503 -0.13449349528E+03 -0.92859817080E+01  0.27770578581E+03  0.35317493739E+03  0.17157302586E+03 0.  0.
        -24    2    3    3    0    0 -0.69288571693E+02  0.60333537297E+02  0.17594900316E+03  0.21362174932E+03  0.78963017795E+02 0.  0.
          6    2    1    2  501    0  0.13449349528E+03  0.92859817080E+01  0.64499381267E+03  0.68112888480E+03  0.17246683622E+03 0.  0.
         24    2    5    5    0    0  0.14602091254E+03  0.24721312802E+02  0.38242138199E+03  0.41780873337E+03  0.79904781301E+02 0.  0.
          5    1    5    5  501    0 -0.11527417255E+02 -0.15435331094E+02  0.26257243069E+03  0.26332015143E+03  0.47000000000E+01 0. -1.
        -11    1    6    6    0    0  0.67887728810E+02  0.34268872025E+01  0.27502940729E+03  0.28330489257E+03  0.00000000000E+00 0.  1.
         12    1    6    6    0    0  0.78133183726E+02  0.21294425599E+02  0.10739197469E+03  0.13450384080E+03  0.00000000000E+00 0. -1.
         -5    1    3    3    0  503 -0.65204923589E+02 -0.69619519005E+02  0.10175678265E+03  0.13955318808E+03  0.47000000000E+01 0.  1.
         13    1    4    4    0    0 -0.64574256805E+02  0.17202937714E+02  0.14696142671E+03  0.16144174382E+03  0.00000000000E+00 0. -1.
        -14    1    4    4    0    0 -0.47143148877E+01  0.43130599583E+02  0.28987576451E+02  0.52180005498E+02  0.00000000000E+00 0.  1.
</event>
<event>
12    1  0.8113184E-002  0.1853368E+03  0.7818608E-02  0.1163032E+00
         21   -1    0    0  503  502  0.00000000000E+00  0.00000000000E+00  0.29760379251E+02  0.29760379251E+02  0.00000000000E+00 0.  1.
         21   -1    0    0  501  503 -0.00000000000E+00 -0.00000000000E+00 -0.12761169621E+04  0.12761169621E+04  0.00000000000E+00 0. -1.
          6    2    1    2  501    0 -0.52086332358E+02 -0.42605176340E+02 -0.41687700254E+03  0.45621943736E+03  0.17268917949E+03 0.  0.
         24    2    3    3    0    0 -0.87009890302E+02 -0.24492882088E+01 -0.35626049220E+03  0.37541967513E+03  0.80260040804E+02 0.  0.
         -6    2    1    2    0  502  0.52086332358E+02  0.42605176340E+02 -0.82947958027E+03  0.84965790395E+03  0.17133006912E+03 0.  0.
        -24    2    5    5    0    0  0.23438426202E+02  0.89528244800E+02 -0.66415370123E+03  0.67536730420E+03  0.80350421784E+02 0.  0.
          5    1    3    3  501    0  0.34923557943E+02 -0.40155888131E+02 -0.60616510336E+02  0.80799762229E+02  0.47000000000E+01 0. -1.
        -13    1    4    4    0    0  0.81377040720E+01  0.17700998309E+02 -0.86369727251E+02  0.88539693664E+02  0.00000000000E+00 0.  1.
         14    1    4    4    0    0 -0.95147594374E+02 -0.20150286517E+02 -0.26989076495E+03  0.28687998147E+03  0.00000000000E+00 0. -1.
         -5    1    5    5    0  502  0.28647906156E+02 -0.46923068461E+02 -0.16532587904E+03  0.17429059975E+03  0.47000000000E+01 0.  1.
         13    1    6    6    0    0 -0.14091808727E+02  0.26651758167E+02 -0.40345910377E+03  0.40458391429E+03  0.00000000000E+00 0. -1.
        -14    1    6    6    0    0  0.37530234930E+02  0.62876486633E+02 -0.26069459747E+03  0.27078338991E+03  0.00000000000E+00 0.  1.
</event>
<event>
12    1  0.8113184E-002  0.1888490E+03  0.7818608E-02  0.1159633E+00
         21   -1    0    0  501  502  0.00000000000E+00  0.00000000000E+00  0.53496865891E+03  0.53496865891E+03  0.00000000000E+00 0. -1.
         21   -1    0    0  502  503 -0.00000000000E+00 -0.00000000000E+00 -0.66467397297E+02  0.66467397297E+02  0.00000000000E+00 0. -1.
         -6    2    1    2    0  503 -0.45996702037E+02 -0.62535764473E+02  0.23575017376E+03  0.30170784707E+03  0.17153151932E+03 0.  0.
        -24    2    3    3    0    0 -0.92739517262E+02 -0.66339018560E+02  0.16059992910E+03  0.21300043594E+03  0.81088624598E+02 0.  0.
          6    2    1    2  501    0  0.45996702037E+02  0.62535764473E+02  0.23275108785E+03  0.29972820913E+03  0.17215548791E+03 0.  0.
         24    2    5    5    0    0  0.23327653529E+02 -0.26252334244E+02  0.14655551543E+03  0.17383548123E+03  0.86642316216E+02 0.  0.
          5    1    5    5  501    0  0.22669048509E+02  0.88788098716E+02  0.86195572423E+02  0.12589272790E+03  0.47000000000E+01 0. -1.
        -13    1    6    6    0    0  0.50956690999E+02 -0.17221592790E+02  0.12927682501E+03  0.14002023104E+03  0.00000000000E+00 0.  1.
         14    1    6    6    0    0 -0.27629037471E+02 -0.90307414534E+01  0.17278690417E+02  0.33815250188E+02  0.00000000000E+00 0. -1.
         -5    1    3    3    0  503  0.46742815224E+02  0.38032540876E+01  0.75150244663E+02  0.88707411131E+02  0.47000000000E+01 0.  1.
         13    1    4    4    0    0 -0.22026010496E+02 -0.65490266476E+02  0.83467826002E+02  0.10835588641E+03  0.00000000000E+00 0. -1.
        -14    1    4    4    0    0 -0.70713506765E+02 -0.84875208382E+00  0.77132103098E+02  0.10464454954E+03  0.00000000000E+00 0.  1.
</event>
<event>
12    1  0.8113184E-002  0.1913932E+03  0.7818608E-02  0.1157417E+00
         21   -1    0    0  503  502  0.00000000000E+00  0.00000000000E+00  0.10552015819E+04  0.10552015819E+04  0.00000000000E+00 0.  1.
         21   -1    0    0  501  503 -0.00000000000E+00 -0.00000000000E+00 -0.37024998143E+02  0.37024998143E+02  0.00000000000E+00 0.  1.
          6    2    1    2  501    0  0.37135386362E+02 -0.74002070247E+02  0.36898689634E+03  0.41567137446E+03  0.17255729063E+03 0.  0.
         24    2    3    3    0    0  0.46690678732E+02 -0.11525431872E+03  0.30095277575E+03  0.33539819599E+03  0.80347987994E+02 0.  0.
         -6    2    1    2    0  502 -0.37135386362E+02  0.74002070247E+02  0.64918968742E+03  0.67655520559E+03  0.17153528104E+03 0.  0.
        -24    2    5    5    0    0 -0.13288283855E+02  0.44960582878E+01  0.14490279137E+03  0.16692089207E+03  0.81663775528E+02 0.  0.
          5    1    3    3  501    0 -0.95552923702E+01  0.41252248477E+02  0.68034120596E+02  0.80273178471E+02  0.47000000000E+01 0. -1.
        -11    1    4    4    0    0  0.95161991201E+01 -0.49956046167E+02  0.42596274096E+02  0.66337072299E+02  0.00000000000E+00 0.  1.
         12    1    4    4    0    0  0.37174479612E+02 -0.65298272556E+02  0.25835650165E+03  0.26906112369E+03  0.00000000000E+00 0. -1.
         -5    1    5    5    0  502 -0.23847102507E+02  0.69506011959E+02  0.50428689604E+03  0.50963431352E+03  0.47000000000E+01 0.  1.
         13    1    6    6    0    0 -0.16194052552E+02 -0.36780265183E+02  0.86116656968E+02  0.95032172722E+02  0.00000000000E+00 0. -1.
        -14    1    6    6    0    0  0.29057686972E+01  0.41276323471E+02  0.58786134406E+02  0.71888719348E+02  0.00000000000E+00 0.  1.
</event>
<event>
12    1  0.8113184E-002  0.2019762E+03  0.7818608E-02  0.1148098E+00
         21   -1    0    0  503  502  0.00000000000E+00  0.00000000000E+00  0.12497264633E+03  0.12497264633E+03  0.00000000000E+00 0.  1.
         21   -1    0    0  501  503 -0.00000000000E+00 -0.00000000000E+00 -0.14905545030E+04  0.14905545030E+04  0.00000000000E+00 0. -1.
          6    2    1    2  501    0 -0.64802561328E+02  0.85124890744E+02 -0.13966565309E+04  0.14111744484E+04  0.17122569719E+03 0.  0.
         24    2    3    3    0    0 -0.33074362967E+02  0.15704238932E+02 -0.11385162253E+04  0.11419451542E+04  0.80492255817E+02 0.  0.
         -6    2    1    2    0  502  0.64802561328E+02 -0.85124890744E+02  0.31074674281E+02  0.20435270093E+03  0.17131483303E+03 0.  0.
        -24    2    5    5    0    0  0.69943435135E+01 -0.69520734135E+02  0.76293601506E+02  0.12917211081E+03  0.77347703684E+02 0.  0.
          5    1    3    3  501    0 -0.31728198361E+02  0.69420651812E+02 -0.25814030562E+03  0.26922929420E+03  0.47000000000E+01 0. -1.
        -13    1    4    4    0    0 -0.44068368922E+02 -0.21670264314E+02 -0.68560021485E+03  0.68735673133E+03  0.00000000000E+00 0.  1.
         14    1    4    4    0    0  0.10994005955E+02  0.37374503245E+02 -0.45291601044E+03  0.45458842283E+03  0.00000000000E+00 0. -1.
         -5    1    5    5    0  502  0.57808217814E+02 -0.15604156609E+02 -0.45218927225E+02  0.75180590113E+02  0.47000000000E+01 0.  1.
         11    1    6    6    0    0  0.26911459156E+02 -0.45323553671E+02  0.70680008190E+01  0.53182777164E+02  0.00000000000E+00 0. -1.
        -12    1    6    6    0    0 -0.19917115643E+02 -0.24197180464E+02  0.69225600687E+02  0.75989333649E+02  0.00000000000E+00 0.  1.
</event>
<event>
12    1  0.8113184E-002  0.1876156E+03  0.7818608E-02  0.1162156E+00
         21   -1    0    0  503  502  0.00000000000E+00  0.00000000000E+00  0.14965315250E+03  0.14965315250E+03  0.00000000000E+00 0. -1.
         21   -1    0    0  501  503 -0.00000000000E+00 -0.00000000000E+00 -0.22730834492E+03  0.22730834492E+03  0.00000000000E+00 0. -1.
          6    2    1    2  501    0 -0.63940286122E+02 -0.37334107419E+01 -0.44029584564E+02  0.18635646397E+03  0.16937481749E+03 0.  0.
         24    2    3    3    0    0 -0.51829221994E+02  0.55527251452E+02 -0.58863670555E+02  0.12390132755E+03  0.78211657383E+02 0.  0.
         -6    2    1    2    0  502  0.63940286122E+02  0.37334107419E+01 -0.33625607851E+02  0.19060503345E+03  0.17634426197E+03 0.  0.
        -24    2    5    5    0    0  0.26887376924E+02  0.45506707725E+02 -0.74978081074E+02  0.12096278003E+03  0.78844720965E+02 0.  0.
          5    1    3    3  501    0 -0.12111064128E+02 -0.59260662194E+02  0.14834085992E+02  0.62455136420E+02  0.47000000000E+01 0. -1.
        -13    1    4    4    0    0 -0.11959687244E+02  0.51097691104E+02  0.22886303457E+00  0.52479143795E+02  0.00000000000E+00 0.  1.
         14    1    4    4    0    0 -0.39869534750E+02  0.44295603482E+01 -0.59092533590E+02  0.71422183753E+02  0.00000000000E+00 0. -1.
         -5    1    5    5    0  502  0.37052909198E+02 -0.41773296983E+02  0.41352473223E+02  0.69642253428E+02  0.47000000000E+01 0.  1.
         11    1    6    6    0    0 -0.40520351765E+01  0.35998942706E+02 -0.80362818402E+02  0.88150583926E+02  0.00000000000E+00 0. -1.
        -12    1    6    6    0    0  0.30939412100E+02  0.95077650189E+01  0.53847373274E+01  0.32812196099E+02  0.00000000000E+00 0.  1.
</event>
<event>
12    1  0.8113184E-002  0.1937035E+03  0.7818608E-02  0.1155906E+00
         21   -1    0    0  501  502  0.00000000000E+00  0.00000000000E+00  0.98160052803E+03  0.98160052803E+03  0.00000000000E+00 0. -1.
         21   -1    0    0  502  503 -0.00000000000E+00 -0.00000000000E+00 -0.47200302439E+02  0.47200302439E+02  0.00000000000E+00 0.  1.
         -6    2    1    2    0  503 -0.64623372308E+02 -0.67007269464E+02  0.69634953413E+03  0.72189830661E+03  0.16603715546E+03 0.  0.
        -24    2    3    3    0    0 -0.95843278719E+02 -0.24778790529E+02  0.36723742309E+03  0.38858944290E+03  0.79614745396E+02 0.  0.
          6    2    1    2  501    0  0.64623372308E+02  0.67007269464E+02  0.23805069146E+03  0.30690252386E+03  0.16986722179E+03 0.  0.
         24    2    5    5    0    0  0.10980120424E+03  0.54629593742E+02  0.18243332815E+03  0.23403535391E+03  0.80311460562E+02 0.  0.
          5    1    5    5  501    0 -0.45177831930E+02  0.12377675722E+02  0.55617363314E+02  0.72867169947E+02  0.47000000000E+01 0. -1.
        -13    1    6    6    0    0  0.37729176990E+02  0.63309752193E+02  0.84366091091E+02  0.11202344775E+03  0.00000000000E+00 0.  1.
         14    1    6    6    0    0  0.72072027248E+02 -0.86801584509E+01  0.98067237056E+02  0.12201190617E+03  0.00000000000E+00 0. -1.
         -5    1    3    3    0  503  0.31219906411E+02 -0.42228478935E+02  0.32911211104E+03  0.33330886370E+03  0.47000000000E+01 0.  1.
         11    1    4    4    0    0 -0.10812409505E+02  0.16539106239E+02  0.15492902678E+03  0.15618403751E+03  0.00000000000E+00 0. -1.
        -12    1    4    4    0    0 -0.85030869215E+02 -0.41317896769E+02  0.21230839631E+03  0.23240540540E+03  0.00000000000E+00 0.  1.
</event>
<event>
12    1  0.8113184E-002  0.1834427E+03  0.7818608E-02  0.1164756E+00
         21   -1    0    0  501  502  0.00000000000E+00  0.00000000000E+00  0.24179353119E+03  0.24179353119E+03  0.00000000000E+00 0. -1.
         21   -1    0    0  502  503 -0.00000000000E+00 -0.00000000000E+00 -0.14106359274E+03  0.14106359274E+03  0.00000000000E+00 0. -1.
         -6    2    1    2    0  503 -0.40072689447E+01  0.62074253724E+02  0.76557668477E+02  0.19782864516E+03  0.17148126739E+03 0.  0.
        -24    2    3    3    0    0 -0.45379008848E+02  0.89133502081E+02  0.71196173116E+02  0.14788207955E+03  0.82438939514E+02 0.  0.
          6    2    1    2  501    0  0.40072689447E+01 -0.62074253724E+02  0.24172269975E+02  0.18502847877E+03  0.17257452924E+03 0.  0.
         24    2    5    5    0    0 -0.19890051246E+02  0.22039950180E+02 -0.16283599609E+02  0.88565798972E+02  0.81837470567E+02 0.  0.
          5    1    5    5  501    0  0.23897320191E+02 -0.84114203904E+02  0.40455869584E+02  0.96462679802E+02  0.47000000000E+01 0. -1.
        -13    1    6    6    0    0 -0.28263400654E+02  0.26470059364E+02 -0.44389756085E+02  0.58906148274E+02  0.00000000000E+00 0.  1.
         14    1    6    6    0    0  0.83733494080E+01 -0.44301091839E+01  0.28106156475E+02  0.29659650697E+02  0.00000000000E+00 0. -1.
         -5    1    3    3    0  503  0.41371739903E+02 -0.27059248356E+02  0.53614953607E+01  0.49946565615E+02  0.47000000000E+01 0.  1.
         11    1    4    4    0    0 -0.13256212964E+02 -0.99538391664E+01  0.33010644105E+02  0.36939257173E+02  0.00000000000E+00 0. -1.
        -12    1    4    4    0    0 -0.32122795884E+02  0.99087341247E+02  0.38185529011E+02  0.11094282238E+03  0.00000000000E+00 0.  1.
</event>
<event>
12    1  0.8113184E-002  0.1814254E+03  0.7818608E-02  0.1166450E+00
         21   -1    0    0  501  502  0.00000000000E+00  0.00000000000E+00  0.13671782059E+02  0.13671782059E+02  0.00000000000E+00 0.  1.
         21   -1    0    0  502  503 -0.00000000000E+00 -0.00000000000E+00 -0.25237493783E+04  0.25237493783E+04  0.00000000000E+00 0. -1.
         -6    2    1    2    0  503  0.17238393863E+02 -0.56093385520E+02 -0.15288268350E+04  0.15395540461E+04  0.17167276764E+03 0.  0.
        -24    2    3    3    0    0 -0.18503144855E+02  0.30044242440E+02 -0.70980131112E+03  0.71522277324E+03  0.80502740521E+02 0.  0.
          6    2    1    2  501    0 -0.17238393863E+02  0.56093385520E+02 -0.98125076120E+03  0.99786711427E+03  0.17158697875E+03 0.  0.
         24    2    5    5    0    0 -0.32085091981E+02  0.64452108159E+02 -0.35392477450E+03  0.37029219741E+03  0.81670301122E+02 0.  0.
          5    1    5    5  501    0  0.14846698118E+02 -0.83587226388E+01 -0.62732598670E+03  0.62757491687E+03  0.47000000000E+01 0. -1.
        -11    1    6    6    0    0 -0.14814172650E+02 -0.66511047386E+01 -0.10918036918E+02  0.19567841877E+02  0.00000000000E+00 0.  1.
         12    1    6    6    0    0 -0.17270919330E+02  0.71103212897E+02 -0.34300673758E+03  0.35072435553E+03  0.00000000000E+00 0. -1.
         -5    1    3    3    0  503  0.35741538718E+02 -0.86137627960E+02 -0.81902552393E+03  0.82433127285E+03  0.47000000000E+01 0.  1.
         13    1    4    4    0    0  0.68528538870E+01 -0.57352485038E+01 -0.53262821389E+03  0.53270317149E+03  0.00000000000E+00 0. -1.
        -14    1    4    4    0    0 -0.25355998742E+02  0.35779490944E+02 -0.17717309722E+03  0.18251960175E+03  0.00000000000E+00 0.  1.
</event>
<event>
12    1  0.8113184E-002  0.2241257E+03  0.7818608E-02  0.1131092E+00
         21   -1    0    0  501  502  0.00000000000E+00  0.00000000000E+00  0.40851422011E+02  0.40851422011E+02  0.00000000000E+00 0. -1.
         21   -1    0    0  502  503 -0.00000000000E+00 -0.00000000000E+00 -0.12243975154E+04  0.12243975154E+04  0.00000000000E+00 0. -1.
         -6    2    1    2    0  503 -0.70919878764E+02 -0.12366367274E+03 -0.62040209532E+03  0.65964465512E+03  0.17294501434E+03 0.  0.
        -24    2    3    3    0    0 -0.79094764579E+02 -0.10710831255E+03 -0.28050371811E+03  0.31921271546E+03  0.74069220565E+02 0.  0.
          6    2    1    2  501    0  0.70919878764E+02  0.12366367274E+03 -0.56314399806E+03  0.60560428228E+03  0.17118133956E+03 0.  0.
         24    2    5    5    0    0 -0.51500186351E+01  0.35809687920E+02 -0.12666088694E+03  0.15389137763E+03  0.79565817961E+02 0.  0.
          5    1    5    5  501    0  0.76069897399E+02  0.87853984821E+02 -0.43648311112E+03  0.45171290466E+03  0.47000000000E+01 0. -1.
        -11    1    6    6    0    0 -0.18266593220E+01 -0.22045979355E+02 -0.67685360615E+02  0.71208636636E+02  0.00000000000E+00 0.  1.
         12    1    6    6    0    0 -0.33233593131E+01  0.57855667275E+02 -0.58975526320E+02  0.82682740990E+02  0.00000000000E+00 0. -1.
         -5    1    3    3    0  503  0.81748858153E+01 -0.16555360188E+02 -0.33989837721E+03  0.34043193966E+03  0.47000000000E+01 0.  1.
         13    1    4    4    0    0 -0.71271208010E+02 -0.42293452100E+02 -0.19297411179E+03  0.21001744928E+03  0.00000000000E+00 0. -1.
        -14    1    4    4    0    0 -0.78235565691E+01 -0.64814860454E+02 -0.87529606327E+02  0.10919526618E+03  0.00000000000E+00 0.  1.
</event>
<event>
12    1  0.8113184E-002  0.2430181E+03  0.7818608E-02  0.1118535E+00
         21   -1    0    0  503  502  0.00000000000E+00  0.00000000000E+00  0.43537439784E+02  0.43537439784E+02  0.00000000000E+00 0. -1.
         21   -1    0    0  501  503 -0.00000000000E+00 -0.00000000000E+00 -0.22447480422E+04  0.22447480422E+04  0.00000000000E+00 0. -1.
          6    2    1    2  501    0 -0.16302784843E+03  0.10536711600E+02 -0.18363017644E+04  0.18523125953E+04  0.17991297569E+03 0.  0.
         24    2    3    3    0    0 -0.22252854736E+02 -0.32674247695E+02 -0.93782247790E+03  0.94183365306E+03  0.77309986235E+02 0.  0.
         -6    2    1    2    0  502  0.16302784843E+03 -0.10536711600E+02 -0.36490883796E+03  0.43597288671E+03  0.17385280058E+03 0.  0.
        -24    2    5    5    0    0  0.34696876144E+02  0.28984261609E+02 -0.17355238384E+03  0.20215644523E+03  0.93289001372E+02 0.  0.
          5    1    3    3  501    0 -0.14077499369E+03  0.43210959295E+02 -0.89847928653E+03  0.91047894220E+03  0.47000000000E+01 0. -1.
        -11    1    4    4    0    0 -0.33410734170E+02  0.50456756996E+01 -0.19027208598E+03  0.19324906909E+03  0.00000000000E+00 0.  1.
         12    1    4    4    0    0  0.11157879435E+02 -0.37719923394E+02 -0.74755039192E+03  0.74858458397E+03  0.00000000000E+00 0. -1.
         -5    1    5    5    0  502  0.12833097229E+03 -0.39520973209E+02 -0.19135645413E+03  0.23381644148E+03  0.47000000000E+01 0.  1.
         13    1    6    6    0    0 -0.59043550963E+01  0.39982018910E+02 -0.24453928522E+02  0.47237885911E+02  0.00000000000E+00 0. -1.
        -14    1    6    6    0    0  0.40601231241E+02 -0.10997757300E+02 -0.14909845531E+03  0.15491855932E+03  0.00000000000E+00 0.  1.
</event>
<event>
12    1  0.8113184E-002  0.2347006E+03  0.7818608E-02  0.1123562E+00
         21   -1    0    0  501  502  0.00000000000E+00  0.00000000000E+00  0.49348765041E+03  0.49348765041E+03  0.00000000000E+00 0. -1.
         21   -1    0    0  502  503 -0.00000000000E+00 -0.00000000000E+00 -0.33774054881E+03  0.33774054881E+03  0.00000000000E+00 0.  1.
         -6    2    1    2    0  503  0.92252471458E+02  0.12854100445E+03 -0.26252405592E+03  0.35214093304E+03  0.17335238237E+03 0.  0.
        -24    2    3    3    0    0  0.82479928031E+02  0.83400963754E+02 -0.83054543082E+02  0.16676423031E+03  0.84578910493E+02 0.  0.
          6    2    1    2  501    0 -0.92252471458E+02 -0.12854100445E+03  0.41827115752E+03  0.47908726618E+03  0.17187361371E+03 0.  0.
         24    2    5    5    0    0  0.14192094366E+02 -0.70940652791E+02  0.13744623698E+03  0.17325565875E+03  0.76759777681E+02 0.  0.
          5    1    5    5  501    0 -0.10644456582E+03 -0.57600351658E+02  0.28082492054E+03  0.30583160743E+03  0.47000000000E+01 0. -1.
        -13    1    6    6    0    0 -0.10298093158E+02  0.88062313024E+01  0.52404261995E+02  0.54127692614E+02  0.00000000000E+00 0.  1.
         14    1    6    6    0    0  0.24490187524E+02 -0.79746884093E+02  0.85041974983E+02  0.11912796614E+03  0.00000000000E+00 0. -1.
         -5    1    3    3    0  503  0.97725434272E+01  0.45140040695E+02 -0.17946951283E+03  0.18537670273E+03  0.47000000000E+01 0.  1.
         11    1    4    4    0    0 -0.43990731849E+01  0.13302891211E+02  0.13285623723E+02  0.19308717129E+02  0.00000000000E+00 0. -1.
        -12    1    4    4    0    0  0.86879001216E+02  0.70098072543E+02 -0.96340166805E+02  0.14745551318E+03  0.00000000000E+00 0.  1.
</event>
<event>
12    1  0.8113184E-002  0.2343960E+03  0.7818608E-02  0.1123665E+00
         21   -1    0    0  501  502  0.00000000000E+00  0.00000000000E+00  0.36579844623E+03  0.36579844623E+03  0.00000000000E+00 0.  1.
         21   -1    0    0  502  503 -0.00000000000E+00 -0.00000000000E+00 -0.15790226653E+03  0.15790226653E+03  0.00000000000E+00 0. -1.
         -6    2    1    2    0  503 -0.15738366439E+03  0.19828462508E+02  0.45067197474E+02  0.23868924521E+03  0.17256511162E+03 0.  0.
        -24    2    3    3    0    0 -0.14275049023E+03  0.59515497599E+02  0.71275737577E+02  0.18870756742E+03  0.81305094046E+02 0.  0.
          6    2    1    2  501    0  0.15738366439E+03 -0.19828462508E+02  0.16282898222E+03  0.28501146755E+03  0.17191705396E+03 0.  0.
         24    2    5    5    0    0  0.14950568079E+03  0.12643256519E+02  0.17935407272E+03  0.24743961934E+03  0.80911564642E+02 0.  0.
          5    1    5    5  501    0  0.78779836037E+01 -0.32471719027E+02 -0.16525090499E+02  0.37571848214E+02  0.47000000000E+01 0. -1.
        -11    1    6    6    0    0  0.59789815557E+02 -0.30775011821E+02  0.97634885228E+02  0.11855165208E+03  0.00000000000E+00 0.  1.
         12    1    6    6    0    0  0.89715865232E+02  0.43418268340E+02  0.81719187494E+02  0.12888796726E+03  0.00000000000E+00 0. -1.
         -5    1    3    3    0  503 -0.14633174160E+02 -0.39687035091E+02 -0.26208540104E+02  0.49981677790E+02  0.47000000000E+01 0.  1.
         13    1    4    4    0    0 -0.43582165168E+02  0.41621303938E+02 -0.75970515076E+01  0.60740869716E+02  0.00000000000E+00 0. -1.
        -14    1    4    4    0    0 -0.99168325065E+02  0.17894193661E+02  0.78872789085E+02  0.12796669770E+03  0.00000000000E+00 0.  1.
</event>
<event>
12    1  0.8113184E-002  0.2511787E+03  0.7818608E-02  0.1112610E+00
         21   -1    0    0  503  502  0.00000000000E+00  0.00000000000E+00  0.95785623832E+03  0.95785623832E+03  0.00000000000E+00 0. -1.
         21   -1    0    0  501  503 -0.00000000000E+00 -0.00000000000E+00 -0.13778063076E+03  0.13778063076E+03  0.00000000000E+00 0.  1.
          6    2    1    2  501    0 -0.78098647675E+02 -0.16586159223E+03  0.14160474386E+02  0.25157754121E+03  0.17170111724E+03 0.  0.
         24    2    3    3    0    0 -0.10489922908E+03 -0.88123126975E+02 -0.17039583301E+02  0.16350328990E+03  0.87598199982E+02 0.  0.
         -6    2    1    2    0  502  0.78098647675E+02  0.16586159223E+03  0.80591513317E+03  0.84405932787E+03  0.17125268044E+03 0.  0.
        -24    2    5    5    0    0  0.67338852042E+02  0.19320794550E+03  0.73172227528E+03  0.76412018602E+03  0.81230162741E+02 0.  0.
          5    1    3    3  501    0  0.26800581407E+02 -0.77738465252E+02  0.31200057687E+02  0.88074251307E+02  0.47000000000E+01 0. -1.
        -13    1    4    4    0    0 -0.22520848297E+02 -0.18231454337E+02 -0.43509855271E+02  0.52275061367E+02  0.00000000000E+00 0.  1.
         14    1    4    4    0    0 -0.82378380785E+02 -0.69891672638E+02  0.26470271970E+02  0.11122822854E+03  0.00000000000E+00 0. -1.
         -5    1    5    5    0  502  0.10759795633E+02 -0.27346353271E+02  0.74192857885E+02  0.79939141854E+02  0.47000000000E+01 0. -1.
         11    1    6    6    0    0  0.65839232337E+02  0.14513700130E+03  0.42990859428E+03  0.45849858571E+03  0.00000000000E+00 0. -1.
        -12    1    6    6    0    0  0.14996197049E+01  0.48070944194E+02  0.30181368100E+03  0.30562160031E+03  0.00000000000E+00 0.  1.
</event>
<event>
12    1  0.8113184E-002  0.1694625E+03  0.7818608E-02  0.1178436E+00
         21   -1    0    0  503  502  0.00000000000E+00  0.00000000000E+00  0.24304429844E+03  0.24304429844E+03  0.00000000000E+00 0. -1.
         21   -1    0    0  501  503 -0.00000000000E+00 -0.00000000000E+00 -0.35527551330E+03  0.35527551330E+03  0.00000000000E+00 0.  1.
          6    2    1    2  501    0 -0.33332694800E+02  0.80546929676E+00 -0.30055822747E+03  0.34504024583E+03  0.16614994981E+03 0.  0.
         24    2    3    3    0    0 -0.68102824648E+02 -0.41767453140E+02 -0.22070864258E+03  0.24798633369E+03  0.80015010608E+02 0.  0.
         -6    2    1    2    0  502  0.33332694800E+02 -0.80546929676E+00  0.18832701261E+03  0.25327956590E+03  0.16604745557E+03 0.  0.
        -24    2    5    5    0    0  0.49856384224E+01 -0.19261683596E+02  0.20120294805E+03  0.21678207058E+03  0.78204672322E+02 0.  0.
          5    1    3    3  501    0  0.34770129848E+02  0.42572922436E+02 -0.79849584893E+02  0.97053912142E+02  0.47000000000E+01 0. -1.
        -13    1    4    4    0    0 -0.48828913345E+02  0.16449492332E+02 -0.93095477662E+02  0.10640308519E+03  0.00000000000E+00 0.  1.
         14    1    4    4    0    0 -0.19273911302E+02 -0.58216945472E+02 -0.12761316492E+03  0.14158324851E+03  0.00000000000E+00 0. -1.
         -5    1    5    5    0  502  0.28347056377E+02  0.18456214299E+02 -0.12875935441E+02  0.36497495325E+02  0.47000000000E+01 0.  1.
         13    1    6    6    0    0  0.33350665884E+02  0.70552332631E+01  0.14216100631E+03  0.14619095371E+03  0.00000000000E+00 0. -1.
        -14    1    6    6    0    0 -0.28365027461E+02 -0.26316916859E+02  0.59041941741E+02  0.70591116866E+02  0.00000000000E+00 0.  1.
</event>
<event>
12    1  0.8113184E-002  0.1813033E+03  0.7818608E-02  0.1166639E+00
         21   -1    0    0  503  502  0.00000000000E+00  0.00000000000E+00  0.65614354935E+03  0.65614354935E+03  0.00000000000E+00 0. -1.
         21   -1    0    0  501  503 -0.00000000000E+00 -0.00000000000E+00 -0.12104247676E+03  0.12104247676E+03  0.00000000000E+00 0. -1.
          6    2    1    2  501    0  0.37025611898E+02 -0.42959935417E+02 -0.30288036325E+02  0.18343882521E+03  0.17180216956E+03 0.  0.
         24    2    3    3    0    0  0.75980865429E+01 -0.92470978183E+02 -0.18357983275E+02  0.12443256478E+03  0.80856879136E+02 0.  0.
         -6    2    1    2    0  502 -0.37025611898E+02  0.42959935417E+02  0.56538910891E+03  0.59374720089E+03  0.17220465182E+03 0.  0.
        -24    2    5    5    0    0 -0.62614492510E+02  0.12168337908E+02  0.52698789313E+03  0.53807264062E+03  0.87961832414E+02 0.  0.
          5    1    3    3  501    0  0.29427525355E+02  0.49511042766E+02 -0.11930053050E+02  0.59006260431E+02  0.47000000000E+01 0. -1.
        -13    1    4    4    0    0 -0.16842980529E+02 -0.42265373482E+02  0.26636576685E+02  0.52721485242E+02  0.00000000000E+00 0.  1.
         14    1    4    4    0    0  0.24441067072E+02 -0.50205604701E+02 -0.44994559960E+02  0.71711079541E+02  0.00000000000E+00 0. -1.
         -5    1    5    5    0  502  0.25588880612E+02  0.30791597509E+02  0.38401215783E+02  0.55674560274E+02  0.47000000000E+01 0.  1.
         11    1    6    6    0    0 -0.75842722080E+02  0.25370902928E+02  0.30538608385E+03  0.31568411651E+03  0.00000000000E+00 0. -1.
        -12    1    6    6    0    0  0.13228229570E+02 -0.13202565020E+02  0.22160180927E+03  0.22238852411E+03  0.00000000000E+00 0.  1.
</event>
<event>
12    1  0.8113184E-002  0.2932728E+03  0.7818608E-02  0.1088846E+00
         21   -1    0    0  503  502  0.00000000000E+00  0.00000000000E+00  0.13230297864E+04  0.13230297864E+04  0.00000000000E+00 0.  1.
         21   -1    0    0  501  503 -0.00000000000E+00 -0.00000000000E+00 -0.10972075945E+03  0.10972075945E+03  0.00000000000E+00 0.  1.
          6    2    1    2  501    0  0.23309247825E+03 -0.46215947122E+02  0.14673357930E+03  0.32658957308E+03  0.16929851967E+03 0.  0.
         24    2    3    3    0    0  0.11775665182E+03 -0.63973087393E+02  0.13791125456E+03  0.20946744749E+03  0.83053672189E+02 0.  0.
         -6    2    1    2    0  502 -0.23309247825E+03  0.46215947122E+02  0.10665754476E+04  0.11061609727E+04  0.17187464898E+03 0.  0.
        -24    2    5    5    0    0 -0.14223517728E+03 -0.39761916069E+02  0.60639027501E+03  0.62925456139E+03  0.80251366187E+02 0.  0.
          5    1    3    3  501    0  0.11533582643E+03  0.17757140271E+02  0.88223247402E+01  0.11712212559E+03  0.47000000000E+01 0. -1.
        -13    1    4    4    0    0  0.86783365157E+02 -0.72860468815E+02  0.67153347516E+02  0.13171777582E+03  0.00000000000E+00 0.  1.
         14    1    4    4    0    0  0.30973286662E+02  0.88873814215E+01  0.70757907048E+02  0.77749671672E+02  0.00000000000E+00 0. -1.
         -5    1    5    5    0  502 -0.90857300972E+02  0.85977863191E+02  0.46018517261E+03  0.47690641136E+03  0.47000000000E+01 0.  1.
         11    1    6    6    0    0 -0.40317851275E+02  0.19728383627E+02  0.24520764334E+03  0.24928202222E+03  0.00000000000E+00 0. -1.
        -12    1    6    6    0    0 -0.10191732600E+03 -0.59490299696E+02  0.36118263167E+03  0.37997253916E+03  0.00000000000E+00 0.  1.
</event>
<event>
12    1  0.8113184E-002  0.2297308E+03  0.7818608E-02  0.1126843E+00
         21   -1    0    0  503  502  0.00000000000E+00  0.00000000000E+00  0.10686779386E+04  0.10686779386E+04  0.00000000000E+00 0. -1.
         21   -1    0    0  501  503 -0.00000000000E+00 -0.00000000000E+00 -0.49389741024E+02  0.49389741024E+02  0.00000000000E+00 0. -1.
          6    2    1    2  501    0  0.13840846455E+03 -0.60674803567E+02  0.49777303435E+03  0.54819549064E+03  0.17292185342E+03 0.  0.
         24    2    3    3    0    0  0.11768603643E+03 -0.41577385657E+02  0.20357815921E+03  0.25261666028E+03  0.82416187594E+02 0.  0.
         -6    2    1    2    0  502 -0.13840846455E+03  0.60674803567E+02  0.52151516318E+03  0.56987218894E+03  0.17302575371E+03 0.  0.
        -24    2    5    5    0    0 -0.16622857646E+03  0.43061226325E+02  0.37749786730E+03  0.42206397454E+03  0.78403762304E+02 0.  0.
          5    1    3    3  501    0  0.20722428120E+02 -0.19097417910E+02  0.29419487514E+03  0.29557883036E+03  0.47000000000E+01 0. -1.
        -11    1    4    4    0    0 -0.12248890652E+02 -0.47831874868E+01  0.96916431796E+01  0.16335303862E+02  0.00000000000E+00 0.  1.
         12    1    4    4    0    0  0.12993492708E+03 -0.36794198170E+02  0.19388651603E+03  0.23628135642E+03  0.00000000000E+00 0. -1.
         -5    1    5    5    0  502  0.27820111909E+02  0.17613577242E+02  0.14401729589E+03  0.14780821440E+03  0.47000000000E+01 0.  1.
         13    1    6    6    0    0 -0.92914882825E+02  0.19202421656E+02  0.29156775846E+03  0.30661648067E+03  0.00000000000E+00 0. -1.
        -14    1    6    6    0    0 -0.73313693633E+02  0.23858804669E+02  0.85930108842E+02  0.11544749387E+03  0.00000000000E+00 0.  1.
</event>
<event>
12    1  0.8113184E-002  0.2077320E+03  0.7818608E-02  0.1143553E+00
         21   -1    0    0  503  502  0.00000000000E+00  0.00000000000E+00  0.29219397422E+04  0.29219397422E+04  0.00000000000E+00 0.  1.
         21   -1    0    0  501  503 -0.00000000000E+00 -0.00000000000E+00 -0.15136075040E+02  0.15136075040E+02  0.00000000000E+00 0.  1.
          6    2    1    2  501    0 -0.49426844225E+02 -0.10367049019E+03  0.16980321231E+04  0.17105843868E+04  0.17203275735E+03 0.  0.
         24    2    3    3    0    0  0.37451213909E+01 -0.11676923279E+03  0.14258535543E+04  0.14329117408E+04  0.80799869836E+02 0.  0.
         -6    2    1    2    0  502  0.49426844225E+02  0.10367049019E+03  0.12087715440E+04  0.12264914305E+04  0.17309534917E+03 0.  0.
        -24    2    5    5    0    0 -0.37281555490E+02  0.64414248962E+02  0.51250392397E+03  0.52373251890E+03  0.78079250872E+02 0.  0.
          5    1    3    3  501    0 -0.53171965616E+02  0.13098742599E+02  0.27217856884E+03  0.27767264597E+03  0.47000000000E+01 0. -1.
        -11    1    4    4    0    0 -0.93615519041E+01 -0.11042242424E+03  0.13869790551E+04  0.13913991698E+04  0.00000000000E+00 0.  1.
         12    1    4    4    0    0  0.13106673295E+02 -0.63468085497E+01  0.38874499221E+02  0.41512571028E+02  0.00000000000E+00 0. -1.
         -5    1    5    5    0  502  0.86708399716E+02  0.39256241229E+02  0.69626762004E+03  0.70275891156E+03  0.47000000000E+01 0.  1.
         11    1    6    6    0    0 -0.34095252021E+02  0.36694708888E+02  0.11732963594E+03  0.12757441491E+03  0.00000000000E+00 0. -1.
        -12    1    6    6    0    0 -0.31863034697E+01  0.27719540074E+02  0.39517428803E+03  0.39615810399E+03  0.00000000000E+00 0.  1.
</event>
<event>
12    1  0.8113184E-002  0.1868837E+03  0.7818608E-02  0.1161523E+00
         21   -1    0    0  501  502  0.00000000000E+00  0.00000000000E+00  0.68282152759E+02  0.68282152759E+02  0.00000000000E+00 0.  1.
         21   -1    0    0  502  503 -0.00000000000E+00 -0.00000000000E+00 -0.58727348019E+03  0.58727348019E+03  0.00000000000E+00 0. -1.
         -6    2    1    2    0  503 -0.17222518932E+02 -0.67316604589E+02 -0.13916142470E+03  0.23223981074E+03  0.17245662398E+03 0.  0.
        -24    2    3    3    0    0  0.30816100684E+02 -0.63034984671E+02 -0.14775161187E+03  0.18302677833E+03  0.82129296972E+02 0.  0.
          6    2    1    2  501    0  0.17222518932E+02  0.67316604589E+02 -0.37982990272E+03  0.42331582221E+03  0.17348599342E+03 0.  0.
         24    2    5    5    0    0  0.22959226738E+02 -0.22124234592E+02 -0.10930637464E+03  0.13829364275E+03  0.78489746091E+02 0.  0.
          5    1    5    5  501    0 -0.57367078058E+01  0.89440839181E+02 -0.27052352809E+03  0.28502217945E+03  0.47000000000E+01 0. -1.
        -11    1    6    6    0    0 -0.27600156370E+02  0.15875546053E+01 -0.25658741040E+02  0.37718164762E+02  0.00000000000E+00 0.  1.
         12    1    6    6    0    0  0.50559383107E+02 -0.23711789197E+02 -0.83647633597E+02  0.10057547799E+03  0.00000000000E+00 0. -1.
         -5    1    3    3    0  503 -0.48038619616E+02 -0.42816199189E+01  0.85901871660E+01  0.49213032413E+02  0.47000000000E+01 0.  1.
         11    1    4    4    0    0 -0.11559715606E+01 -0.85810951875E+01 -0.10813705099E+03  0.10848314737E+03  0.00000000000E+00 0. -1.
        -12    1    4    4    0    0  0.31972072244E+02 -0.54453889483E+02 -0.39614560875E+02  0.74543630960E+02  0.00000000000E+00 0.  1.
</event>
<event>
12    1  0.8113184E-002  0.2186845E+03  0.7818608E-02  0.1135444E+00
         21   -1    0    0  501  502  0.00000000000E+00  0.00000000000E+00  0.91190821640E+03  0.91190821640E+03  0.00000000000E+00 0.  1.
         21   -1    0    0  502  503 -0.00000000000E+00 -0.00000000000E+00 -0.53818400847E+02  0.53818400847E+02  0.00000000000E+00 0. -1.
         -6    2    1    2    0  503  0.88096240555E+02  0.10208418495E+03  0.33646382955E+03  0.40128647613E+03  0.17216503395E+03 0.  0.
        -24    2    3    3    0    0  0.11391904775E+03  0.12262672834E+03  0.27972459572E+03  0.33548188575E+03  0.79293015266E+02 0.  0.
          6    2    1    2  501    0 -0.88096240555E+02 -0.10208418495E+03  0.52162598600E+03  0.56444014111E+03  0.16827618730E+03 0.  0.
         24    2    5    5    0    0 -0.47743435811E+02 -0.12715481795E+03  0.46070385002E+03  0.48704193608E+03  0.80709520421E+02 0.  0.
          5    1    5    5  501    0 -0.40352804744E+02  0.25070633005E+02  0.60922135980E+02  0.77398205033E+02  0.47000000000E+01 0. -1.
        -11    1    6    6    0    0 -0.16478393382E+01 -0.23889350856E+02  0.17555538463E+02  0.29691975171E+02  0.00000000000E+00 0.  1.
         12    1    6    6    0    0 -0.46095596473E+02 -0.10326546710E+03  0.44314831155E+03  0.45734996091E+03  0.00000000000E+00 0. -1.
         -5    1    3    3    0  503 -0.25822807193E+02 -0.20542543389E+02  0.56739233832E+02  0.65804590388E+02  0.47000000000E+01 0.  1.
         13    1    4    4    0    0  0.17179112297E+02  0.66518696845E+01  0.95519207882E+02  0.97279434333E+02  0.00000000000E+00 0. -1.
        -14    1    4    4    0    0  0.96739935452E+02  0.11597485865E+03  0.18420538784E+03  0.23820245141E+03  0.00000000000E+00 0.  1.
</event>
<event>
12    1  0.8113184E-002  0.1875000E+03  0.7818608E-02  0.1160772E+00
         21   -1    0    0  501  502  0.00000000000E+00  0.00000000000E+00  0.18614926179E+03  0.18614926179E+03  0.00000000000E+00 0.  1.
         21   -1    0    0  502  503 -0.00000000000E+00 -0.00000000000E+00 -0.32903766775E+03  0.32903766775E+03  0.00000000000E+00 0. -1.
         -6    2    1    2    0  503  0.46219569076E+02 -0.58701175635E+02 -0.23969042119E+03  0.30431521583E+03  0.17197143945E+03 0.  0.
        -24    2    3    3    0    0 -0.30084675955E+02  0.67146697170E+01 -0.11575438065E+03  0.14467874512E+03  0.81133766919E+02 0.  0.
          6    2    1    2  501    0 -0.46219569076E+02  0.58701175635E+02  0.96802015239E+02  0.21087171371E+03  0.17179689434E+03 0.  0.
         24    2    5    5    0    0 -0.33125881188E+02  0.44516843280E+02  0.13588518373E+03  0.16702853858E+03  0.79716222964E+02 0.  0.
          5    1    5    5  501    0 -0.13093687888E+02  0.14184332355E+02 -0.39083168487E+02  0.43843175134E+02  0.47000000000E+01 0. -1.
        -11    1    6    6    0    0 -0.26761067924E+02  0.48893273976E+02  0.34930467132E+02  0.65778754402E+02  0.00000000000E+00 0.  1.
         12    1    6    6    0    0 -0.63648132637E+01 -0.43764306964E+01  0.10095471659E+03  0.10124978418E+03  0.00000000000E+00 0. -1.
         -5    1    3    3    0  503  0.76304245031E+02 -0.65415845352E+02 -0.12393604054E+03  0.15963647070E+03  0.47000000000E+01 0.  1.
         13    1    4    4    0    0 -0.67521698167E+01 -0.11573173498E+02 -0.11420983407E+03  0.11499311432E+03  0.00000000000E+00 0. -1.
        -14    1    4    4    0    0 -0.23332506138E+02  0.18287843215E+02 -0.15445465762E+01  0.29685630805E+02  0.00000000000E+00 0.  1.
</event>
<event>
12    1  0.8113184E-002  0.2432316E+03  0.7818608E-02  0.1117765E+00
         21   -1    0    0  501  502  0.00000000000E+00  0.00000000000E+00  0.89398794727E+03  0.89398794727E+03  0.00000000000E+00 0.  1.
         21   -1    0    0  502  503 -0.00000000000E+00 -0.00000000000E+00 -0.12022391484E+03  0.12022391484E+03  0.00000000000E+00 0. -1.
         -6    2    1    2    0  503 -0.34675301767E+02  0.16814940540E+03  0.46604668886E+02  0.24765622612E+03  0.17229338956E+03 0.  0.
        -24    2    3    3    0    0 -0.34030652168E+00  0.18567533810E+03  0.30151758328E+02  0.20547994746E+03  0.82688773677E+02 0.  0.
          6    2    1    2  501    0  0.34675301767E+02 -0.16814940540E+03  0.72715936354E+03  0.76655563600E+03  0.17137737308E+03 0.  0.
         24    2    5    5    0    0  0.53063538376E+02 -0.16345064090E+02  0.31622164217E+03  0.32806437482E+03  0.67432980226E+02 0.  0.
          5    1    5    5  501    0 -0.18388236609E+02 -0.15180434131E+03  0.41093772137E+03  0.43849126118E+03  0.47000000000E+01 0. -1.
        -11    1    6    6    0    0 -0.18905884107E+01 -0.20228401228E+02  0.17972043967E+03  0.18086514030E+03  0.00000000000E+00 0.  1.
         12    1    6    6    0    0  0.54954126787E+02  0.38833371380E+01  0.13650120250E+03  0.14719923452E+03  0.00000000000E+00 0. -1.
         -5    1    3    3    0  503 -0.34334995245E+02 -0.17525932700E+02  0.16452910558E+02  0.42176278657E+02  0.47000000000E+01 0.  1.
         13    1    4    4    0    0 -0.38266116259E+02  0.63465267056E+02  0.41342077770E+00  0.74110098453E+02  0.00000000000E+00 0. -1.
        -14    1    4    4    0    0  0.37925809737E+02  0.12221007104E+03  0.29738337550E+02  0.13136984901E+03  0.00000000000E+00 0.  1.
</event>
<event>
12    1  0.8113184E-002  0.2188573E+03  0.7818608E-02  0.1134896E+00
         21   -1    0    0  501  502  0.00000000000E+00  0.00000000000E+00  0.15860073701E+04  0.15860073701E+04  0.00000000000E+00 0. -1.
         21   -1    0    0  502  503 -0.00000000000E+00 -0.00000000000E+00 -0.30380996359E+02  0.30380996359E+02  0.00000000000E+00 0. -1.
         -6    2    1    2    0  503 -0.40033160565E+01  0.13420120054E+03  0.69952483193E+03  0.73296215859E+03  0.17283676312E+03 0.  0.
        -24    2    3    3    0    0  0.40546274763E+02  0.13152231342E+03  0.39489809355E+03  0.42504758893E+03  0.76018611150E+02 0.  0.
          6    2    1    2  501    0  0.40033160565E+01 -0.13420120054E+03  0.85610154179E+03  0.88342620784E+03  0.17177318206E+03 0.  0.
         24    2    5    5    0    0  0.46485687369E+02 -0.14549145657E+03  0.70066015632E+03  0.72182071266E+03  0.82290968595E+02 0.  0.
          5    1    5    5  501    0 -0.42482371313E+02  0.11290256028E+02  0.15544138547E+03  0.16160549518E+03  0.47000000000E+01 0. -1.
        -11    1    6    6    0    0  0.36436036206E+02 -0.21614731455E+02  0.27993388776E+03  0.28312146310E+03  0.00000000000E+00 0.  1.
         12    1    6    6    0    0  0.10049651163E+02 -0.12387672512E+03  0.42072626856E+03  0.43869924957E+03  0.00000000000E+00 0. -1.
         -5    1    3    3    0  503 -0.44549590819E+02  0.26788871225E+01  0.30462673837E+03  0.30791456966E+03  0.47000000000E+01 0.  1.
         13    1    4    4    0    0  0.20549266248E+02  0.13101631989E+03  0.37036744188E+03  0.39339495475E+03  0.00000000000E+00 0. -1.
        -14    1    4    4    0    0  0.19997008515E+02  0.50599353265E+00  0.24530651672E+02  0.31652634179E+02  0.00000000000E+00 0.  1.
</event>
<event>
12    1  0.8113184E-002  0.2065003E+03  0.7818608E-02  0.1144875E+00
         21   -1    0    0  503  502  0.00000000000E+00  0.00000000000E+00  0.29692663962E+02  0.29692663962E+02  0.00000000000E+00 0. -1.
         21   -1    0    0  501  503 -0.00000000000E+00 -0.00000000000E+00 -0.16081782528E+04  0.16081782528E+04  0.00000000000E+00 0.  1.
          6    2    1    2  501    0 -0.29918774435E+02  0.11049480335E+03 -0.10744433248E+04  0.10941073151E+04  0.17186658800E+03 0.  0.
         24    2    3    3    0    0 -0.29138675639E+02  0.14400618625E+03 -0.97141426641E+03  0.98566056220E+03  0.79336137996E+02 0.  0.
         -6    2    1    2    0  502  0.29918774435E+02 -0.11049480335E+03 -0.50404226398E+03  0.54376360162E+03  0.16886685863E+03 0.  0.
        -24    2    5    5    0    0  0.51318831580E+02 -0.16154003368E+02 -0.33869584336E+03  0.35213980927E+03  0.79956217142E+02 0.  0.
          5    1    3    3  501    0 -0.78009879597E+00 -0.33511382898E+02 -0.10302905842E+03  0.10844675291E+03  0.47000000000E+01 0. -1.
        -11    1    4    4    0    0 -0.38136423663E+02  0.70715829377E+02 -0.69220929211E+03  0.69685638363E+03  0.00000000000E+00 0.  1.
         12    1    4    4    0    0  0.89977480233E+01  0.73290356870E+02 -0.27920497430E+03  0.28880417856E+03  0.00000000000E+00 0. -1.
         -5    1    5    5    0  502 -0.21400057144E+02 -0.94340799980E+02 -0.16534642061E+03  0.19162379235E+03  0.47000000000E+01 0.  1.
         11    1    6    6    0    0  0.14860631173E+02 -0.44614603220E+02 -0.12639386709E+03  0.13485811365E+03  0.00000000000E+00 0. -1.
        -12    1    6    6    0    0  0.36458200407E+02  0.28460599851E+02 -0.21230197627E+03  0.21728169562E+03  0.00000000000E+00 0.  1.
</event>
<event>
12    1  0.8113184E-002  0.2348386E+03  0.7818608E-02  0.1123285E+00
         21   -1    0    0  503  502  0.00000000000E+00  0.00000000000E+00  0.74630592209E+03  0.74630592209E+03  0.00000000000E+00 0.  1.
         21   -1    0    0  501  503 -0.00000000000E+00 -0.00000000000E+00 -0.80324033766E+02  0.80324033766E+02  0.00000000000E+00 0.  1.
          6    2    1    2  501    0 -0.86036283103E+02  0.13568559032E+03  0.45002846550E+03  0.50761677406E+03  0.17127856876E+03 0.  0.
         24    2    3    3    0    0 -0.47508837884E+02  0.18557223973E+02  0.10514548919E+03  0.14132484733E+03  0.79471242208E+02 0.  0.
         -6    2    1    2    0  502  0.86036283103E+02 -0.13568559032E+03  0.21595342283E+03  0.31901318180E+03  0.17123290543E+03 0.  0.
        -24    2    5    5    0    0  0.65993903985E+01 -0.14091711353E+03  0.15351432530E+03  0.21772981862E+03  0.62756999631E+02 0.  0.
          5    1    3    3  501    0 -0.38527445219E+02  0.11712836634E+03  0.34488297631E+03  0.36629192672E+03  0.47000000000E+01 0. -1.
        -13    1    4    4    0    0 -0.31862796381E+02  0.33704431422E+01  0.11352938258E+03  0.11796405550E+03  0.00000000000E+00 0.  1.
         14    1    4    4    0    0 -0.15646041502E+02  0.15186780830E+02 -0.83838933925E+01  0.23360791834E+02  0.00000000000E+00 0. -1.
         -5    1    5    5    0  502  0.79436892705E+02  0.52315232178E+01  0.62439097532E+02  0.10128336319E+03  0.47000000000E+01 0.  1.
         13    1    6    6    0    0 -0.14143408833E+02 -0.36447929238E+01  0.22602862284E+02  0.26911148476E+02  0.00000000000E+00 0. -1.
        -14    1    6    6    0    0  0.20742799232E+02 -0.13727232061E+03  0.13091146301E+03  0.19081867014E+03  0.00000000000E+00 0.  1.
</event>
<event>
12    1  0.8113184E-002  0.2250185E+03  0.7818608E-02  0.1130588E+00
         21   -1    0    0  501  502  0.00000000000E+00  0.00000000000E+00  0.12219622772E+03  0.12219622772E+03  0.00000000000E+00 0. -1.
         21   -1    0    0  502  503 -0.00000000000E+00 -0.00000000000E+00 -0.93471573749E+03  0.93471573749E+03  0.00000000000E+00 0. -1.
         -6    2    1    2    0  503 -0.49477377906E+02  0.13285929467E+03 -0.80290702619E+03  0.83384231519E+03  0.17473897904E+03 0.  0.
        -24    2    3    3    0    0 -0.74022425708E+02  0.49484936062E+02 -0.61755231094E+03  0.62906877317E+03  0.80178464882E+02 0.  0.
          6    2    1    2  501    0  0.49477377906E+02 -0.13285929467E+03 -0.96124835839E+01  0.22306965002E+03  0.17195367345E+03 0.  0.
         24    2    5    5    0    0 -0.39789219351E+02 -0.65277627333E+02 -0.83719852744E+01  0.11100076057E+03  0.80042039594E+02 0.  0.
          5    1    5    5  501    0  0.89266597257E+02 -0.67581667342E+02 -0.12404983095E+01  0.11206888945E+03  0.47000000000E+01 0. -1.
        -11    1    6    6    0    0 -0.35195778339E+02 -0.56192259538E+02 -0.40230482499E+02  0.77555171117E+02  0.00000000000E+00 0.  1.
         12    1    6    6    0    0 -0.45934410121E+01 -0.90853677956E+01  0.31858497225E+02  0.33445589451E+02  0.00000000000E+00 0. -1.
         -5    1    3    3    0  503  0.24545047802E+02  0.83374358613E+02 -0.18535471525E+03  0.20477354202E+03  0.47000000000E+01 0.  1.
         11    1    4    4    0    0 -0.63311839172E+02  0.84731384476E+00 -0.44469067864E+03  0.44917580811E+03  0.00000000000E+00 0. -1.
        -12    1    4    4    0    0 -0.10710586536E+02  0.48637622217E+02 -0.17286163230E+03  0.17989296507E+03  0.00000000000E+00 0.  1.
</event>
<event>
12    1  0.8113184E-002  0.2095288E+03  0.7818608E-02  0.1142941E+00
         21   -1    0    0  501  502  0.00000000000E+00  0.00000000000E+00  0.60025409808E+03  0.60025409808E+03  0.00000000000E+00 0. -1.
         21   -1    0    0  502  503 -0.00000000000E+00 -0.00000000000E+00 -0.11162089245E+03  0.11162089245E+03  0.00000000000E+00 0. -1.
         -6    2    1    2    0  503 -0.10690978548E+03 -0.44235337122E+02  0.32574743649E+02  0.21204578774E+03  0.17468782125E+03 0.  0.
        -24    2    3    3    0    0 -0.58880082885E+02  0.23096773072E+00 -0.48699064866E+02  0.10758705642E+03  0.75739410367E+02 0.  0.
          6    2    1    2  501    0  0.10690978548E+03  0.44235337122E+02  0.45605846198E+03  0.49982920279E+03  0.16868148664E+03 0.  0.
         24    2    5    5    0    0  0.10382062791E+03 -0.24672860624E+01  0.19349643745E+03  0.23308665907E+03  0.78126237900E+02 0.  0.
          5    1    5    5  501    0  0.30891575684E+01  0.46702623185E+02  0.26256202453E+03  0.26674254372E+03  0.47000000000E+01 0. -1.
        -13    1    6    6    0    0 -0.86740702646E+01  0.11643531057E+02  0.37735919865E+02  0.40432795581E+02  0.00000000000E+00 0.  1.
         14    1    6    6    0    0  0.11249469818E+03 -0.14110817120E+02  0.15576051759E+03  0.19265386349E+03  0.00000000000E+00 0. -1.
         -5    1    3    3    0  503 -0.48029702595E+02 -0.44466304853E+02  0.81273808516E+02  0.10445873132E+03  0.47000000000E+01 0.  1.
         13    1    4    4    0    0  0.13523831194E+01  0.28861442828E+02 -0.10569143344E+02  0.30765542628E+02  0.00000000000E+00 0. -1.
        -14    1    4    4    0    0 -0.60232466005E+02 -0.28630475097E+02 -0.38129921523E+02  0.76821513788E+02  0.00000000000E+00 0.  1.
</event>
<event>
12    1  0.8113184E-002  0.3026849E+03  0.7818608E-02  0.1085209E+00
         21   -1    0    0  501  502  0.00000000000E+00  0.00000000000E+00  0.49868386718E+03  0.49868386718E+03  0.00000000000E+00 0. -1.
         21   -1    0    0  502  503 -0.00000000000E+00 -0.00000000000E+00 -0.17937271224E+03  0.17937271224E+03  0.00000000000E+00 0.  1.
         -6    2    1    2    0  503  0.23441695862E+03 -0.21743966947E+02  0.19713474461E+03  0.36122050692E+03  0.19024730354E+03 0.  0.
        -24    2    3    3    0    0  0.15295562457E+03 -0.27924766278E+02  0.21548207275E+03  0.27735832429E+03  0.79497803224E+02 0.  0.
          6    2    1    2  501    0 -0.23441695862E+03  0.21743966947E+02  0.12217641033E+03  0.31683607249E+03  0.17330294575E+03 0.  0.
         24    2    5    5    0    0 -0.78499797518E+02 -0.46689170312E+02  0.45011159885E+02  0.12983387658E+03  0.80552679397E+02 0.  0.
          5    1    5    5  501    0 -0.15591716110E+03  0.68433137259E+02  0.77165250443E+02  0.18700219591E+03  0.47000000000E+01 0. -1.
        -11    1    6    6    0    0 -0.55564992437E+02 -0.54943451043E+01  0.58423528202E+02  0.80814385231E+02  0.00000000000E+00 0.  1.
         12    1    6    6    0    0 -0.22934805081E+02 -0.41194825208E+02 -0.13412368317E+02  0.49019491347E+02  0.00000000000E+00 0. -1.
         -5    1    3    3    0  503  0.81461334053E+02  0.61807993311E+01 -0.18347328143E+02  0.83862182633E+02  0.47000000000E+01 0.  1.
         13    1    4    4    0    0  0.13791657277E+03 -0.26329262980E+02  0.13265544995E+03  0.19316231396E+03  0.00000000000E+00 0. -1.
        -14    1    4    4    0    0  0.15039051790E+02 -0.15955032977E+01  0.82826622806E+02  0.84196010327E+02  0.00000000000E+00 0.  1.
</event>
<event>
12    1  0.8113184E-002  0.2573531E+03  0.7818608E-02  0.1108826E+00
         21   -1    0    0  503  502  0.00000000000E+00  0.00000000000E+00  0.44922467470E+03  0.44922467470E+03  0.00000000000E+00 0.  1.
         21   -1    0    0  501  503 -0.00000000000E+00 -0.00000000000E+00 -0.18691119129E+03  0.18691119129E+03  0.00000000000E+00 0.  1.
          6    2    1    2  501    0  0.16757891324E+03  0.90358560002E+02 -0.15697203689E+02  0.25729481106E+03  0.17235676971E+03 0.  0.
         24    2    3    3    0    0  0.16814741115E+03  0.21943138562E+02 -0.32137703787E+02  0.18677266472E+03  0.71387275293E+02 0.  0.
         -6    2    1    2    0  502 -0.16757891324E+03 -0.90358560002E+02  0.27801068710E+03  0.37884105493E+03  0.17315669560E+03 0.  0.
        -24    2    5    5    0    0 -0.69307334392E+02 -0.70204352883E+02  0.57287884539E+02  0.13634540374E+03  0.74672683378E+02 0.  0.
          5    1    3    3  501    0 -0.56849791323E+00  0.68415421441E+02  0.16440500098E+02  0.70522146339E+02  0.47000000000E+01 0. -1.
        -11    1    4    4    0    0  0.73683164466E+02 -0.11139612437E+02  0.15197226785E+02  0.76054292403E+02  0.00000000000E+00 0.  1.
         12    1    4    4    0    0  0.94464246685E+02  0.33082750998E+02 -0.47334930572E+02  0.11071837231E+03  0.00000000000E+00 0. -1.
         -5    1    5    5    0  502 -0.98271578846E+02 -0.20154207119E+02  0.22072280257E+03  0.24249565119E+03  0.47000000000E+01 0.  1.
         11    1    6    6    0    0  0.16880645167E+01  0.10383657940E+02 -0.55695206034E+01  0.11903338766E+02  0.00000000000E+00 0. -1.
        -12    1    6    6    0    0 -0.70995398909E+02 -0.80588010823E+02  0.62857405142E+02  0.12444206498E+03  0.00000000000E+00 0.  1.
</event>
<event>
12    1  0.8113184E-002  0.2114817E+03  0.7818608E-02  0.1140434E+00
         21   -1    0    0  501  502  0.00000000000E+00  0.00000000000E+00  0.19750615187E+04  0.19750615187E+04  0.00000000000E+00 0. -1.
         21   -1    0    0  502  503 -0.00000000000E+00 -0.00000000000E+00 -0.33980591658E+02  0.33980591658E+02  0.00000000000E+00 0.  1.
         -6    2    1    2    0  503 -0.72465220409E+02  0.99110466515E+02  0.38957359755E+03  0.44318786413E+03  0.17197035286E+03 0.  0.
        -24    2    3    3    0    0 -0.96679877126E+02  0.50695797532E+02  0.35284260231E+03  0.37760138851E+03  0.78535622959E+02 0.  0.
          6    2    1    2  501    0  0.72465220409E+02 -0.99110466515E+02  0.15515073295E+04  0.15658542462E+04  0.17219301443E+03 0.  0.
         24    2    5    5    0    0  0.95207013780E+02 -0.10508262666E+03  0.94460375897E+03  0.95847718889E+03  0.79344352480E+02 0.  0.
          5    1    5    5  501    0 -0.22741793371E+02  0.59721601488E+01  0.60690357053E+03  0.60737705734E+03  0.47000000000E+01 0. -1.
        -11    1    6    6    0    0  0.30192355650E+02 -0.80391685508E+02  0.65680117458E+03  0.66239126230E+03  0.00000000000E+00 0.  1.
         12    1    6    6    0    0  0.65014658129E+02 -0.24690941156E+02  0.28780258439E+03  0.29608592659E+03  0.00000000000E+00 0. -1.
         -5    1    3    3    0  503  0.24214656718E+02  0.48414668984E+02  0.36730995243E+02  0.65586475620E+02  0.47000000000E+01 0.  1.
         13    1    4    4    0    0 -0.23563109582E+02  0.30528883174E+01  0.20153334756E+03  0.20292912664E+03  0.00000000000E+00 0. -1.
        -14    1    4    4    0    0 -0.73116767545E+02  0.47642909214E+02  0.15130925475E+03  0.17467226187E+03  0.00000000000E+00 0.  1.
</event>
<event>
12    1  0.8113184E-002  0.1861727E+03  0.7818608E-02  0.1162591E+00
         21   -1    0    0  503  502  0.00000000000E+00  0.00000000000E+00  0.24590581642E+03  0.24590581642E+03  0.00000000000E+00 0. -1.
         21   -1    0    0  501  503 -0.00000000000E+00 -0.00000000000E+00 -0.16244420820E+03  0.16244420820E+03  0.00000000000E+00 0. -1.
          6    2    1    2  501    0 -0.41899765630E+02  0.53216356562E+02 -0.36247697594E+02  0.18701185077E+03  0.17050503155E+03 0.  0.
         24    2    3    3    0    0 -0.13920068203E+02 -0.31223896362E+02  0.47521063392E+01  0.88950167611E+02  0.81980789216E+02 0.  0.
         -6    2    1    2    0  502  0.41899765630E+02 -0.53216356562E+02  0.11970930581E+03  0.22133817385E+03  0.17341481581E+03 0.  0.
        -24    2    5    5    0    0  0.92723102315E+02 -0.11203877031E+02  0.67347557775E+02  0.13700607649E+03  0.74241975283E+02 0.  0.
          5    1    3    3  501    0 -0.27979697427E+02  0.84440252923E+02 -0.40999803933E+02  0.98061683162E+02  0.47000000000E+01 0. -1.
        -13    1    4    4    0    0 -0.23607986236E+02 -0.22832936871E+02  0.39818010911E+02  0.51615443553E+02  0.00000000000E+00 0.  1.
         14    1    4    4    0    0  0.96879180331E+01 -0.83909594910E+01 -0.35065904572E+02  0.37334724057E+02  0.00000000000E+00 0. -1.
         -5    1    5    5    0  502 -0.50823336685E+02 -0.42012479530E+02  0.52361748035E+02  0.84332097361E+02  0.47000000000E+01 0.  1.
         11    1    6    6    0    0  0.36731223108E+02 -0.36084383705E+02  0.53373160850E+02  0.74161713826E+02  0.00000000000E+00 0. -1.
        -12    1    6    6    0    0  0.55991879207E+02  0.24880506674E+02  0.13974396924E+02  0.62844362666E+02  0.00000000000E+00 0.  1.
</event>
<event>
12    1  0.8113184E-002  0.2122012E+03  0.7818608E-02  0.1140161E+00
         21   -1    0    0  501  502  0.00000000000E+00  0.00000000000E+00  0.24737539023E+03  0.24737539023E+03  0.00000000000E+00 0. -1.
         21   -1    0    0  502  503 -0.00000000000E+00 -0.00000000000E+00 -0.21501738272E+03  0.21501738272E+03  0.00000000000E+00 0.  1.
         -6    2    1    2    0  503 -0.69084327117E+02 -0.10234508081E+03 -0.76259132231E+02  0.22548792888E+03  0.17257517493E+03 0.  0.
        -24    2    3    3    0    0 -0.57417910139E+02 -0.14168478705E+03 -0.58071907763E+02  0.18035941344E+03  0.76064290302E+02 0.  0.
          6    2    1    2  501    0  0.69084327117E+02  0.10234508081E+03  0.10861713974E+03  0.23690484407E+03  0.17052584050E+03 0.  0.
         24    2    5    5    0    0  0.49321005961E+02  0.21839398137E+02  0.61889520355E+01  0.10505122280E+03  0.89932949156E+02 0.  0.
          5    1    5    5  501    0  0.19763321156E+02  0.80505682674E+02  0.10242818770E+03  0.13185362127E+03  0.47000000000E+01 0. -1.
        -11    1    6    6    0    0  0.22178914429E+02 -0.73827910424E+01 -0.38570501778E+02  0.45100925226E+02  0.00000000000E+00 0.  1.
         12    1    6    6    0    0  0.27142091532E+02  0.29222189180E+02  0.44759453813E+02  0.59950297571E+02  0.00000000000E+00 0. -1.
         -5    1    3    3    0  503 -0.11666416978E+02  0.39339706239E+02 -0.18187224468E+02  0.45128515442E+02  0.47000000000E+01 0.  1.
         13    1    4    4    0    0 -0.39984283437E+01 -0.46035359611E+02  0.15102013608E+02  0.48613913428E+02  0.00000000000E+00 0. -1.
        -14    1    4    4    0    0 -0.53419481795E+02 -0.95649427439E+02 -0.73173921372E+02  0.13174550001E+03  0.00000000000E+00 0.  1.
</event>
<event>
12    1  0.8113184E-002  0.1848088E+03  0.7818608E-02  0.1164201E+00
         21   -1    0    0  503  502  0.00000000000E+00  0.00000000000E+00  0.16781766321E+03  0.16781766321E+03  0.00000000000E+00 0.  1.
         21   -1    0    0  501  503 -0.00000000000E+00 -0.00000000000E+00 -0.34688438249E+03  0.34688438249E+03  0.00000000000E+00 0.  1.
          6    2    1    2  501    0  0.57052901878E+02 -0.29947836079E+02 -0.25697158083E+03  0.31414418690E+03  0.16882023074E+03 0.  0.
         24    2    3    3    0    0  0.82612706581E+02  0.23661332084E+02 -0.19879220220E+03  0.23087248326E+03  0.79994036960E+02 0.  0.
         -6    2    1    2    0  502 -0.57052901878E+02  0.29947836079E+02  0.77904861552E+02  0.20055785881E+03  0.17321195334E+03 0.  0.
        -24    2    5    5    0    0 -0.10609847086E+03  0.28655309923E+02  0.53463529792E+02  0.14554325022E+03  0.79034652920E+02 0.  0.
          5    1    3    3  501    0 -0.25559804703E+02 -0.53609168163E+02 -0.58179378635E+02  0.83271703633E+02  0.47000000000E+01 0. -1.
        -13    1    4    4    0    0  0.41759925556E+02  0.46952927940E+02 -0.15225656712E+03  0.16471348171E+03  0.00000000000E+00 0.  1.
         14    1    4    4    0    0  0.40852781025E+02 -0.23291595856E+02 -0.46535635077E+02  0.66159001557E+02  0.00000000000E+00 0. -1.
         -5    1    5    5    0  502  0.49045568977E+02  0.12925261554E+01  0.24441331760E+02  0.55014608590E+02  0.47000000000E+01 0.  1.
         11    1    6    6    0    0 -0.51548386018E+02  0.53667798301E+02  0.21031687642E+02  0.77329170179E+02  0.00000000000E+00 0. -1.
        -12    1    6    6    0    0 -0.54550084837E+02 -0.25012488378E+02  0.32431842150E+02  0.68214080041E+02  0.00000000000E+00 0.  1.
</event>
<event>
12    1  0.8113184E-002  0.1799297E+03  0.7818608E-02  0.1167952E+00
         21   -1    0    0  503  502  0.00000000000E+00  0.00000000000E+00  0.46828766108E+03  0.46828766108E+03  0.00000000000E+00 0. -1.
         21   -1    0    0  501  503 -0.00000000000E+00 -0.00000000000E+00 -0.69021214444E+02  0.69021214444E+02  0.00000000000E+00 0. -1.
          6    2    1    2  501    0  0.42702908671E+02 -0.31224686194E+02  0.19543948274E+03  0.26542628466E+03  0.17162750869E+03 0.  0.
         24    2    3    3    0    0  0.34489835663E+02 -0.86294170832E+02  0.14490391574E+03  0.19008681136E+03  0.80620210678E+02 0.  0.
         -6    2    1    2    0  502 -0.42702908671E+02  0.31224686194E+02  0.20382696389E+03  0.27188259086E+03  0.17197730247E+03 0.  0.
        -24    2    5    5    0    0 -0.32045221828E+02  0.20169832615E+02  0.22615506563E+03  0.24437931462E+03  0.84506906916E+02 0.  0.
          5    1    3    3  501    0  0.82130730088E+01  0.55069484638E+02  0.50535566999E+02  0.75339473309E+02  0.47000000000E+01 0. -1.
        -13    1    4    4    0    0  0.43462546099E+02 -0.11466963309E+02  0.35696643816E+02  0.57399778228E+02  0.00000000000E+00 0.  1.
         14    1    4    4    0    0 -0.89727104362E+01 -0.74827207522E+02  0.10920727193E+03  0.13268703313E+03  0.00000000000E+00 0. -1.
         -5    1    5    5    0  502 -0.10657686844E+02  0.11054853579E+02 -0.22328101737E+02  0.27503276235E+02  0.47000000000E+01 0.  1.
         13    1    6    6    0    0  0.18620655356E+02 -0.19722505547E+02  0.84266145723E+02  0.88523947867E+02  0.00000000000E+00 0. -1.
        -14    1    6    6    0    0 -0.50665877183E+02  0.39892338162E+02  0.14188891991E+03  0.15585536676E+03  0.00000000000E+00 0.  1.
</event>
<event>
12    1  0.8113184E-002  0.2851754E+03  0.7818608E-02  0.1093537E+00
         21   -1    0    0  503  502  0.00000000000E+00  0.00000000000E+00  0.84011739673E+02  0.84011739673E+02  0.00000000000E+00 0.  1.
         21   -1    0    0  501  503 -0.00000000000E+00 -0.00000000000E+00 -0.10489611681E+04  0.10489611681E+04  0.00000000000E+00 0.  1.
          6    2    1    2  501    0 -0.85458463099E+02 -0.20374875144E+03 -0.65109562778E+03  0.70891013686E+03  0.17265967392E+03 0.  0.
         24    2    3    3    0    0 -0.43180132952E+01 -0.12410382631E+03 -0.23610821998E+03  0.27860358878E+03  0.80327225724E+02 0.  0.
         -6    2    1    2    0  502  0.85458463099E+02  0.20374875144E+03 -0.31385380068E+03  0.42406277095E+03  0.18030064579E+03 0.  0.
        -24    2    5    5    0    0  0.84505023996E+02  0.15924038629E+03 -0.13032781443E+03  0.23515596524E+03  0.76252141394E+02 0.  0.
          5    1    3    3  501    0 -0.81140449804E+02 -0.79644925138E+02 -0.41498740780E+03  0.43030654808E+03  0.47000000000E+01 0. -1.
        -13    1    4    4    0    0 -0.57560543522E+01 -0.35923624424E+02 -0.15354319905E+03  0.15779465430E+03  0.00000000000E+00 0.  1.
         14    1    4    4    0    0  0.14380410569E+01 -0.88180201882E+02 -0.82565020939E+02  0.12080893447E+03  0.00000000000E+00 0. -1.
         -5    1    5    5    0  502  0.95343910358E+00  0.44508365157E+02 -0.18352598624E+03  0.18890680571E+03  0.47000000000E+01 0.  1.
         11    1    6    6    0    0  0.54645634985E+01 -0.79795247164E+01 -0.15819867222E+01  0.97998444334E+01  0.00000000000E+00 0. -1.
        -12    1    6    6    0    0  0.79040460497E+02  0.16721991100E+03 -0.12874582771E+03  0.22535612081E+03  0.00000000000E+00 0.  1.
</event>
<event>
12    1  0.8113184E-002  0.2426210E+03  0.7818608E-02  0.1118098E+00
         21   -1    0    0  501  502  0.00000000000E+00  0.00000000000E+00  0.18269147161E+03  0.18269147161E+03  0.00000000000E+00 0.  1.
         21   -1    0    0  502  503 -0.00000000000E+00 -0.00000000000E+00 -0.85883916310E+03  0.85883916310E+03  0.00000000000E+00 0. -1.
         -6    2    1    2    0  503 -0.43065536242E+02 -0.16501887703E+03 -0.74977780485E+03  0.78798307057E+03  0.17223441198E+03 0.  0.
        -24    2    3    3    0    0 -0.84140912899E+02 -0.16141265626E+03 -0.58132182264E+03  0.61449042133E+03  0.80806420610E+02 0.  0.
          6    2    1    2  501    0  0.43065536242E+02  0.16501887703E+03  0.73630113355E+02  0.25354756414E+03  0.17256622931E+03 0.  0.
         24    2    5    5    0    0  0.92565828599E+02  0.14347346294E+03  0.49387072953E+02  0.19418175900E+03  0.78194663252E+02 0.  0.
          5    1    5    5  501    0 -0.49500292356E+02  0.21545414094E+02  0.24243040402E+02  0.59365805139E+02  0.47000000000E+01 0. -1.
        -11    1    6    6    0    0  0.10174938223E+03  0.14337462518E+03  0.53983745891E+02  0.18391156775E+03  0.00000000000E+00 0.  1.
         12    1    6    6    0    0 -0.91835536340E+01  0.98837757343E-01 -0.45966729379E+01  0.10270191252E+02  0.00000000000E+00 0. -1.
         -5    1    3    3    0  503  0.41075376657E+02 -0.36062207682E+01 -0.16845598221E+03  0.17349264923E+03  0.47000000000E+01 0.  1.
         13    1    4    4    0    0 -0.37539702776E+02 -0.13686614621E+03 -0.47640337225E+03  0.49709329542E+03  0.00000000000E+00 0. -1.
        -14    1    4    4    0    0 -0.46601210123E+02 -0.24546510056E+02 -0.10491845039E+03  0.11739712591E+03  0.00000000000E+00 0.  1.
</event>
<event>
12    1  0.8113184E-002  0.1822781E+03  0.7818608E-02  0.1165823E+00
         21   -1    0    0  503  502  0.00000000000E+00  0.00000000000E+00  0.89056428786E+03  0.89056428786E+03  0.00000000000E+00 0.  1.
         21   -1    0    0  501  503 -0.00000000000E+00 -0.00000000000E+00 -0.14454327850E+03  0.14454327850E+03  0.00000000000E+00 0.  1.
          6    2    1    2  501    0  0.25358472133E+02 -0.53211643242E+02 -0.72913779161E+02  0.19632048266E+03  0.17248414894E+03 0.  0.
         24    2    3    3    0    0  0.32377126743E+02 -0.26494688914E+02 -0.11606964153E+03  0.14486588503E+03  0.75919141752E+02 0.  0.
         -6    2    1    2    0  502 -0.25358472133E+02  0.53211643242E+02  0.81893478852E+03  0.83878708370E+03  0.17156646774E+03 0.  0.
        -24    2    5    5    0    0 -0.45214976748E+01 -0.95564903540E+01  0.20217709016E+03  0.21847573722E+03  0.82123696432E+02 0.  0.
          5    1    3    3  501    0 -0.70186546095E+01 -0.26716954328E+02  0.43155862367E+02  0.51454597634E+02  0.47000000000E+01 0. -1.
        -13    1    4    4    0    0  0.19796998803E+02  0.25570786216E+02 -0.53357054009E+02  0.62391998540E+02  0.00000000000E+00 0.  1.
         14    1    4    4    0    0  0.12580127940E+02 -0.52065475130E+02 -0.62712587519E+02  0.82473886490E+02  0.00000000000E+00 0. -1.
         -5    1    5    5    0  502 -0.20836974459E+02  0.62768133596E+02  0.61675769835E+03  0.62031134648E+03  0.47000000000E+01 0.  1.
         13    1    6    6    0    0  0.37173065730E+02 -0.15966865870E+02  0.10576615854E+03  0.11323982477E+03  0.00000000000E+00 0. -1.
        -14    1    6    6    0    0 -0.41694563405E+02  0.64103755158E+01  0.96410931621E+02  0.10523591244E+03  0.00000000000E+00 0.  1.
</event>
<event>
12    1  0.8113184E-002  0.1900668E+03  0.7818608E-02  0.1158550E+00
         21   -1    0    0  501  502  0.00000000000E+00  0.00000000000E+00  0.24379248816E+04  0.24379248816E+04  0.00000000000E+00 0.  1.
         21   -1    0    0  502  503 -0.00000000000E+00 -0.00000000000E+00 -0.59716426252E+02  0.59716426252E+02  0.00000000000E+00 0.  1.
         -6    2    1    2    0  503  0.43855398046E+02 -0.67551392390E+02  0.10512112101E+03  0.21662148441E+03  0.17142908409E+03 0.  0.
        -24    2    3    3    0    0 -0.22084352860E+02 -0.85761713195E+02  0.40574090276E+02  0.12245102349E+03  0.74197077171E+02 0.  0.
          6    2    1    2  501    0 -0.43855398046E+02  0.67551392390E+02  0.22730873344E+04  0.22810198235E+04  0.17215957379E+03 0.  0.
         24    2    5    5    0    0  0.19028556000E+02  0.24741626541E+02  0.58692419953E+03  0.59313497106E+03  0.79717274577E+02 0.  0.
          5    1    5    5  501    0 -0.62883954046E+02  0.42809765849E+02  0.16861631348E+04  0.16878848524E+04  0.47000000000E+01 0. -1.
        -11    1    6    6    0    0 -0.29238713463E+02 -0.21007005221E+01  0.16124935457E+03  0.16389225015E+03  0.00000000000E+00 0.  1.
         12    1    6    6    0    0  0.48267269463E+02  0.26842327063E+02  0.42567484496E+03  0.42924272091E+03  0.00000000000E+00 0. -1.
         -5    1    3    3    0  503  0.65939750905E+02  0.18210320805E+02  0.64547030730E+02  0.94170460917E+02  0.47000000000E+01 0.  1.
         11    1    4    4    0    0 -0.18492922810E+02 -0.77456977814E+02 -0.12657296278E+01  0.79644043579E+02  0.00000000000E+00 0. -1.
        -12    1    4    4    0    0 -0.35914300493E+01 -0.83047353810E+01  0.41839819904E+02  0.42806979911E+02  0.00000000000E+00 0.  1.
</event>
<event>
12    1  0.8113184E-002  0.2250468E+03  0.7818608E-02  0.1130448E+00
         21   -1    0    0  503  502  0.00000000000E+00  0.00000000000E+00  0.94008676168E+02  0.94008676168E+02  0.00000000000E+00 0. -1.
         21   -1    0    0  501  503 -0.00000000000E+00 -0.00000000000E+00 -0.56121708761E+03  0.56121708761E+03  0.00000000000E+00 0. -1.
          6    2    1    2  501    0  0.11440873041E+03  0.88313251841E+02 -0.16374254856E+03  0.27831217597E+03  0.17250349863E+03 0.  0.
         24    2    3    3    0    0  0.24574976452E+02 -0.11822663349E+02 -0.32861546580E+02  0.90564388924E+02  0.79864400463E+02 0.  0.
         -6    2    1    2    0  502 -0.11440873041E+03 -0.88313251841E+02 -0.30346586288E+03  0.37691358781E+03  0.17053953997E+03 0.  0.
        -24    2    5    5    0    0  0.44390545085E+01 -0.40293570585E+02 -0.77677523914E+02  0.11723465185E+03  0.77890235823E+02 0.  0.
          5    1    3    3  501    0  0.89833753959E+02  0.10013591519E+03 -0.13088100198E+03  0.18774778704E+03  0.47000000000E+01 0. -1.
        -13    1    4    4    0    0 -0.26626952564E+02 -0.72999352952E+01 -0.27359703256E+02  0.38869487010E+02  0.00000000000E+00 0.  1.
         14    1    4    4    0    0  0.51201929016E+02 -0.45227280543E+01 -0.55018433243E+01  0.51694901915E+02  0.00000000000E+00 0. -1.
         -5    1    5    5    0  502 -0.11884778492E+03 -0.48019681256E+02 -0.22578833897E+03  0.25967893596E+03  0.47000000000E+01 0.  1.
         11    1    6    6    0    0 -0.15566871659E+02 -0.53535957069E+02 -0.28722621127E+02  0.62716944736E+02  0.00000000000E+00 0. -1.
        -12    1    6    6    0    0  0.20005926168E+02  0.13242386484E+02 -0.48954902787E+02  0.54517707110E+02  0.00000000000E+00 0.  1.
</event>
<event>
12    1  0.8113184E-002  0.1792967E+03  0.7818608E-02  0.1168814E+00
         21   -1    0    0  501  502  0.00000000000E+00  0.00000000000E+00  0.17034895800E+03  0.17034895800E+03  0.00000000000E+00 0.  1.
         21   -1    0    0  502  503 -0.00000000000E+00 -0.00000000000E+00 -0.35259375130E+03  0.35259375130E+03  0.00000000000E+00 0.  1.
         -6    2    1    2    0  503  0.51186664172E+00 -0.52314405398E+02  0.87718927765E+02  0.19960436508E+03  0.17149412016E+03 0.  0.
        -24    2    3    3    0    0  0.22116196598E+01  0.35874978392E+02  0.58145551423E+02  0.10645431858E+03  0.81607055199E+02 0.  0.
          6    2    1    2  501    0 -0.51186664172E+00  0.52314405398E+02 -0.26996372106E+03  0.32333834422E+03  0.17008884484E+03 0.  0.
         24    2    5    5    0    0 -0.11950873261E+02 -0.95199131709E+01 -0.24031876430E+03  0.25365873970E+03  0.79725752644E+02 0.  0.
          5    1    5    5  501    0  0.11439006619E+02  0.61834318569E+02 -0.29644956757E+02  0.69679604523E+02  0.47000000000E+01 0. -1.
        -13    1    6    6    0    0 -0.12875665973E+02  0.31380595975E+02 -0.15959773628E+03  0.16316237926E+03  0.00000000000E+00 0.  1.
         14    1    6    6    0    0  0.92479271202E+00 -0.40900509146E+02 -0.80721028014E+02  0.90496360444E+02  0.00000000000E+00 0. -1.
         -5    1    3    3    0  503 -0.16997530180E+01 -0.88189383790E+02  0.29573376342E+02  0.93150046494E+02  0.47000000000E+01 0.  1.
         13    1    4    4    0    0  0.23864170314E+02  0.14278071420E+02 -0.11728041491E+02  0.30181267460E+02  0.00000000000E+00 0. -1.
        -14    1    4    4    0    0 -0.21652550655E+02  0.21596906971E+02  0.69873592914E+02  0.76273051121E+02  0.00000000000E+00 0.  1.
</event>
<event>
12    1  0.8113184E-002  0.1734753E+03  0.7818608E-02  0.1174560E+00
         21   -1    0    0  501  502  0.00000000000E+00  0.00000000000E+00  0.15410246596E+03  0.15410246596E+03  0.00000000000E+00 0.  1.
         21   -1    0    0  502  503 -0.00000000000E+00 -0.00000000000E+00 -0.25681629575E+03  0.25681629575E+03  0.00000000000E+00 0.  1.
         -6    2    1    2    0  503  0.27246273724E+02 -0.55880254801E+01 -0.15308954751E+03  0.23136568882E+03  0.17123109224E+03 0.  0.
        -24    2    3    3    0    0  0.63524840798E+02 -0.56100998705E+02 -0.78357533080E+02  0.13402782942E+03  0.68123627433E+02 0.  0.
          6    2    1    2  501    0 -0.27246273724E+02  0.55880254801E+01  0.50375717723E+02  0.17955307289E+03  0.17008235531E+03 0.  0.
         24    2    5    5    0    0  0.28144534343E+02 -0.50175763261E+02  0.18127660760E+02  0.94466241173E+02  0.72701696023E+02 0.  0.
          5    1    5    5  501    0 -0.55390808067E+02  0.55763788741E+02  0.32248056963E+02  0.85086831713E+02  0.47000000000E+01 0. -1.
        -11    1    6    6    0    0  0.11626776737E+02 -0.65600965848E+02  0.24499059396E+02  0.70985016509E+02  0.00000000000E+00 0.  1.
         12    1    6    6    0    0  0.16517757606E+02  0.15425202587E+02 -0.63713986352E+01  0.23481224665E+02  0.00000000000E+00 0. -1.
         -5    1    3    3    0  503 -0.36278567074E+02  0.50512973225E+02 -0.74732014425E+02  0.97337859402E+02  0.47000000000E+01 0.  1.
         11    1    4    4    0    0  0.53858331201E+02 -0.12545633667E+02 -0.69028116225E+02  0.88447688458E+02  0.00000000000E+00 0. -1.
        -12    1    4    4    0    0  0.96665095966E+01 -0.43555365038E+02 -0.93294168552E+01  0.45580140963E+02  0.00000000000E+00 0.  1.
</event>
<event>
12    1  0.8113184E-002  0.1951232E+03  0.7818608E-02  0.1154249E+00
         21   -1    0    0  503  502  0.00000000000E+00  0.00000000000E+00  0.53527372195E+02  0.53527372195E+02  0.00000000000E+00 0. -1.
         21   -1    0    0  501  503 -0.00000000000E+00 -0.00000000000E+00 -0.74204689973E+03  0.74204689973E+03  0.00000000000E+00 0. -1.
          6    2    1    2  501    0  0.89409197300E+02 -0.19945066781E+02 -0.25762179914E+03  0.32317498527E+03  0.17228252801E+03 0.  0.
         24    2    3    3    0    0  0.16538794110E+02 -0.47695116669E+02 -0.61610489292E+02  0.11217099355E+03  0.78981792455E+02 0.  0.
         -6    2    1    2    0  502 -0.89409197300E+02  0.19945066781E+02 -0.43089772839E+03  0.47239928665E+03  0.17057673771E+03 0.  0.
        -24    2    5    5    0    0 -0.33144190478E+02  0.45960238152E+02 -0.37842851322E+03  0.39105035504E+03  0.80631009577E+02 0.  0.
          5    1    3    3  501    0  0.72870403190E+02  0.27750049888E+02 -0.19601130985E+03  0.21100399171E+03  0.47000000000E+01 0. -1.
        -13    1    4    4    0    0 -0.13608410066E+02  0.80983905750E+00 -0.52620181578E+02  0.54357411391E+02  0.00000000000E+00 0.  1.
         14    1    4    4    0    0  0.30147204176E+02 -0.48504955727E+02 -0.89903077133E+01  0.57813582163E+02  0.00000000000E+00 0. -1.
         -5    1    5    5    0  502 -0.56265006822E+02 -0.26015171371E+02 -0.52469215171E+02  0.81348931614E+02  0.47000000000E+01 0.  1.
         13    1    6    6    0    0 -0.21617490179E+02  0.47506246459E+02 -0.10387357439E+03  0.11624920985E+03  0.00000000000E+00 0. -1.
        -14    1    6    6    0    0 -0.11526700299E+02 -0.15460083074E+01 -0.27455493883E+03  0.27480114519E+03  0.00000000000E+00 0.  1.
</event>
<event>
12    1  0.8113184E-002  0.1816278E+03  0.7818608E-02  0.1166470E+00
         21   -1    0    0  501  502  0.00000000000E+00  0.00000000000E+00  0.14943818594E+03  0.14943818594E+03  0.00000000000E+00 0. -1.
         21   -1    0    0  502  503 -0.00000000000E+00 -0.00000000000E+00 -0.22028625474E+03  0.22028625474E+03  0.00000000000E+00 0.  1.
         -6    2    1    2    0  503 -0.50893275236E+02 -0.15221351817E+02 -0.46050973363E+02  0.18737493534E+03  0.17368609394E+03 0.  0.
        -24    2    3    3    0    0 -0.95192752416E+01  0.50702062967E+02  0.16468348152E+01  0.95969927828E+02  0.80908585405E+02 0.  0.
          6    2    1    2  501    0  0.50893275236E+02  0.15221351817E+02 -0.24797095443E+02  0.18234950535E+03  0.17266913778E+03 0.  0.
         24    2    5    5    0    0  0.83934589754E+02  0.23204769424E+02  0.24540000480E+02  0.12225206401E+03  0.82218482405E+02 0.  0.
          5    1    5    5  501    0 -0.33041314518E+02 -0.79834176066E+01 -0.49337095923E+02  0.60097441342E+02  0.47000000000E+01 0. -1.
        -13    1    6    6    0    0  0.44838979779E+02 -0.17989026768E+02 -0.17721537243E+02  0.51460587578E+02  0.00000000000E+00 0.  1.
         14    1    6    6    0    0  0.39095609975E+02  0.41193796192E+02  0.42261537723E+02  0.70791476427E+02  0.00000000000E+00 0. -1.
         -5    1    3    3    0  503 -0.41373999994E+02 -0.65923414784E+02 -0.47697808178E+02  0.91405007507E+02  0.47000000000E+01 0.  1.
         11    1    4    4    0    0 -0.12885311598E+02  0.42719562212E+02 -0.36004295285E+02  0.57334993935E+02  0.00000000000E+00 0. -1.
        -12    1    4    4    0    0  0.33660363563E+01  0.79825007552E+01  0.37651130101E+02  0.38634933893E+02  0.00000000000E+00 0.  1.
</event>
<event>
12    1  0.8113184E-002  0.1759517E+03  0.7818608E-02  0.1172354E+00
         21   -1    0    0  501  502  0.00000000000E+00  0.00000000000E+00  0.17232304068E+03  0.17232304068E+03  0.00000000000E+00 0. -1.
         21   -1    0    0  502  503 -0.00000000000E+00 -0.00000000000E+00 -0.49428604101E+03  0.49428604101E+03  0.00000000000E+00 0. -1.
         -6    2    1    2    0  503 -0.22246707665E+02  0.10853891007E+02 -0.42826067309E+03  0.46299697025E+03  0.17420180078E+03 0.  0.
        -24    2    3    3    0    0  0.25378748546E+02  0.50451259393E+02 -0.34652041471E+03  0.36033395109E+03  0.81084820087E+02 0.  0.
          6    2    1    2  501    0  0.22246707665E+02 -0.10853891007E+02  0.10629767276E+03  0.20361211143E+03  0.17188942299E+03 0.  0.
         24    2    5    5    0    0 -0.13047947015E+02 -0.62385676219E+02  0.31289046897E+02  0.10588994665E+03  0.78558607593E+02 0.  0.
          5    1    5    5  501    0  0.35294654680E+02  0.51531785212E+02  0.75008625864E+02  0.97722164784E+02  0.47000000000E+01 0. -1.
        -13    1    6    6    0    0 -0.38279630330E+02 -0.21068887773E+02 -0.68902799150E+01  0.44234648043E+02  0.00000000000E+00 0.  1.
         14    1    6    6    0    0  0.25231683315E+02 -0.41316788446E+02  0.38179326812E+02  0.61655298606E+02  0.00000000000E+00 0. -1.
         -5    1    3    3    0  503 -0.47625456211E+02 -0.39597368387E+02 -0.81740258387E+02  0.10266301916E+03  0.47000000000E+01 0.  1.
         13    1    4    4    0    0 -0.23222277816E+01  0.66622004378E+02 -0.22724922424E+03  0.23682502851E+03  0.00000000000E+00 0. -1.
        -14    1    4    4    0    0  0.27700976327E+02 -0.16170744985E+02 -0.11927119046E+03  0.12350892258E+03  0.00000000000E+00 0.  1.
</event>
<event>
12    1  0.8113184E-002  0.1772172E+03  0.7818608E-02  0.1171233E+00
         21   -1    0    0  503  502  0.00000000000E+00  0.00000000000E+00  0.50265733593E+03  0.50265733593E+03  0.00000000000E+00 0. -1.
         21   -1    0    0  501  503 -0.00000000000E+00 -0.00000000000E+00 -0.14841903918E+03  0.14841903918E+03  0.00000000000E+00 0. -1.
          6    2    1    2  501    0  0.32178766515E+02 -0.11428157324E+02  0.42567405375E+03  0.46000304566E+03  0.17099218164E+03 0.  0.
         24    2    3    3    0    0  0.32940001483E+02 -0.57605878867E+02  0.38217982657E+03  0.39638858784E+03  0.81602768039E+02 0.  0.
         -6    2    1    2    0  502 -0.32178766515E+02  0.11428157324E+02 -0.71435757008E+02  0.19107332945E+03  0.17389615883E+03 0.  0.
        -24    2    5    5    0    0 -0.63341599791E+02  0.25318197393E+02 -0.10082079116E+03  0.14580053826E+03  0.80248337318E+02 0.  0.
          5    1    3    3  501    0 -0.76123496802E+00  0.46177721542E+02  0.43494227180E+02  0.63614457818E+02  0.47000000000E+01 0. -1.
        -13    1    4    4    0    0 -0.39316623609E+01  0.18436524180E+02  0.10251683867E+03  0.10423562540E+03  0.00000000000E+00 0.  1.
         14    1    4    4    0    0  0.36871663844E+02 -0.76042403047E+02  0.27966298791E+03  0.29215296244E+03  0.00000000000E+00 0. -1.
         -5    1    5    5    0  502  0.31162833275E+02 -0.13890040069E+02  0.29385034152E+02  0.45272791199E+02  0.47000000000E+01 0.  1.
         11    1    6    6    0    0  0.37649513017E+01 -0.87023895722E+01 -0.58928260794E+02  0.59686232607E+02  0.00000000000E+00 0. -1.
        -12    1    6    6    0    0 -0.67106551092E+02  0.34020586965E+02 -0.41892530365E+02  0.86114305649E+02  0.00000000000E+00 0.  1.
</event>
<event>
12    1  0.8113184E-002  0.2141283E+03  0.7818608E-02  0.1138535E+00
         21   -1    0    0  503  502  0.00000000000E+00  0.00000000000E+00  0.33657120254E+02  0.33657120254E+02  0.00000000000E+00 0. -1.
         21   -1    0    0  501  503 -0.00000000000E+00 -0.00000000000E+00 -0.18586001560E+04  0.18586001560E+04  0.00000000000E+00 0. -1.
          6    2    1    2  501    0 -0.12679159640E+03 -0.79886517055E+01 -0.14029755622E+04  0.14190686272E+04  0.17110059330E+03 0.  0.
         24    2    3    3    0    0 -0.20473573313E+02  0.43755999677E+02 -0.57269718533E+03  0.58039985819E+03  0.80920792042E+02 0.  0.
         -6    2    1    2    0  502  0.12679159640E+03  0.79886517055E+01 -0.42196747350E+03  0.47318864904E+03  0.17236885279E+03 0.  0.
        -24    2    5    5    0    0  0.11146072806E+03  0.62280134443E+02 -0.24922671861E+03  0.29140839978E+03  0.80638633068E+02 0.  0.
          5    1    3    3  501    0 -0.10631802309E+03 -0.51744651383E+02 -0.83027837690E+03  0.83866876902E+03  0.47000000000E+01 0. -1.
        -11    1    4    4    0    0  0.31225461931E+02  0.19920840677E+02 -0.24779650564E+03  0.25054935157E+03  0.00000000000E+00 0.  1.
         12    1    4    4    0    0 -0.51699035243E+02  0.23835159000E+02 -0.32490067969E+03  0.32985050662E+03  0.00000000000E+00 0. -1.
         -5    1    5    5    0  502  0.15330868337E+02 -0.54291482738E+02 -0.17274075489E+03  0.18178024926E+03  0.47000000000E+01 0.  1.
         13    1    6    6    0    0  0.51378318356E+02 -0.18153463332E+01 -0.42198981848E+02  0.66511511398E+02  0.00000000000E+00 0. -1.
        -14    1    6    6    0    0  0.60082409705E+02  0.64095480777E+02 -0.20702773677E+03  0.22489688838E+03  0.00000000000E+00 0.  1.
</event>
<event>
12    1  0.8113184E-002  0.1853350E+03  0.7818608E-02  0.1163075E+00
         21   -1    0    0  503  502  0.00000000000E+00  0.00000000000E+00  0.86900814961E+02  0.86900814961E+02  0.00000000000E+00 0. -1.
         21   -1    0    0  501  503 -0.00000000000E+00 -0.00000000000E+00 -0.43837800394E+03  0.43837800394E+03  0.00000000000E+00 0. -1.
          6    2    1    2  501    0  0.40299414551E+02 -0.57275836145E+02 -0.26036963063E+03  0.31876091245E+03  0.17003414519E+03 0.  0.
         24    2    3    3    0    0  0.27272943107E+02 -0.10162920909E+03 -0.15304824960E+03  0.20181272103E+03  0.78944905444E+02 0.  0.
         -6    2    1    2    0  502 -0.40299414551E+02  0.57275836145E+02 -0.91107558341E+02  0.20651790645E+03  0.17159398089E+03 0.  0.
        -24    2    5    5    0    0  0.18958517233E+02 -0.21753081168E+02 -0.63457640458E+02  0.10383548239E+03  0.76956567979E+02 0.  0.
          5    1    3    3  501    0  0.13026471445E+02  0.44353372948E+02 -0.10732138103E+03  0.11694819142E+03  0.47000000000E+01 0. -1.
        -11    1    4    4    0    0  0.45379246460E+01 -0.32333153537E+02 -0.41704447953E+00  0.32652710513E+02  0.00000000000E+00 0.  1.
         12    1    4    4    0    0  0.22735018461E+02 -0.69296055556E+02 -0.15263120512E+03  0.16916001051E+03  0.00000000000E+00 0. -1.
         -5    1    5    5    0  502 -0.59257931784E+02  0.79028917313E+02 -0.27649917883E+02  0.10268242406E+03  0.47000000000E+01 0.  1.
         11    1    6    6    0    0 -0.12727535201E+02 -0.41644090097E+02 -0.25134896066E+02  0.50279055207E+02  0.00000000000E+00 0. -1.
        -12    1    6    6    0    0  0.31686052434E+02  0.19891008929E+02 -0.38322744392E+02  0.53556427185E+02  0.00000000000E+00 0.  1.
</event>
<event>
12    1  0.8113184E-002  0.1897885E+03  0.7818608E-02  0.1158983E+00
         21   -1    0    0  501  502  0.00000000000E+00  0.00000000000E+00  0.12299200717E+03  0.12299200717E+03  0.00000000000E+00 0. -1.
         21   -1    0    0  502  503 -0.00000000000E+00 -0.00000000000E+00 -0.50534609153E+03  0.50534609153E+03  0.00000000000E+00 0. -1.
         -6    2    1    2    0  503 -0.80337803096E+02 -0.82585121913E+01 -0.39639391720E+03  0.43948584803E+03  0.17174780173E+03 0.  0.
        -24    2    3    3    0    0 -0.71687339382E+02 -0.64270868901E+02 -0.32629958239E+03  0.34922223189E+03  0.78834830892E+02 0.  0.
          6    2    1    2  501    0  0.80337803096E+02  0.82585121913E+01  0.14039832849E+02  0.18885225067E+03  0.17013432941E+03 0.  0.
         24    2    5    5    0    0  0.42254676416E+02 -0.55876555845E+02  0.29168165580E+02  0.11259880523E+03  0.83186909327E+02 0.  0.
          5    1    5    5  501    0  0.38083126680E+02  0.64135068037E+02 -0.15128332732E+02  0.76253445437E+02  0.47000000000E+01 0. -1.
        -11    1    6    6    0    0 -0.21093038181E+02 -0.30632893574E+01  0.20663189467E+02  0.29686148291E+02  0.00000000000E+00 0.  1.
         12    1    6    6    0    0  0.63347714597E+02 -0.52813266488E+02  0.85049761134E+01  0.82912656937E+02  0.00000000000E+00 0. -1.
         -5    1    3    3    0  503 -0.86504637144E+01  0.56012356710E+02 -0.70094334811E+02  0.90263616144E+02  0.47000000000E+01 0.  1.
         11    1    4    4    0    0 -0.52216911816E+02 -0.70701497721E+02 -0.16802720937E+03  0.18962713611E+03  0.00000000000E+00 0. -1.
        -12    1    4    4    0    0 -0.19470427566E+02  0.64306288202E+01 -0.15827237302E+03  0.15959509578E+03  0.00000000000E+00 0.  1.
</event>
<event>
12    1  0.8113184E-002  0.2046837E+03  0.7818608E-02  0.1146768E+00
         21   -1    0    0  501  502  0.00000000000E+00  0.00000000000E+00  0.92388885135E+02  0.92388885135E+02  0.00000000000E+00 0.  1.
         21   -1    0    0  502  503 -0.00000000000E+00 -0.00000000000E+00 -0.50362627000E+03  0.50362627000E+03  0.00000000000E+00 0.  1.
         -6    2    1    2    0  503  0.94371561000E+02 -0.57616619318E+02 -0.30645439479E+03  0.36606973945E+03  0.16693439342E+03 0.  0.
        -24    2    3    3    0    0 -0.29130743267E+01 -0.44932348976E+01 -0.10329751996E+03  0.13459360670E+03  0.86118442697E+02 0.  0.
          6    2    1    2  501    0 -0.94371561000E+02  0.57616619318E+02 -0.10478299008E+03  0.22994541569E+03  0.17224910113E+03 0.  0.
         24    2    5    5    0    0 -0.15194330683E+02  0.76640309254E+02 -0.66778437695E+01  0.10236154401E+03  0.65792761058E+02 0.  0.
          5    1    5    5  501    0 -0.79177230317E+02 -0.19023689936E+02 -0.98105146307E+02  0.12758387167E+03  0.47000000000E+01 0. -1.
        -13    1    6    6    0    0 -0.10911057525E+02  0.28824678643E+02 -0.34989411070E+02  0.46628019068E+02  0.00000000000E+00 0.  1.
         14    1    6    6    0    0 -0.42832731575E+01  0.47815630611E+02  0.28311567300E+02  0.55733524944E+02  0.00000000000E+00 0. -1.
         -5    1    3    3    0  503  0.97284635327E+02 -0.53123384420E+02 -0.20315687483E+03  0.23147613275E+03  0.47000000000E+01 0.  1.
         11    1    4    4    0    0 -0.30191848196E+02  0.89835011132E-01 -0.10257178559E+03  0.10692299551E+03  0.00000000000E+00 0. -1.
        -12    1    4    4    0    0  0.27278773869E+02 -0.45830699088E+01 -0.72573436889E+00  0.27670611196E+02  0.00000000000E+00 0.  1.
</event>
<event>
12    1  0.8113184E-002  0.1821834E+03  0.7818608E-02  0.1166701E+00
         21   -1    0    0  501  502  0.00000000000E+00  0.00000000000E+00  0.39370311521E+03  0.39370311521E+03  0.00000000000E+00 0.  1.
         21   -1    0    0  502  503 -0.00000000000E+00 -0.00000000000E+00 -0.94337966957E+02  0.94337966957E+02  0.00000000000E+00 0.  1.
         -6    2    1    2    0  503 -0.20758174255E+02 -0.55034113542E+02  0.64404010953E+02  0.19323213805E+03  0.17242716461E+03 0.  0.
        -24    2    3    3    0    0  0.17928185127E+02 -0.14040600930E+01 -0.19803507072E+02  0.86060252146E+02  0.81797291523E+02 0.  0.
          6    2    1    2  501    0  0.20758174255E+02  0.55034113542E+02  0.23496113730E+03  0.29480894412E+03  0.16806523151E+03 0.  0.
         24    2    5    5    0    0  0.52475399405E+02  0.46613741748E+02  0.23812498329E+03  0.26150751842E+03  0.82195900520E+02 0.  0.
          5    1    5    5  501    0 -0.31717225151E+02  0.84203717941E+01 -0.31638459859E+01  0.33301425703E+02  0.47000000000E+01 0. -1.
        -11    1    6    6    0    0  0.48072120146E+02 -0.91384738111E+01  0.79941736002E+02  0.93728979478E+02  0.00000000000E+00 0.  1.
         12    1    6    6    0    0  0.44032792592E+01  0.55752215559E+02  0.15818324729E+03  0.16777853894E+03  0.00000000000E+00 0. -1.
         -5    1    3    3    0  503 -0.38686359382E+02 -0.53630053450E+02  0.84207518025E+02  0.10717188590E+03  0.47000000000E+01 0.  1.
         13    1    4    4    0    0  0.36133162723E+02  0.14845190375E+02  0.16427898556E+02  0.42377599940E+02  0.00000000000E+00 0. -1.
        -14    1    4    4    0    0 -0.18204977596E+02 -0.16249250468E+02 -0.36231405628E+02  0.43682652207E+02  0.00000000000E+00 0.  1.
</event>
<event>
12    1  0.8113184E-002  0.2100034E+03  0.7818608E-02  0.1141889E+00
         21   -1    0    0  503  502  0.00000000000E+00  0.00000000000E+00  0.67610374021E+02  0.67610374021E+02  0.00000000000E+00 0. -1.
         21   -1    0    0  501  503 -0.00000000000E+00 -0.00000000000E+00 -0.64819970086E+03  0.64819970086E+03  0.00000000000E+00 0.  1.
          6    2    1    2  501    0  0.10165334746E+03  0.63688446801E+02 -0.27745409345E+03  0.34796870185E+03  0.17237117563E+03 0.  0.
         24    2    3    3    0    0  0.11825435781E+03  0.75556452411E+02 -0.27771576842E+03  0.32702588505E+03  0.10063305033E+03 0.  0.
         -6    2    1    2    0  502 -0.10165334746E+03 -0.63688446801E+02 -0.30313523339E+03  0.36784137303E+03  0.17037219458E+03 0.  0.
        -24    2    5    5    0    0 -0.72899262546E+01 -0.64523833434E+02 -0.20145711536E+03  0.22904049833E+03  0.87510641859E+02 0.  0.
          5    1    3    3  501    0 -0.16601010347E+02 -0.11868005610E+02  0.26167497249E+00  0.20942816799E+02  0.47000000000E+01 0. -1.
        -11    1    4    4    0    0  0.92781538234E+02  0.83824684374E+01 -0.10737460912E+03  0.14215479696E+03  0.00000000000E+00 0.  1.
         12    1    4    4    0    0  0.25472819577E+02  0.67173983974E+02 -0.17034115930E+03  0.18487108809E+03  0.00000000000E+00 0. -1.
         -5    1    5    5    0  502 -0.94363421209E+02  0.83538663296E+00 -0.10167811802E+03  0.13880087470E+03  0.47000000000E+01 0.  1.
         11    1    6    6    0    0  0.31858021997E+02  0.16350025536E+01 -0.52962471073E+02  0.61827422242E+02  0.00000000000E+00 0. -1.
        -12    1    6    6    0    0 -0.39147948252E+02 -0.66158835988E+02 -0.14849464429E+03  0.16721307609E+03  0.00000000000E+00 0.  1.
</event>
<event>
12    1  0.8113184E-002  0.2335681E+03  0.7818608E-02  0.1124244E+00
         21   -1    0    0  501  502  0.00000000000E+00  0.00000000000E+00  0.67280963478E+03  0.67280963478E+03  0.00000000000E+00 0.  1.
         21   -1    0    0  502  503 -0.00000000000E+00 -0.00000000000E+00 -0.83265679169E+02  0.83265679169E+02  0.00000000000E+00 0. -1.
         -6    2    1    2    0  503 -0.13971037018E+01  0.15736842525E+03  0.35813718213E+03  0.42728485759E+03  0.17188174755E+03 0.  0.
        -24    2    3    3    0    0 -0.63052118280E+01  0.86930824635E+02  0.85836163671E+02  0.14593902102E+03  0.79584086940E+02 0.  0.
          6    2    1    2  501    0  0.13971037018E+01 -0.15736842525E+03  0.23140677349E+03  0.32879045636E+03  0.17258996556E+03 0.  0.
         24    2    5    5    0    0 -0.60216415468E+02 -0.61840879732E+02  0.14471026162E+03  0.18575160546E+03  0.78181123133E+02 0.  0.
          5    1    5    5  501    0  0.61613519170E+02 -0.95527545518E+02  0.86696511868E+02  0.14303885090E+03  0.47000000000E+01 0. -1.
        -13    1    6    6    0    0 -0.38335296482E+02 -0.58491230628E+02  0.14769475297E+03  0.16341529632E+03  0.00000000000E+00 0.  1.
         14    1    6    6    0    0 -0.21881118986E+02 -0.33496491040E+01 -0.29844913515E+01  0.22336309136E+02  0.00000000000E+00 0. -1.
         -5    1    3    3    0  503  0.49081081262E+01  0.70437600616E+02  0.27230101846E+03  0.28134583657E+03  0.47000000000E+01 0.  1.
         11    1    4    4    0    0  0.39672158849E+00 -0.99565053123E+01 -0.65278136814E+01  0.11912251572E+02  0.00000000000E+00 0. -1.
        -12    1    4    4    0    0 -0.67019334165E+01  0.96887329947E+02  0.92363977352E+02  0.13402676945E+03  0.00000000000E+00 0.  1.
</event>
<event>
12    1  0.8113184E-002  0.1928094E+03  0.7818608E-02  0.1156409E+00
         21   -1    0    0  503  502  0.00000000000E+00  0.00000000000E+00  0.87798005071E+02  0.87798005071E+02  0.00000000000E+00 0.  1.
         21   -1    0    0  501  503 -0.00000000000E+00 -0.00000000000E+00 -0.42174112430E+03  0.42174112430E+03  0.00000000000E+00 0.  1.
          6    2    1    2  501    0  0.69789782144E+02  0.43096224316E+02 -0.14701786211E+03  0.24246590808E+03  0.17449231089E+03 0.  0.
         24    2    3    3    0    0  0.10315902184E+03 -0.57124416896E+01 -0.11988885231E+03  0.17724424597E+03  0.79798308538E+02 0.  0.
         -6    2    1    2    0  502 -0.69789782144E+02 -0.43096224316E+02 -0.18692525712E+03  0.26707322129E+03  0.17221833683E+03 0.  0.
        -24    2    5    5    0    0  0.24316913457E+01 -0.43125482584E+02 -0.17006184749E+03  0.19276032421E+03  0.79810965692E+02 0.  0.
          5    1    3    3  501    0 -0.33369239697E+02  0.48808666006E+02 -0.27129009800E+02  0.65221662107E+02  0.47000000000E+01 0. -1.
        -11    1    4    4    0    0  0.12700921069E+02  0.11718400164E+02  0.84730874177E+01  0.19246493415E+02  0.00000000000E+00 0.  1.
         12    1    4    4    0    0  0.90458100773E+02 -0.17430841853E+02 -0.12836193973E+03  0.15799775256E+03  0.00000000000E+00 0. -1.
         -5    1    5    5    0  502 -0.72221473490E+02  0.29258267811E-01 -0.16863409631E+02  0.74312897087E+02  0.47000000000E+01 0.  1.
         11    1    6    6    0    0  0.11850794405E+02  0.13967842548E+02 -0.67866773569E+01  0.19534608853E+02  0.00000000000E+00 0. -1.
        -12    1    6    6    0    0 -0.94191030597E+01 -0.57093325132E+02 -0.16327517013E+03  0.17322571535E+03  0.00000000000E+00 0.  1.
</event>
<event>
12    1  0.8113184E-002  0.2253370E+03  0.7818608E-02  0.1130071E+00
         21   -1    0    0  503  502  0.00000000000E+00  0.00000000000E+00  0.16251940883E+03  0.16251940883E+03  0.00000000000E+00 0.  1.
         21   -1    0    0  501  503 -0.00000000000E+00 -0.00000000000E+00 -0.41110714041E+03  0.41110714041E+03  0.00000000000E+00 0. -1.
          6    2    1    2  501    0 -0.10901308544E+03  0.94755148246E+02 -0.26526125490E+03  0.34767356765E+03  0.17219461482E+03 0.  0.
         24    2    3    3    0    0 -0.11045230325E+03  0.11291599146E+03 -0.15328932052E+03  0.23413198203E+03  0.79815016167E+02 0.  0.
         -6    2    1    2    0  502  0.10901308544E+03 -0.94755148246E+02  0.16673523315E+02  0.22595298160E+03  0.17295766128E+03 0.  0.
        -24    2    5    5    0    0  0.64811491935E+02 -0.12611359057E+03 -0.14366755067E+02  0.16332134697E+03  0.79763973776E+02 0.  0.
          5    1    3    3  501    0  0.14392178019E+01 -0.18160843217E+02 -0.11197193438E+03  0.11354158561E+03  0.47000000000E+01 0. -1.
        -11    1    4    4    0    0 -0.72638120930E+00  0.18950374619E+02  0.52190675334E+01  0.19669341468E+02  0.00000000000E+00 0.  1.
         12    1    4    4    0    0 -0.10972592204E+03  0.93965616844E+02 -0.15850838805E+03  0.21446264057E+03  0.00000000000E+00 0. -1.
         -5    1    5    5    0  502  0.44201593509E+02  0.31358442323E+02  0.31040278383E+02  0.62631634625E+02  0.47000000000E+01 0.  1.
         11    1    6    6    0    0 -0.81364290066E+01 -0.57986432986E+01 -0.20159984755E+02  0.22500016142E+02  0.00000000000E+00 0. -1.
        -12    1    6    6    0    0  0.72947920941E+02 -0.12031494727E+03  0.57932296878E+01  0.14082133083E+03  0.00000000000E+00 0.  1.
</event>
<event>
12    1  0.8113184E-002  0.1752974E+03  0.7818608E-02  0.1172562E+00
         21   -1    0    0  501  502  0.00000000000E+00  0.00000000000E+00  0.34276317881E+03  0.34276317881E+03  0.00000000000E+00 0. -1.
         21   -1    0    0  502  503 -0.00000000000E+00 -0.00000000000E+00 -0.37024806032E+03  0.37024806032E+03  0.00000000000E+00 0. -1.
         -6    2    1    2    0  503  0.23458457328E+02  0.22014752174E+02 -0.32424928331E+03  0.36860110517E+03  0.17232013369E+03 0.  0.
        -24    2    3    3    0    0 -0.31642666665E+02  0.58145134974E+02 -0.23944259031E+03  0.26110318145E+03  0.80374139101E+02 0.  0.
          6    2    1    2  501    0 -0.23458457328E+02 -0.22014752174E+02  0.29676440180E+03  0.34441013396E+03  0.17179721087E+03 0.  0.
         24    2    5    5    0    0 -0.99672819475E+01 -0.55989340985E+02  0.91053914004E+02  0.13542405957E+03  0.82551242516E+02 0.  0.
          5    1    5    5  501    0 -0.13491175381E+02  0.33974588811E+02  0.20571048780E+03  0.20898607439E+03  0.47000000000E+01 0. -1.
        -11    1    6    6    0    0  0.31831222255E+02 -0.93079091704E+01  0.51725992671E+02  0.61444627114E+02  0.00000000000E+00 0.  1.
         12    1    6    6    0    0 -0.41798504203E+02 -0.46681431815E+02  0.39327921334E+02  0.73979432454E+02  0.00000000000E+00 0. -1.
         -5    1    3    3    0  503  0.55101123993E+02 -0.36130382800E+02 -0.84806693003E+02  0.10749792372E+03  0.47000000000E+01 0.  1.
         11    1    4    4    0    0 -0.31226292540E+02 -0.10155711559E+02 -0.10930296167E+03  0.11412868725E+03  0.00000000000E+00 0. -1.
        -12    1    4    4    0    0 -0.41637412461E+00  0.68300846533E+02 -0.13013962864E+03  0.14697449420E+03  0.00000000000E+00 0.  1.
</event>
<event>
12    1  0.8113184E-002  0.1729341E+03  0.7818608E-02  0.1176080E+00
         21   -1    0    0  503  502  0.00000000000E+00  0.00000000000E+00  0.27403744679E+03  0.27403744679E+03  0.00000000000E+00 0. -1.
         21   -1    0    0  501  503 -0.00000000000E+00 -0.00000000000E+00 -0.31846447361E+03  0.31846447361E+03  0.00000000000E+00 0. -1.
          6    2    1    2  501    0  0.15996606648E+02 -0.11321924650E+02 -0.26402628204E+03  0.31298443320E+03  0.16692902808E+03 0.  0.
         24    2    3    3    0    0 -0.14621281206E+02 -0.54689538767E+02 -0.22972005964E+03  0.24960295400E+03  0.79533649018E+02 0.  0.
         -6    2    1    2    0  502 -0.15996606648E+02  0.11321924650E+02  0.21959925522E+03  0.27951748720E+03  0.17182000860E+03 0.  0.
        -24    2    5    5    0    0  0.39745381159E+02 -0.27969027338E+02  0.17595771615E+03  0.19841494689E+03  0.77752244095E+02 0.  0.
          5    1    3    3  501    0  0.30617887855E+02  0.43367614117E+02 -0.34306222395E+02  0.63381479202E+02  0.47000000000E+01 0. -1.
        -13    1    4    4    0    0  0.17861392861E+02  0.84483046985E+01 -0.19685035600E+02  0.27890927446E+02  0.00000000000E+00 0.  1.
         14    1    4    4    0    0 -0.32482674067E+02 -0.63137843465E+02 -0.21003502404E+03  0.22171202655E+03  0.00000000000E+00 0. -1.
         -5    1    5    5    0  502 -0.55741987808E+02  0.39290951988E+02  0.43641539071E+02  0.81102540314E+02  0.47000000000E+01 0.  1.
         13    1    6    6    0    0 -0.12087357574E+02 -0.10923214423E+02  0.23817362134E+01  0.16464917062E+02  0.00000000000E+00 0. -1.
        -14    1    6    6    0    0  0.51832738733E+02 -0.17045812915E+02  0.17357597994E+03  0.18195002983E+03  0.00000000000E+00 0.  1.
</event>
<event>
12    1  0.8113184E-002  0.2154335E+03  0.7818608E-02  0.1137453E+00
         21   -1    0    0  503  502  0.00000000000E+00  0.00000000000E+00  0.25526163085E+03  0.25526163085E+03  0.00000000000E+00 0. -1.
         21   -1    0    0  501  503 -0.00000000000E+00 -0.00000000000E+00 -0.18238744822E+03  0.18238744822E+03  0.00000000000E+00 0.  1.
          6    2    1    2  501    0  0.93208935477E+02 -0.89509214938E+02  0.19467582970E+02  0.21569440522E+03  0.17159628331E+03 0.  0.
         24    2    3    3    0    0  0.23200414864E+01 -0.32583106113E+02 -0.38556739267E+02  0.93668650203E+02  0.78867943370E+02 0.  0.
         -6    2    1    2    0  502 -0.93208935477E+02  0.89509214938E+02  0.53406599657E+02  0.22195467385E+03  0.17237113200E+03 0.  0.
        -24    2    5    5    0    0  0.29414774567E+01  0.40149222408E+02 -0.18995087528E+02  0.91780156081E+02  0.80263138180E+02 0.  0.
          5    1    3    3  501    0  0.90888893991E+02 -0.56926108825E+02  0.58024322237E+02  0.12202575502E+03  0.47000000000E+01 0. -1.
        -13    1    4    4    0    0 -0.18050081639E+02 -0.50691769969E+02 -0.38921877312E+02  0.66410643148E+02  0.00000000000E+00 0.  1.
         14    1    4    4    0    0  0.20370123126E+02  0.18108663856E+02  0.36513804498E+00  0.27258007055E+02  0.00000000000E+00 0. -1.
         -5    1    5    5    0  502 -0.96150412934E+02  0.49359992531E+02  0.72401687185E+02  0.13017451777E+03  0.47000000000E+01 0.  1.
         11    1    6    6    0    0  0.50337853073E+01 -0.13039308768E+02 -0.33761387394E+02  0.36540304411E+02  0.00000000000E+00 0. -1.
        -12    1    6    6    0    0 -0.20923078506E+01  0.53188531176E+02  0.14766299867E+02  0.55239851670E+02  0.00000000000E+00 0.  1.
</event>
<event>
12    1  0.8113184E-002  0.1987751E+03  0.7818608E-02  0.1155327E+00
         21   -1    0    0  503  502  0.00000000000E+00  0.00000000000E+00  0.11271557938E+03  0.11271557938E+03  0.00000000000E+00 0.  1.
         21   -1    0    0  501  503 -0.00000000000E+00 -0.00000000000E+00 -0.15281063943E+04  0.15281063943E+04  0.00000000000E+00 0. -1.
          6    2    1    2  501    0 -0.19706056146E+02  0.45310027736E+02 -0.14303799686E+04  0.14414824961E+04  0.17159138869E+03 0.  0.
         24    2    3    3    0    0 -0.47317359333E+02 -0.31777935420E+02 -0.84453287182E+03  0.84992197599E+03  0.76699569811E+02 0.  0.
         -6    2    1    2    0  502  0.19706056146E+02 -0.45310027736E+02  0.14989153699E+02  0.19933947757E+03  0.19253629613E+03 0.  0.
        -24    2    5    5    0    0 -0.86561202415E+01  0.31735142005E+02 -0.45407282138E+02  0.97309135556E+02  0.79531119292E+02 0.  0.
          5    1    3    3  501    0  0.27611303187E+02  0.77087963156E+02 -0.58584709678E+03  0.59156052010E+03  0.47000000000E+01 0. -1.
        -13    1    4    4    0    0 -0.32739806146E+01 -0.29076098427E+02 -0.10294558068E+03  0.10702303972E+03  0.00000000000E+00 0.  1.
         14    1    4    4    0    0 -0.44043378719E+02 -0.27018369936E+01 -0.74158729114E+03  0.74289893627E+03  0.00000000000E+00 0. -1.
         -5    1    5    5    0  502  0.28362176387E+02 -0.77045169741E+02  0.60396435837E+02  0.10203034201E+03  0.47000000000E+01 0.  1.
         11    1    6    6    0    0  0.33967535293E+02  0.89002673178E+01 -0.31035025250E+02  0.46863429286E+02  0.00000000000E+00 0. -1.
        -12    1    6    6    0    0 -0.42623655534E+02  0.22834874687E+02 -0.14372256888E+02  0.50445706271E+02  0.00000000000E+00 0.  1.
</event>
<event>
12    1  0.8113184E-002  0.2393522E+03  0.7818608E-02  0.1120367E+00
         21   -1    0    0  503  502  0.00000000000E+00  0.00000000000E+00  0.85907411946E+03  0.85907411946E+03  0.00000000000E+00 0.  1.
         21   -1    0    0  501  503 -0.00000000000E+00 -0.00000000000E+00 -0.98270106895E+02  0.98270106895E+02  0.00000000000E+00 0. -1.
          6    2    1    2  501    0 -0.14277638353E+03 -0.85709951190E+02  0.10848264707E+03  0.26278881401E+03  0.17192493893E+03 0.  0.
         24    2    3    3    0    0 -0.39007410698E+02 -0.41142156568E+02 -0.11164638067E+02  0.98192790729E+02  0.79390930663E+02 0.  0.
         -6    2    1    2    0  502  0.14277638353E+03  0.85709951190E+02  0.65232136550E+03  0.69455541234E+03  0.17074180950E+03 0.  0.
        -24    2    5    5    0    0  0.66083492134E+02  0.11764229907E+03  0.42776882864E+03  0.45508222755E+03  0.76856519608E+02 0.  0.
          5    1    3    3  501    0 -0.10376897283E+03 -0.44567794621E+02  0.11964728513E+03  0.16459602328E+03  0.47000000000E+01 0. -1.
        -11    1    4    4    0    0 -0.66504388972E+01 -0.89517693348E+00  0.30879824041E+02  0.31600525503E+02  0.00000000000E+00 0.  1.
         12    1    4    4    0    0 -0.32356971801E+02 -0.40246979635E+02 -0.42044462109E+02  0.66592265226E+02  0.00000000000E+00 0. -1.
         -5    1    5    5    0  502  0.76692891393E+02 -0.31932347878E+02  0.22455253685E+03  0.23947318480E+03  0.47000000000E+01 0.  1.
         11    1    6    6    0    0  0.17440228494E+01  0.27525365289E+02  0.24509472464E+02  0.36897175914E+02  0.00000000000E+00 0. -1.
        -12    1    6    6    0    0  0.64339469284E+02  0.90116933779E+02  0.40325935618E+03  0.41818505163E+03  0.00000000000E+00 0.  1.
</event>
<event>
12    1  0.8113184E-002  0.1897853E+03  0.7818608E-02  0.1159455E+00
         21   -1    0    0  501  502  0.00000000000E+00  0.00000000000E+00  0.24078952281E+03  0.24078952281E+03  0.00000000000E+00 0.  1.
         21   -1    0    0  502  503 -0.00000000000E+00 -0.00000000000E+00 -0.19498219508E+03  0.19498219508E+03  0.00000000000E+00 0.  1.
         -6    2    1    2    0  503  0.24084193881E+02 -0.68130871731E+02 -0.85526428183E+02  0.20497524290E+03  0.17169221359E+03 0.  0.
        -24    2    3    3    0    0  0.38848050084E+02  0.98027160040E+01  0.62140282675E+00  0.87778168132E+02  0.78098376570E+02 0.  0.
          6    2    1    2  501    0 -0.24084193881E+02  0.68130871731E+02  0.13133375592E+03  0.23079647498E+03  0.17548958187E+03 0.  0.
         24    2    5    5    0    0 -0.36579951172E+02  0.62250292063E+02  0.91946557721E+01  0.10778925994E+03  0.79503403541E+02 0.  0.
          5    1    5    5  501    0  0.12495757291E+02  0.58805796684E+01  0.12213910015E+03  0.12300721504E+03  0.47000000000E+01 0. -1.
        -13    1    6    6    0    0 -0.22813306457E+02 -0.71867753071E+01  0.25693409482E+02  0.35103389888E+02  0.00000000000E+00 0.  1.
         14    1    6    6    0    0 -0.13766644715E+02  0.69437067370E+02 -0.16498753710E+02  0.72685870055E+02  0.00000000000E+00 0. -1.
         -5    1    3    3    0  503 -0.14763856203E+02 -0.77933587735E+02 -0.86147831009E+02  0.11719707477E+03  0.47000000000E+01 0.  1.
         13    1    4    4    0    0 -0.10584270592E+02  0.23650153991E+02  0.20181419418E+02  0.32842750456E+02  0.00000000000E+00 0. -1.
        -14    1    4    4    0    0  0.49432320676E+02 -0.13847437987E+02 -0.19560016592E+02  0.54935417676E+02  0.00000000000E+00 0.  1.
</event>
<event>
12    1  0.8113184E-002  0.1926561E+03  0.7818608E-02  0.1156101E+00
         21   -1    0    0  501  502  0.00000000000E+00  0.00000000000E+00  0.19178409387E+02  0.19178409387E+02  0.00000000000E+00 0.  1.
         21   -1    0    0  502  503 -0.00000000000E+00 -0.00000000000E+00 -0.21363076518E+04  0.21363076518E+04  0.00000000000E+00 0. -1.
         -6    2    1    2    0  503  0.20951539459E+02 -0.83939804931E+02 -0.72764110095E+03  0.75271371510E+03  0.17213804707E+03 0.  0.
        -24    2    3    3    0    0 -0.39800955342E+02 -0.76797658526E+02 -0.59802936909E+03  0.60931508569E+03  0.78382083143E+02 0.  0.
          6    2    1    2  501    0 -0.20951539459E+02  0.83939804931E+02 -0.13894881414E+04  0.14027723460E+04  0.17207004917E+03 0.  0.
         24    2    5    5    0    0  0.52159016702E+02  0.28405826771E+02 -0.81509172884E+03  0.82106580066E+03  0.79038399398E+02 0.  0.
          5    1    5    5  501    0 -0.73110556161E+02  0.55533978160E+02 -0.57439641258E+03  0.58170654538E+03  0.47000000000E+01 0. -1.
        -13    1    6    6    0    0  0.49543811099E+02  0.13954906275E+02 -0.22584599079E+03  0.23163708724E+03  0.00000000000E+00 0.  1.
         14    1    6    6    0    0  0.26152056028E+01  0.14450920496E+02 -0.58924573804E+03  0.58942871342E+03  0.00000000000E+00 0. -1.
         -5    1    3    3    0  503  0.60752494801E+02 -0.71421464056E+01 -0.12961173186E+03  0.14339862940E+03  0.47000000000E+01 0.  1.
         13    1    4    4    0    0 -0.47927543082E+02 -0.24243078889E+02 -0.42268805397E+03  0.42608680715E+03  0.00000000000E+00 0. -1.
        -14    1    4    4    0    0  0.81265877402E+01 -0.52554579637E+02 -0.17534131512E+03  0.18322827854E+03  0.00000000000E+00 0.  1.
</event>
<event>
12    1  0.8113184E-002  0.2208618E+03  0.7818608E-02  0.1133408E+00
         21   -1    0    0  503  502  0.00000000000E+00  0.00000000000E+00  0.21318032584E+03  0.21318032584E+03  0.00000000000E+00 0. -1.
         21   -1    0    0  501  503 -0.00000000000E+00 -0.00000000000E+00 -0.28097659098E+03  0.28097659098E+03  0.00000000000E+00 0. -1.
          6    2    1    2  501    0  0.11538582866E+03  0.74529466615E+02 -0.14134307941E+03  0.26221706815E+03  0.17294910779E+03 0.  0.
         24    2    3    3    0    0  0.27753687664E+02 -0.23519359789E+02 -0.39520817413E+02  0.95835496058E+02  0.79366994600E+02 0.  0.
         -6    2    1    2    0  502 -0.11538582866E+03 -0.74529466615E+02  0.73546814270E+02  0.23193984867E+03  0.17180927990E+03 0.  0.
        -24    2    5    5    0    0 -0.12259085352E+03 -0.53111608782E+02  0.59370039454E+01  0.16049886975E+03  0.88742767706E+02 0.  0.
          5    1    3    3  501    0  0.87632140998E+02  0.98048826403E+02 -0.10182226200E+03  0.16638157210E+03  0.47000000000E+01 0. -1.
        -13    1    4    4    0    0 -0.14227710511E+02  0.20522905266E+02 -0.37445879512E+01  0.25251521259E+02  0.00000000000E+00 0.  1.
         14    1    4    4    0    0  0.41981398175E+02 -0.44042265055E+02 -0.35776229462E+02  0.70583974799E+02  0.00000000000E+00 0. -1.
         -5    1    5    5    0  502  0.72050248559E+01 -0.21417857832E+02  0.67609810324E+02  0.71440978923E+02  0.47000000000E+01 0.  1.
         11    1    6    6    0    0 -0.57498646790E+02 -0.18700380271E+02  0.46646648360E+02  0.76365623209E+02  0.00000000000E+00 0. -1.
        -12    1    6    6    0    0 -0.65092206728E+02 -0.34411228511E+02 -0.40709644415E+02  0.84133246537E+02  0.00000000000E+00 0.  1.
</event>
<event>
12    1  0.8113184E-002  0.1861920E+03  0.7818608E-02  0.1162094E+00
         21   -1    0    0  503  502  0.00000000000E+00  0.00000000000E+00  0.16803153477E+03  0.16803153477E+03  0.00000000000E+00 0.  1.
         21   -1    0    0  501  503 -0.00000000000E+00 -0.00000000000E+00 -0.37406864479E+03  0.37406864479E+03  0.00000000000E+00 0.  1.
          6    2    1    2  501    0  0.62067318105E+02  0.38120915614E+02 -0.28482589853E+03  0.33992414830E+03  0.17063727009E+03 0.  0.
         24    2    3    3    0    0  0.63965274789E+02 -0.33297320750E+02 -0.14390666847E+03  0.18185933209E+03  0.84636986531E+02 0.  0.
         -6    2    1    2    0  502 -0.62067318105E+02 -0.38120915614E+02  0.78788788508E+02  0.20217603126E+03  0.17135319734E+03 0.  0.
        -24    2    5    5    0    0 -0.66276119478E+02 -0.62198333482E+02  0.18185127147E+01  0.12128135025E+03  0.80278902766E+02 0.  0.
          5    1    3    3  501    0 -0.18979566843E+01  0.71418236365E+02 -0.14091923005E+03  0.15806481621E+03  0.47000000000E+01 0. -1.
        -13    1    4    4    0    0  0.54896950146E+02  0.18559125770E+02 -0.84786991588E+02  0.10269834579E+03  0.00000000000E+00 0.  1.
         14    1    4    4    0    0  0.90683246426E+01 -0.51856446520E+02 -0.59119676886E+02  0.79160986304E+02  0.00000000000E+00 0. -1.
         -5    1    5    5    0  502  0.42088013733E+01  0.24077417867E+02  0.76970275793E+02  0.80894681011E+02  0.47000000000E+01 0.  1.
         11    1    6    6    0    0  0.94199126153E+00 -0.40259904408E+00 -0.25852993827E+02  0.25873282037E+02  0.00000000000E+00 0. -1.
        -12    1    6    6    0    0 -0.67218110739E+02 -0.61795734437E+02  0.27671506542E+02  0.95408068214E+02  0.00000000000E+00 0.  1.
</event>
<event>
12    1  0.8113184E-002  0.2222363E+03  0.7818608E-02  0.1132493E+00
         21   -1    0    0  501  502  0.00000000000E+00  0.00000000000E+00  0.16662089306E+03  0.16662089306E+03  0.00000000000E+00 0. -1.
         21   -1    0    0  502  503 -0.00000000000E+00 -0.00000000000E+00 -0.29450218436E+03  0.29450218436E+03  0.00000000000E+00 0.  1.
         -6    2    1    2    0  503  0.10704644087E+03  0.91367646535E+02 -0.65382664359E+02  0.23165466043E+03  0.17199419050E+03 0.  0.
        -24    2    3    3    0    0  0.73989417011E+02  0.66916256658E+02  0.27145820147E+02  0.13029269647E+03  0.79291058554E+02 0.  0.
          6    2    1    2  501    0 -0.10704644087E+03 -0.91367646535E+02 -0.62498626947E+02  0.22946841699E+03  0.17012550864E+03 0.  0.
         24    2    5    5    0    0 -0.13729497290E+03 -0.54231674592E+02 -0.28798780716E+02  0.17071619373E+03  0.80769207740E+02 0.  0.
          5    1    5    5  501    0  0.30248532027E+02 -0.37135971944E+02 -0.33699846231E+02  0.58752223260E+02  0.47000000000E+01 0. -1.
        -13    1    6    6    0    0 -0.38906567602E+02 -0.20594823215E+02 -0.47835538476E+02  0.65008510882E+02  0.00000000000E+00 0.  1.
         14    1    6    6    0    0 -0.98388405295E+02 -0.33636851376E+02  0.19036757760E+02  0.10570768285E+03  0.00000000000E+00 0. -1.
         -5    1    3    3    0  503  0.33057023859E+02  0.24451389878E+02 -0.92528484506E+02  0.10136196396E+03  0.47000000000E+01 0.  1.
         11    1    4    4    0    0  0.86288881301E+02  0.72678971532E+02  0.18864811295E+02  0.11438481125E+03  0.00000000000E+00 0. -1.
        -12    1    4    4    0    0 -0.12299464290E+02 -0.57627148740E+01  0.82810088525E+01  0.15907885220E+02  0.00000000000E+00 0.  1.
</event>
<event>
12    1  0.8113184E-002  0.1812609E+03  0.7818608E-02  0.1166664E+00
         21   -1    0    0  503  502  0.00000000000E+00  0.00000000000E+00  0.33122182035E+03  0.33122182035E+03  0.00000000000E+00 0. -1.
         21   -1    0    0  501  503 -0.00000000000E+00 -0.00000000000E+00 -0.14064739392E+03  0.14064739392E+03  0.00000000000E+00 0. -1.
          6    2    1    2  501    0 -0.34189988511E+02  0.44335403461E+02 -0.33125254668E+02  0.18395072875E+03  0.17206395554E+03 0.  0.
         24    2    3    3    0    0 -0.54047535508E+02 -0.30074882665E+02 -0.34250307899E+02  0.10678487750E+03  0.80026819319E+02 0.  0.
         -6    2    1    2    0  502  0.34189988511E+02 -0.44335403461E+02  0.22369968110E+03  0.28791848552E+03  0.17239757442E+03 0.  0.
        -24    2    5    5    0    0  0.30825638849E+02 -0.21381141989E+02  0.24215605076E+03  0.25790274716E+03  0.80417043144E+02 0.  0.
          5    1    3    3  501    0  0.19857546996E+02  0.74410286126E+02  0.11250532314E+01  0.77165851248E+02  0.47000000000E+01 0. -1.
        -13    1    4    4    0    0 -0.66438642185E+02  0.20935346316E+01 -0.19356167081E+02  0.69232487076E+02  0.00000000000E+00 0.  1.
         14    1    4    4    0    0  0.12391106677E+02 -0.32168417297E+02 -0.14894140819E+02  0.37552390427E+02  0.00000000000E+00 0. -1.
         -5    1    5    5    0  502  0.33643496624E+01 -0.22954261472E+02 -0.18456369663E+02  0.30015738364E+02  0.47000000000E+01 0.  1.
         13    1    6    6    0    0 -0.15653685978E+02 -0.62210390081E+01  0.79101171944E+01  0.18609383791E+02  0.00000000000E+00 0. -1.
        -14    1    6    6    0    0  0.46479324827E+02 -0.15160102981E+02  0.23424593357E+03  0.23929336337E+03  0.00000000000E+00 0.  1.
</event>
<event>
12    1  0.8113184E-002  0.2010679E+03  0.7818608E-02  0.1152356E+00
         21   -1    0    0  501  502  0.00000000000E+00  0.00000000000E+00  0.94868949297E+03  0.94868949297E+03  0.00000000000E+00 0. -1.
         21   -1    0    0  502  503 -0.00000000000E+00 -0.00000000000E+00 -0.39399460448E+02  0.39399460448E+02  0.00000000000E+00 0. -1.
         -6    2    1    2    0  503 -0.94023811081E+02 -0.19255523002E+02  0.46287138782E+03  0.49847899675E+03  0.15817754683E+03 0.  0.
        -24    2    3    3    0    0 -0.30414074410E+02  0.19857192530E+02  0.36778994091E+03  0.37748901922E+03  0.76871288402E+02 0.  0.
          6    2    1    2  501    0  0.94023811081E+02  0.19255523002E+02  0.44641864471E+03  0.48960995667E+03  0.17668347720E+03 0.  0.
         24    2    5    5    0    0 -0.14343631862E+02  0.27741592701E+01  0.11362215475E+03  0.13919487171E+03  0.79068214386E+02 0.  0.
          5    1    5    5  501    0  0.10836744294E+03  0.16481363732E+02  0.33279648996E+03  0.35041508496E+03  0.47000000000E+01 0. -1.
        -13    1    6    6    0    0  0.25121264368E+02 -0.14748296976E+02  0.17916669887E+02  0.34199374951E+02  0.00000000000E+00 0.  1.
         14    1    6    6    0    0 -0.39464896230E+02  0.17522456247E+02  0.95705484860E+02  0.10499549676E+03  0.00000000000E+00 0. -1.
         -5    1    3    3    0  503 -0.63609736671E+02 -0.39112715532E+02  0.95081446904E+02  0.12098997752E+03  0.47000000000E+01 0.  1.
         11    1    4    4    0    0 -0.38959619021E+02 -0.13139873045E+02  0.10959195280E+03  0.11705086200E+03  0.00000000000E+00 0. -1.
        -12    1    4    4    0    0  0.85455446107E+01  0.32997065575E+02  0.25819798812E+03  0.26043815722E+03  0.00000000000E+00 0.  1.
</event>
<event>
12    1  0.8113184E-002  0.2188311E+03  0.7818608E-02  0.1136297E+00
         21   -1    0    0  503  502  0.00000000000E+00  0.00000000000E+00  0.44103603973E+03  0.44103603973E+03  0.00000000000E+00 0.  1.
         21   -1    0    0  501  503 -0.00000000000E+00 -0.00000000000E+00 -0.21008666108E+03  0.21008666108E+03  0.00000000000E+00 0.  1.
          6    2    1    2  501    0  0.13343641284E+03  0.29525390713E+02 -0.11624626170E+03  0.24071819974E+03  0.16048374796E+03 0.  0.
         24    2    3    3    0    0  0.71893708790E+02  0.22184432250E+02 -0.13699574419E+03  0.17518938840E+03  0.79136802339E+02 0.  0.
         -6    2    1    2    0  502 -0.13343641284E+03 -0.29525390713E+02  0.34719564035E+03  0.41040450107E+03  0.17090938199E+03 0.  0.
        -24    2    5    5    0    0 -0.63678787189E+02 -0.57145268566E+02  0.10876383857E+03  0.16040290490E+03  0.81110724703E+02 0.  0.
          5    1    3    3  501    0  0.61542704048E+02  0.73409584634E+01  0.20749482486E+02  0.65528811344E+02  0.47000000000E+01 0. -1.
        -13    1    4    4    0    0  0.41147694508E+02 -0.65506802173E+01 -0.12089617886E+02  0.43384363949E+02  0.00000000000E+00 0.  1.
         14    1    4    4    0    0  0.30746014282E+02  0.28735112467E+02 -0.12490612630E+03  0.13180502445E+03  0.00000000000E+00 0. -1.
         -5    1    5    5    0  502 -0.69757625649E+02  0.27619877853E+02  0.23843180178E+03  0.25000159617E+03  0.47000000000E+01 0.  1.
         11    1    6    6    0    0 -0.38589322523E+02 -0.38998317929E+02  0.11625039202E+03  0.12854632728E+03  0.00000000000E+00 0. -1.
        -12    1    6    6    0    0 -0.25089464666E+02 -0.18146950638E+02 -0.74865534488E+01  0.31856577613E+02  0.00000000000E+00 0.  1.
</event>
<event>
12    1  0.8113184E-002  0.1719849E+03  0.7818608E-02  0.1176198E+00
         21   -1    0    0  503  502  0.00000000000E+00  0.00000000000E+00  0.11353475916E+03  0.11353475916E+03  0.00000000000E+00 0. -1.
         21   -1    0    0  501  503 -0.00000000000E+00 -0.00000000000E+00 -0.44771832260E+03  0.44771832260E+03  0.00000000000E+00 0. -1.
          6    2    1    2  501    0 -0.51561750867E+01  0.77993379688E+01 -0.34924969600E+03  0.38860955224E+03  0.17016056570E+03 0.  0.
         24    2    3    3    0    0 -0.64873254242E+02  0.26332831256E+02 -0.19803935064E+03  0.22491386366E+03  0.80403386404E+02 0.  0.
         -6    2    1    2    0  502  0.51561750867E+01 -0.77993379688E+01  0.15066132557E+02  0.17264352952E+03  0.17173055674E+03 0.  0.
        -24    2    5    5    0    0  0.62691735732E+02 -0.24888610662E+02  0.32356372832E+02  0.11000626913E+03  0.80652016186E+02 0.  0.
          5    1    3    3  501    0  0.59717079155E+02 -0.18533493287E+02 -0.15121034536E+03  0.16369568858E+03  0.47000000000E+01 0. -1.
        -13    1    4    4    0    0 -0.75905383103E+00  0.10476607166E+02  0.48321907515E+01  0.11562245797E+02  0.00000000000E+00 0.  1.
         14    1    4    4    0    0 -0.64114200411E+02  0.15856224090E+02 -0.20287154139E+03  0.21335161786E+03  0.00000000000E+00 0. -1.
         -5    1    5    5    0  502 -0.57535560646E+02  0.17089272693E+02 -0.17290240276E+02  0.62637260387E+02  0.47000000000E+01 0.  1.
         13    1    6    6    0    0  0.72766170452E+01  0.14799784708E+02  0.38186711748E+02  0.41595765856E+02  0.00000000000E+00 0. -1.
        -14    1    6    6    0    0  0.55415118687E+02 -0.39688395370E+02 -0.58303389152E+01  0.68410503273E+02  0.00000000000E+00 0.  1.
</event>
<event>
12    1  0.8113184E-002  0.4211507E+03  0.7818608E-02  0.1036712E+00
         21   -1    0    0  501  502  0.00000000000E+00  0.00000000000E+00  0.36472814969E+03  0.36472814969E+03  0.00000000000E+00 0. -1.
         21   -1    0    0  502  503 -0.00000000000E+00 -0.00000000000E+00 -0.54461780791E+03  0.54461780791E+03  0.00000000000E+00 0.  1.
         -6    2    1    2    0  503  0.27569630477E+03 -0.26805293809E+03 -0.23909962048E+03  0.48428973464E+03  0.17177627450E+03 0.  0.
        -24    2    3    3    0    0  0.50532508881E+02 -0.10337995540E+03 -0.10417878375E+03  0.17438386443E+03  0.79470520056E+02 0.  0.
          6    2    1    2  501    0 -0.27569630477E+03  0.26805293809E+03  0.59209962253E+02  0.42505622296E+03  0.17119037053E+03 0.  0.
         24    2    5    5    0    0 -0.17887646173E+03  0.23066157064E+03  0.93141927325E+01  0.30980053250E+03  0.10338310802E+03 0.  0.
          5    1    5    5  501    0 -0.96819843040E+02  0.37391367458E+02  0.49895769520E+02  0.11525569046E+03  0.47000000000E+01 0. -1.
        -13    1    6    6    0    0 -0.36788316660E+02  0.65062186143E+02 -0.41875944720E+02  0.85674167954E+02  0.00000000000E+00 0.  1.
         14    1    6    6    0    0 -0.14208814507E+03  0.16559938449E+03  0.51190137452E+02  0.22412636455E+03  0.00000000000E+00 0. -1.
         -5    1    3    3    0  503  0.22516379589E+03 -0.16467298270E+03 -0.13492083673E+03  0.30990587021E+03  0.47000000000E+01 0.  1.
         13    1    4    4    0    0  0.52101448762E+02 -0.60315826021E+02 -0.23797058791E+02  0.83179684050E+02  0.00000000000E+00 0. -1.
        -14    1    4    4    0    0 -0.15689398801E+01 -0.43064129375E+02 -0.80381724957E+02  0.91204180377E+02  0.00000000000E+00 0.  1.
</event>
<event>
12    1  0.8113184E-002  0.1986329E+03  0.7818608E-02  0.1151591E+00
         21   -1    0    0  503  502  0.00000000000E+00  0.00000000000E+00  0.14498846445E+04  0.14498846445E+04  0.00000000000E+00 0. -1.
         21   -1    0    0  501  503 -0.00000000000E+00 -0.00000000000E+00 -0.29768919746E+02  0.29768919746E+02  0.00000000000E+00 0. -1.
          6    2    1    2  501    0 -0.80824393797E+02 -0.46725476227E+02  0.48054881908E+03  0.51998288661E+03  0.17532593101E+03 0.  0.
         24    2    3    3    0    0 -0.35097511346E+02  0.43663673392E+02  0.22903622406E+03  0.24879693269E+03  0.79397544723E+02 0.  0.
         -6    2    1    2    0  502  0.80824393797E+02  0.46725476227E+02  0.93956690567E+03  0.95967067764E+03  0.17165659476E+03 0.  0.
        -24    2    5    5    0    0  0.84122671477E+02  0.89019688388E+02  0.82583590019E+03  0.83819429875E+03  0.74589675232E+02 0.  0.
          5    1    3    3  501    0 -0.45726882450E+02 -0.90389149619E+02  0.25151259502E+03  0.27118595392E+03  0.47000000000E+01 0. -1.
        -13    1    4    4    0    0 -0.14415256339E+02 -0.23119836113E+02  0.66082644025E+02  0.71478963889E+02  0.00000000000E+00 0.  1.
         14    1    4    4    0    0 -0.20682255007E+02  0.66783509505E+02  0.16295358004E+03  0.17731796880E+03  0.00000000000E+00 0. -1.
         -5    1    5    5    0  502 -0.32982776806E+01 -0.42294212160E+02  0.11373100548E+03  0.12147637888E+03  0.47000000000E+01 0.  1.
         11    1    6    6    0    0  0.23549860998E+02  0.73504398807E+01  0.50333150175E+02  0.56054000089E+02  0.00000000000E+00 0. -1.
        -12    1    6    6    0    0  0.60572810479E+02  0.81669248507E+02  0.77550275001E+03  0.78214029867E+03  0.00000000000E+00 0.  1.
</event>
<event>
12    1  0.8113184E-002  0.2075219E+03  0.7818608E-02  0.1143592E+00
         21   -1    0    0  503  502  0.00000000000E+00  0.00000000000E+00  0.43349463536E+03  0.43349463536E+03  0.00000000000E+00 0. -1.
         21   -1    0    0  501  503 -0.00000000000E+00 -0.00000000000E+00 -0.11869696893E+03  0.11869696893E+03  0.00000000000E+00 0.  1.
          6    2    1    2  501    0  0.95528221729E+02  0.67032883058E+02  0.45659591352E+02  0.21248561568E+03  0.17159921338E+03 0.  0.
         24    2    3    3    0    0 -0.23280049216E+01  0.71281308279E+02  0.90268202722E+01  0.10780543548E+03  0.80337313355E+02 0.  0.
         -6    2    1    2    0  502 -0.95528221729E+02 -0.67032883058E+02  0.26913807508E+03  0.33970598861E+03  0.17130617817E+03 0.  0.
        -24    2    5    5    0    0 -0.66658934324E+02  0.13370860967E+02  0.21266639205E+03  0.23719092243E+03  0.80064635943E+02 0.  0.
          5    1    3    3  501    0  0.97856226651E+02 -0.42484252211E+01  0.36632771080E+02  0.10468018021E+03  0.47000000000E+01 0. -1.
        -11    1    4    4    0    0  0.16397582562E+02  0.67975532064E+02 -0.20336760886E+02  0.72822644258E+02  0.00000000000E+00 0.  1.
         12    1    4    4    0    0 -0.18725587484E+02  0.33057762147E+01  0.29363581159E+02  0.34982791219E+02  0.00000000000E+00 0. -1.
         -5    1    5    5    0  502 -0.28869287405E+02 -0.80403744024E+02  0.56471683038E+02  0.10251506618E+03  0.47000000000E+01 0.  1.
         11    1    6    6    0    0  0.30610695980E+01  0.22317518877E+02  0.14161383915E+02  0.26608017406E+02  0.00000000000E+00 0. -1.
        -12    1    6    6    0    0 -0.69720003922E+02 -0.89466579106E+01  0.19850500813E+03  0.21058290502E+03  0.00000000000E+00 0.  1.
</event>
<event>
12    1  0.8113184E-002  0.4193562E+03  0.7818608E-02  0.1037301E+00
         21   -1    0    0  503  502  0.00000000000E+00  0.00000000000E+00  0.67555325620E+03  0.67555325620E+03  0.00000000000E+00 0.  1.
         21   -1    0    0  501  503 -0.00000000000E+00 -0.00000000000E+00 -0.31389416194E+03  0.31389416194E+03  0.00000000000E+00 0. -1.
          6    2    1    2  501    0  0.31165341944E+03  0.22181374314E+03 -0.23980146799E+02  0.41973064205E+03  0.17108352912E+03 0.  0.
         24    2    3    3    0    0  0.11273305776E+03  0.15804696772E+03 -0.18284074497E+02  0.21070899920E+03  0.79852292677E+02 0.  0.
         -6    2    1    2    0  502 -0.31165341944E+03 -0.22181374314E+03  0.38563924105E+03  0.56971677609E+03  0.17184408697E+03 0.  0.
        -24    2    5    5    0    0 -0.20824032528E+03 -0.21837468642E+03  0.32063688846E+03  0.44743230856E+03  0.79599747271E+02 0.  0.
          5    1    3    3  501    0  0.19892036168E+03  0.63766775417E+02 -0.56960723017E+01  0.20902164285E+03  0.47000000000E+01 0. -1.
        -13    1    4    4    0    0  0.19753958359E+01 -0.37739725243E+01 -0.13928774442E+02  0.14565569497E+02  0.00000000000E+00 0.  1.
         14    1    4    4    0    0  0.11075766193E+03  0.16182094024E+03 -0.43553000551E+01  0.19614342970E+03  0.00000000000E+00 0. -1.
         -5    1    5    5    0  502 -0.10341309416E+03 -0.34390567143E+01  0.65002352595E+02  0.12228446753E+03  0.47000000000E+01 0.  1.
         11    1    6    6    0    0 -0.95553325027E+02 -0.45806190022E+02  0.10966048354E+03  0.15249284120E+03  0.00000000000E+00 0. -1.
        -12    1    6    6    0    0 -0.11268700025E+03 -0.17256849640E+03  0.21097640492E+03  0.29493946736E+03  0.00000000000E+00 0.  1.
</event>
<event>
12    1  0.8113184E-002  0.2047598E+03  0.7818608E-02  0.1145911E+00
         21   -1    0    0  503  502  0.00000000000E+00  0.00000000000E+00  0.86411348434E+03  0.86411348434E+03  0.00000000000E+00 0.  1.
         21   -1    0    0  501  503 -0.00000000000E+00 -0.00000000000E+00 -0.59093027646E+02  0.59093027646E+02  0.00000000000E+00 0. -1.
          6    2    1    2  501    0  0.10264312976E+03 -0.38153143832E+02  0.20540808886E+03  0.28959655108E+03  0.17228582344E+03 0.  0.
         24    2    3    3    0    0  0.12975344514E+03 -0.62798756523E+02  0.18405328592E+03  0.24692931500E+03  0.79491095134E+02 0.  0.
         -6    2    1    2    0  502 -0.10264312976E+03  0.38153143832E+02  0.59961236784E+03  0.63360996091E+03  0.17301825462E+03 0.  0.
        -24    2    5    5    0    0 -0.60864321769E+02 -0.41495177846E+02  0.40263476006E+03  0.41701912106E+03  0.79773942295E+02 0.  0.
          5    1    3    3  501    0 -0.27110315386E+02  0.24645612691E+02  0.21354802942E+02  0.42667236071E+02  0.47000000000E+01 0. -1.
        -11    1    4    4    0    0  0.14595618978E+01 -0.31729673627E+02  0.26335641229E+02  0.41260980458E+02  0.00000000000E+00 0.  1.
         12    1    4    4    0    0  0.12829388324E+03 -0.31069082896E+02  0.15771764469E+03  0.20566833455E+03  0.00000000000E+00 0. -1.
         -5    1    5    5    0  502 -0.41778807986E+02  0.79648321677E+02  0.19697760778E+03  0.21659083986E+03  0.47000000000E+01 0.  1.
         13    1    6    6    0    0 -0.70305124294E+02 -0.23955163963E+02  0.37853413790E+03  0.38575219240E+03  0.00000000000E+00 0. -1.
        -14    1    6    6    0    0  0.94408025255E+01 -0.17540013883E+02  0.24100622157E+02  0.31266928658E+02  0.00000000000E+00 0.  1.
</event>
<event>
12    1  0.8113184E-002  0.1762720E+03  0.7818608E-02  0.1171611E+00
         21   -1    0    0  501  502  0.00000000000E+00  0.00000000000E+00  0.55878264656E+03  0.55878264656E+03  0.00000000000E+00 0. -1.
         21   -1    0    0  502  503 -0.00000000000E+00 -0.00000000000E+00 -0.12610620693E+03  0.12610620693E+03  0.00000000000E+00 0. -1.
         -6    2    1    2    0  503 -0.39653828699E+02 -0.82637243373E+01 -0.40216343609E+02  0.18021132874E+03  0.17093289163E+03 0.  0.
        -24    2    3    3    0    0 -0.91028110379E+02 -0.18319156410E+02 -0.20897996915E+02  0.12421385512E+03  0.79816333904E+02 0.  0.
          6    2    1    2  501    0  0.39653828699E+02  0.82637243373E+01  0.47289278324E+03  0.50467752475E+03  0.17155495995E+03 0.  0.
         24    2    5    5    0    0 -0.41170022919E+02  0.81178595502E+01  0.21129209073E+03  0.23083536477E+03  0.82944243868E+02 0.  0.
          5    1    5    5  501    0  0.80823851618E+02  0.14586478719E+00  0.26160069251E+03  0.27384215999E+03  0.47000000000E+01 0. -1.
        -13    1    6    6    0    0  0.89548608673E+01  0.31950642225E+02  0.11501462172E+03  0.11970545635E+03  0.00000000000E+00 0.  1.
         14    1    6    6    0    0 -0.50124883786E+02 -0.23832782675E+02  0.96277469014E+02  0.11112990842E+03  0.00000000000E+00 0. -1.
         -5    1    3    3    0  503  0.51374281681E+02  0.10055432072E+02 -0.19318346694E+02  0.55997473616E+02  0.47000000000E+01 0.  1.
         13    1    4    4    0    0 -0.67674395835E+02 -0.48717453162E+02 -0.80005174907E+01  0.83768862797E+02  0.00000000000E+00 0. -1.
        -14    1    4    4    0    0 -0.23353714544E+02  0.30398296752E+02 -0.12897479424E+02  0.40444992322E+02  0.00000000000E+00 0.  1.
</event>
<event>
12    1  0.8113184E-002  0.1801064E+03  0.7818608E-02  0.1167915E+00
         21   -1    0    0  503  502  0.00000000000E+00  0.00000000000E+00  0.33022998647E+03  0.33022998647E+03  0.00000000000E+00 0. -1.
         21   -1    0    0  501  503 -0.00000000000E+00 -0.00000000000E+00 -0.97785731022E+02  0.97785731022E+02  0.00000000000E+00 0. -1.
          6    2    1    2  501    0  0.52477440724E+02  0.44544165447E+01  0.11163812567E+03  0.21114606653E+03  0.17130635335E+03 0.  0.
         24    2    3    3    0    0  0.29188972166E+02 -0.46050972061E+02  0.12162127425E+02  0.97081561657E+02  0.79399144494E+02 0.  0.
         -6    2    1    2    0  502 -0.52477440724E+02 -0.44544165447E+01  0.12080612978E+03  0.21686965096E+03  0.17223414558E+03 0.  0.
        -24    2    5    5    0    0  0.18962962057E+02 -0.22818211010E+02  0.11456450884E+03  0.14269412987E+03  0.79726553494E+02 0.  0.
          5    1    3    3  501    0  0.23288468558E+02  0.50505388606E+02  0.99475998246E+02  0.11406450488E+03  0.47000000000E+01 0. -1.
        -13    1    4    4    0    0 -0.70249456271E+01 -0.90111072017E+01  0.37652575073E+02  0.39348015498E+02  0.00000000000E+00 0.  1.
         14    1    4    4    0    0  0.36213917793E+02 -0.37039864860E+02 -0.25490447648E+02  0.57733546158E+02  0.00000000000E+00 0. -1.
         -5    1    5    5    0  502 -0.71440402781E+02  0.18363794465E+02  0.62416209459E+01  0.74175521088E+02  0.47000000000E+01 0.  1.
         13    1    6    6    0    0  0.49252916356E+02 -0.22758988447E+02  0.65756186675E+02  0.85250791262E+02  0.00000000000E+00 0. -1.
        -14    1    6    6    0    0 -0.30289954300E+02 -0.59222562957E-01  0.48808322160E+02  0.57443338612E+02  0.00000000000E+00 0.  1.
</event>
<event>
12    1  0.8113184E-002  0.1935979E+03  0.7818608E-02  0.1155282E+00
         21   -1    0    0  501  502  0.00000000000E+00  0.00000000000E+00  0.30088648799E+03  0.30088648799E+03  0.00000000000E+00 0.  1.
         21   -1    0    0  502  503 -0.00000000000E+00 -0.00000000000E+00 -0.33017643251E+03  0.33017643251E+03  0.00000000000E+00 0.  1.
         -6    2    1    2    0  503  0.92173308810E+02  0.24448012005E+01 -0.26368923565E+03  0.32712710790E+03  0.17022994983E+03 0.  0.
        -24    2    3    3    0    0  0.11680376903E+02 -0.46941791711E+02 -0.16947556068E+03  0.19364881680E+03  0.80236746974E+02 0.  0.
          6    2    1    2  501    0 -0.92173308810E+02 -0.24448012005E+01  0.23439929112E+03  0.30393581259E+03  0.17009425206E+03 0.  0.
         24    2    5    5    0    0 -0.10233643624E+03  0.29405467179E+02  0.23525851190E+03  0.27016367888E+03  0.79400367024E+02 0.  0.
          5    1    5    5  501    0  0.10163127428E+02 -0.31850268380E+02 -0.85922077183E+00  0.33772133710E+02  0.47000000000E+01 0. -1.
        -13    1    6    6    0    0 -0.56994730593E+02 -0.19253102326E+02  0.71670252758E+02  0.93571931662E+02  0.00000000000E+00 0.  1.
         14    1    6    6    0    0 -0.45341705645E+02  0.48658569505E+02  0.16358825914E+03  0.17659174722E+03  0.00000000000E+00 0. -1.
         -5    1    3    3    0  503  0.80492931907E+02  0.49386592912E+02 -0.94213674963E+02  0.13347829111E+03  0.47000000000E+01 0.  1.
         11    1    4    4    0    0  0.45267658597E+02 -0.34699568405E+02 -0.90734457282E+02  0.10717258372E+03  0.00000000000E+00 0. -1.
        -12    1    4    4    0    0 -0.33587281694E+02 -0.12242223307E+02 -0.78741103402E+02  0.86476233082E+02  0.00000000000E+00 0.  1.
</event>
<event>
12    1  0.8113184E-002  0.1835596E+03  0.7818608E-02  0.1164706E+00
         21   -1    0    0  503  502  0.00000000000E+00  0.00000000000E+00  0.10372955680E+04  0.10372955680E+04  0.00000000000E+00 0.  1.
         21   -1    0    0  501  503 -0.00000000000E+00 -0.00000000000E+00 -0.40929311040E+02  0.40929311040E+02  0.00000000000E+00 0.  1.
          6    2    1    2  501    0  0.64212325532E+02 -0.53575480309E+01  0.25138543353E+03  0.31126961984E+03  0.17187848606E+03 0.  0.
         24    2    3    3    0    0  0.64881710595E+02 -0.35329767295E+02  0.73396255800E+02  0.13071209606E+03  0.78998815586E+02 0.  0.
         -6    2    1    2    0  502 -0.64212325532E+02  0.53575480309E+01  0.74498082338E+03  0.76695525915E+03  0.17050517959E+03 0.  0.
        -24    2    5    5    0    0 -0.15095234101E+02  0.52800342626E+02  0.24796227858E+03  0.26524535163E+03  0.76511846724E+02 0.  0.
          5    1    3    3  501    0 -0.66938506232E+00  0.29972219264E+02  0.17798917773E+03  0.18055752378E+03  0.47000000000E+01 0. -1.
        -13    1    4    4    0    0  0.52864942783E+02  0.63398655271E+01  0.68953142340E+02  0.87117345626E+02  0.00000000000E+00 0.  1.
         14    1    4    4    0    0  0.12016767811E+02 -0.41669632822E+02  0.44431134604E+01  0.43594750434E+02  0.00000000000E+00 0. -1.
         -5    1    5    5    0  502 -0.49117091432E+02 -0.47442794595E+02  0.49701854481E+03  0.50170990753E+03  0.47000000000E+01 0.  1.
         13    1    6    6    0    0  0.81857953371E+01  0.39529804174E+02  0.22871906056E+03  0.23225421703E+03  0.00000000000E+00 0. -1.
        -14    1    6    6    0    0 -0.23281029438E+02  0.13270538452E+02  0.19243218012E+02  0.32991134597E+02  0.00000000000E+00 0.  1.
</event>
<event>
12    1  0.8113184E-002  0.2265431E+03  0.7818608E-02  0.1129105E+00
         21   -1    0    0  501  502  0.00000000000E+00  0.00000000000E+00  0.16304374456E+03  0.16304374456E+03  0.00000000000E+00 0.  1.
         21   -1    0    0  502  503 -0.00000000000E+00 -0.00000000000E+00 -0.38247633445E+03  0.38247633445E+03  0.00000000000E+00 0.  1.
         -6    2    1    2    0  503 -0.11230949680E+03 -0.93776068341E+02 -0.22454060524E+03  0.31896749526E+03  0.17295781441E+03 0.  0.
        -24    2    3    3    0    0  0.17513077822E+02 -0.13935511386E+02 -0.82987919447E+02  0.11091060815E+03  0.70094663521E+02 0.  0.
          6    2    1    2  501    0  0.11230949680E+03  0.93776068341E+02  0.51080153519E+01  0.22655258375E+03  0.17289478684E+03 0.  0.
         24    2    5    5    0    0  0.15271734864E+02  0.85466078377E+02  0.31178432604E+02  0.12562122177E+03  0.85269691332E+02 0.  0.
          5    1    5    5  501    0  0.97037761938E+02  0.83099899636E+01 -0.26070417252E+02  0.10093136198E+03  0.47000000000E+01 0. -1.
        -13    1    6    6    0    0 -0.26805486859E+02  0.53174678377E+01  0.21127818425E+02  0.34542644678E+02  0.00000000000E+00 0.  1.
         14    1    6    6    0    0  0.42077221723E+02  0.80148610540E+02  0.10050614179E+02  0.91078577090E+02  0.00000000000E+00 0. -1.
         -5    1    3    3    0  503 -0.12982257462E+03 -0.79840556955E+02 -0.14155268579E+03  0.20805688711E+03  0.47000000000E+01 0.  1.
         13    1    4    4    0    0 -0.27260713724E+02 -0.25337421802E+01 -0.30796079664E+02  0.41206369469E+02  0.00000000000E+00 0. -1.
        -14    1    4    4    0    0  0.44773791546E+02 -0.11401769206E+02 -0.52191839783E+02  0.69704238683E+02  0.00000000000E+00 0.  1.
</event>
<event>
12    1  0.8113184E-002  0.1924860E+03  0.7818608E-02  0.1159158E+00
         21   -1    0    0  501  502  0.00000000000E+00  0.00000000000E+00  0.11944959026E+04  0.11944959026E+04  0.00000000000E+00 0. -1.
         21   -1    0    0  502  503 -0.00000000000E+00 -0.00000000000E+00 -0.31569446299E+02  0.31569446299E+02  0.00000000000E+00 0.  1.
         -6    2    1    2    0  503 -0.39822606641E+02 -0.38345741283E+02  0.42507955252E+03  0.46662991901E+03  0.18437629855E+03 0.  0.
        -24    2    3    3    0    0  0.26746175928E+01  0.46922961275E+02  0.25536320568E+03  0.27194429013E+03  0.80835711477E+02 0.  0.
          6    2    1    2  501    0  0.39822606641E+02  0.38345741283E+02  0.73784690378E+03  0.75943542989E+03  0.17107858686E+03 0.  0.
         24    2    5    5    0    0 -0.72811490774E+00  0.48779427081E+02  0.68761760451E+03  0.69387404398E+03  0.79140736782E+02 0.  0.
          5    1    5    5  501    0  0.40550721549E+02 -0.10433685797E+02  0.50229299269E+02  0.65561385911E+02  0.47000000000E+01 0. -1.
        -11    1    6    6    0    0 -0.47283007683E+01  0.44588948229E+01  0.19803121998E+01  0.67941303789E+01  0.00000000000E+00 0.  1.
         12    1    6    6    0    0  0.40001858606E+01  0.44320532258E+02  0.68563729231E+03  0.68707991360E+03  0.00000000000E+00 0. -1.
         -5    1    3    3    0  503 -0.42497224234E+02 -0.85268702558E+02  0.16971634685E+03  0.19468562887E+03  0.47000000000E+01 0.  1.
         11    1    4    4    0    0 -0.14136816132E+02  0.46028367542E+01  0.19867897122E+03  0.19923445807E+03  0.00000000000E+00 0. -1.
        -12    1    4    4    0    0  0.16811433725E+02  0.42320124521E+02  0.56684234453E+02  0.72709832065E+02  0.00000000000E+00 0.  1.
</event>
<event>
12    1  0.8113184E-002  0.1954200E+03  0.7818608E-02  0.1153904E+00
         21   -1    0    0  501  502  0.00000000000E+00  0.00000000000E+00  0.25090520140E+03  0.25090520140E+03  0.00000000000E+00 0. -1.
         21   -1    0    0  502  503 -0.00000000000E+00 -0.00000000000E+00 -0.19490904953E+03  0.19490904953E+03  0.00000000000E+00 0. -1.
         -6    2    1    2    0  503 -0.41223122824E+02  0.83223181209E+02 -0.77452213467E+02  0.20917643756E+03  0.17067657401E+03 0.  0.
        -24    2    3    3    0    0 -0.74064635880E+02  0.79391715403E+02 -0.10514949840E+03  0.16578894279E+03  0.68124457975E+02 0.  0.
          6    2    1    2  501    0  0.41223122824E+02 -0.83223181209E+02  0.13344836534E+03  0.23663781336E+03  0.17194052679E+03 0.  0.
         24    2    5    5    0    0  0.15220957921E+02  0.11965096532E+02  0.10967900461E+03  0.13503075992E+03  0.76347763407E+02 0.  0.
          5    1    5    5  501    0  0.26002164903E+02 -0.95188277742E+02  0.23769360731E+02  0.10160705344E+03  0.47000000000E+01 0. -1.
        -11    1    6    6    0    0  0.30739914854E+02  0.13714579301E+02  0.11396828227E+03  0.11883518592E+03  0.00000000000E+00 0.  1.
         12    1    6    6    0    0 -0.15518956933E+02 -0.17494827690E+01 -0.42892776572E+01  0.16195573996E+02  0.00000000000E+00 0. -1.
         -5    1    3    3    0  503  0.32841513056E+02  0.38314658066E+01  0.27697284936E+02  0.43387494775E+02  0.47000000000E+01 0.  1.
         11    1    4    4    0    0 -0.68553645083E+02  0.75873571009E+02 -0.56747488225E+02  0.11694733196E+03  0.00000000000E+00 0. -1.
        -12    1    4    4    0    0 -0.55109907963E+01  0.35181443936E+01 -0.48402010178E+02  0.48841610833E+02  0.00000000000E+00 0.  1.
</event>
<event>
12    1  0.8113184E-002  0.2862459E+03  0.7818608E-02  0.1092481E+00
         21   -1    0    0  501  502  0.00000000000E+00  0.00000000000E+00  0.63620804001E+02  0.63620804001E+02  0.00000000000E+00 0. -1.
         21   -1    0    0  502  503 -0.00000000000E+00 -0.00000000000E+00 -0.13592586834E+04  0.13592586834E+04  0.00000000000E+00 0. -1.
         -6    2    1    2    0  503 -0.22248821598E+03 -0.55864931984E+02 -0.47767903606E+03  0.55628075592E+03  0.16926051236E+03 0.  0.
        -24    2    3    3    0    0 -0.12308820691E+03 -0.47929510938E+02 -0.15748251062E+03  0.22088362175E+03  0.80875759694E+02 0.  0.
          6    2    1    2  501    0  0.22248821598E+03  0.55864931984E+02 -0.81795884337E+03  0.86659873150E+03  0.17121563925E+03 0.  0.
         24    2    5    5    0    0  0.31838356382E+02  0.24234164316E+02 -0.32997992995E+03  0.34172409469E+03  0.79294558863E+02 0.  0.
          5    1    5    5  501    0  0.19064985960E+03  0.31630767668E+02 -0.48797891342E+03  0.52487463681E+03  0.47000000000E+01 0. -1.
        -11    1    6    6    0    0  0.16380868075E+02  0.48496811241E+02 -0.13049837039E+03  0.14017880801E+03  0.00000000000E+00 0.  1.
         12    1    6    6    0    0  0.15457488306E+02 -0.24262646925E+02 -0.19948155956E+03  0.20154528668E+03  0.00000000000E+00 0. -1.
         -5    1    3    3    0  503 -0.99400009069E+02 -0.79354210459E+01 -0.32019652544E+03  0.33539713417E+03  0.47000000000E+01 0.  1.
         13    1    4    4    0    0 -0.89791273221E+02 -0.20117613471E+02 -0.15126737266E+03  0.17705651400E+03  0.00000000000E+00 0. -1.
        -14    1    4    4    0    0 -0.33296933694E+02 -0.27811897467E+02 -0.62151379642E+01  0.43827107753E+02  0.00000000000E+00 0.  1.
</event>
<event>
12    1  0.8113184E-002  0.1776998E+03  0.7818608E-02  0.1171506E+00
         21   -1    0    0  503  502  0.00000000000E+00  0.00000000000E+00  0.84186097068E+02  0.84186097068E+02  0.00000000000E+00 0. -1.
         21   -1    0    0  501  503 -0.00000000000E+00 -0.00000000000E+00 -0.84853472673E+03  0.84853472673E+03  0.00000000000E+00 0. -1.
          6    2    1    2  501    0  0.82123223390E+01 -0.17185588627E+01 -0.73224150357E+03  0.75214376652E+03  0.17167478060E+03 0.  0.
         24    2    3    3    0    0  0.19937056983E+02 -0.15708408688E+02 -0.17262671554E+03  0.19221164003E+03  0.80629345158E+02 0.  0.
         -6    2    1    2    0  502 -0.82123223390E+01  0.17185588627E+01 -0.32107126091E+02  0.18057705727E+03  0.17750157854E+03 0.  0.
        -24    2    5    5    0    0  0.58064862140E+02 -0.29070797926E+02 -0.25884014086E+02  0.10708238537E+03  0.81117295103E+02 0.  0.
          5    1    3    3  501    0 -0.11724734644E+02  0.13989849826E+02 -0.55961478803E+03  0.55993212650E+03  0.47000000000E+01 0. -1.
        -11    1    4    4    0    0  0.11982337682E+02  0.30879262242E+02 -0.43275001428E+02  0.54496155841E+02  0.00000000000E+00 0.  1.
         12    1    4    4    0    0  0.79547193009E+01 -0.46587670930E+02 -0.12935171411E+03  0.13771548419E+03  0.00000000000E+00 0. -1.
         -5    1    5    5    0  502 -0.66277184479E+02  0.30789356789E+02 -0.62231120057E+01  0.73494671895E+02  0.47000000000E+01 0.  1.
         13    1    6    6    0    0  0.58891854061E+02  0.13122934870E+02 -0.66417078640E+01  0.60700693387E+02  0.00000000000E+00 0. -1.
        -14    1    6    6    0    0 -0.82699192046E+00 -0.42193732796E+02 -0.19242306222E+02  0.46381691988E+02  0.00000000000E+00 0.  1.
</event>
<event>
12    1  0.8113184E-002  0.1750436E+03  0.7818608E-02  0.1173501E+00
         21   -1    0    0  503  502  0.00000000000E+00  0.00000000000E+00  0.23670405902E+03  0.23670405902E+03  0.00000000000E+00 0. -1.
         21   -1    0    0  501  503 -0.00000000000E+00 -0.00000000000E+00 -0.15012962011E+03  0.15012962011E+03  0.00000000000E+00 0. -1.
          6    2    1    2  501    0  0.23433165580E+02 -0.17097813568E+02 -0.32829114414E+02  0.17494340813E+03  0.16936940934E+03 0.  0.
         24    2    3    3    0    0 -0.34307234942E+02 -0.55155658940E+02 -0.13689709606E+02  0.10303540953E+03  0.78801994806E+02 0.  0.
         -6    2    1    2    0  502 -0.23433165580E+02  0.17097813568E+02  0.11940355333E+03  0.21189027099E+03  0.17262337592E+03 0.  0.
        -24    2    5    5    0    0 -0.23299541271E+02 -0.47705668679E+02  0.32013846636E+02  0.10299325541E+03  0.82243691769E+02 0.  0.
          5    1    3    3  501    0  0.57740400522E+02  0.38057845373E+02 -0.19139404808E+02  0.71907998604E+02  0.47000000000E+01 0. -1.
        -11    1    4    4    0    0 -0.20811830127E+02 -0.33269611786E+02  0.31981145946E+02  0.50624036165E+02  0.00000000000E+00 0.  1.
         12    1    4    4    0    0 -0.13495404815E+02 -0.21886047154E+02 -0.45670855552E+02  0.52411373365E+02  0.00000000000E+00 0. -1.
         -5    1    5    5    0  502 -0.13362430887E+00  0.64803482247E+02  0.87389706691E+02  0.10889701558E+03  0.47000000000E+01 0.  1.
         11    1    6    6    0    0  0.16383211636E+01  0.81949996118E+01  0.40359780203E+02  0.41215943188E+02  0.00000000000E+00 0. -1.
        -12    1    6    6    0    0 -0.24937862434E+02 -0.55900668291E+02 -0.83459335667E+01  0.61777312221E+02  0.00000000000E+00 0.  1.
</event>
<event>
12    1  0.8113184E-002  0.2344126E+03  0.7818608E-02  0.1123735E+00
         21   -1    0    0  501  502  0.00000000000E+00  0.00000000000E+00  0.74427366596E+02  0.74427366596E+02  0.00000000000E+00 0. -1.
         21   -1    0    0  502  503 -0.00000000000E+00 -0.00000000000E+00 -0.89189895530E+03  0.89189895530E+03  0.00000000000E+00 0. -1.
         -6    2    1    2    0  503  0.13802555021E+03 -0.76272273619E+02 -0.20559953954E+03  0.31108845522E+03  0.17215209578E+03 0.  0.
        -24    2    3    3    0    0  0.14015002654E+03 -0.10488316449E+03 -0.20260300830E+03  0.28186234231E+03  0.88067547439E+02 0.  0.
          6    2    1    2  501    0 -0.13802555021E+03  0.76272273619E+02 -0.61187204917E+03  0.65523786667E+03  0.17343801526E+03 0.  0.
         24    2    5    5    0    0 -0.51607268595E+02 -0.20670353186E+02 -0.18373194501E+03  0.20780962542E+03  0.79604265749E+02 0.  0.
          5    1    5    5  501    0 -0.86418281612E+02  0.96942626805E+02 -0.42814010415E+03  0.44742824125E+03  0.47000000000E+01 0. -1.
        -13    1    6    6    0    0 -0.17619044432E+01 -0.73454392251E+01  0.69535660134E+01  0.10267028050E+02  0.00000000000E+00 0.  1.
         14    1    6    6    0    0 -0.49845364152E+02 -0.13324913961E+02 -0.19068551103E+03  0.19754259737E+03  0.00000000000E+00 0. -1.
         -5    1    3    3    0  503 -0.21244763280E+01  0.28610890873E+02 -0.29965312409E+01  0.29226112908E+02  0.47000000000E+01 0.  1.
         13    1    4    4    0    0  0.10923656302E+03 -0.51590092534E+02 -0.80719059853E+02  0.14529188199E+03  0.00000000000E+00 0. -1.
        -14    1    4    4    0    0  0.30913463514E+02 -0.53293071958E+02 -0.12188394844E+03  0.13657046032E+03  0.00000000000E+00 0.  1.
</event>
<event>
12    1  0.8113184E-002  0.1763848E+03  0.7818608E-02  0.1171747E+00
         21   -1    0    0  503  502  0.00000000000E+00  0.00000000000E+00  0.14371971838E+03  0.14371971838E+03  0.00000000000E+00 0. -1.
         21   -1    0    0  501  503 -0.00000000000E+00 -0.00000000000E+00 -0.28860547012E+03  0.28860547012E+03  0.00000000000E+00 0. -1.
          6    2    1    2  501    0  0.31842556894E+02 -0.30175378960E+02 -0.18220774993E+03  0.25359662050E+03  0.17084226606E+03 0.  0.
         24    2    3    3    0    0 -0.25388231995E+02 -0.61602887010E+02 -0.14343538900E+03  0.17751483930E+03  0.80612215838E+02 0.  0.
         -6    2    1    2    0  502 -0.31842556894E+02  0.30175378960E+02  0.37321998189E+02  0.17872856800E+03  0.16919358010E+03 0.  0.
        -24    2    5    5    0    0 -0.83514085398E+02  0.10527072642E+02  0.43063163991E+02  0.12295174680E+03  0.78595637472E+02 0.  0.
          5    1    3    3  501    0  0.57230788889E+02  0.31427508050E+02 -0.38772360935E+02  0.76081781207E+02  0.47000000000E+01 0. -1.
        -11    1    4    4    0    0  0.56106212989E-01  0.18678621104E+02 -0.15123298577E+02  0.24033480691E+02  0.00000000000E+00 0.  1.
         12    1    4    4    0    0 -0.25444338208E+02 -0.80281508114E+02 -0.12831209042E+03  0.15348135861E+03  0.00000000000E+00 0. -1.
         -5    1    5    5    0  502  0.51671528503E+02  0.19648306318E+02 -0.57411658017E+01  0.55776821206E+02  0.47000000000E+01 0.  1.
         11    1    6    6    0    0  0.23479346376E+01  0.25569064697E+02  0.20641017745E+02  0.32944521245E+02  0.00000000000E+00 0. -1.
        -12    1    6    6    0    0 -0.85862020035E+02 -0.15041992055E+02  0.22422146245E+02  0.90007225553E+02  0.00000000000E+00 0.  1.
</event>
<event>
12    1  0.8113184E-002  0.2354662E+03  0.7818608E-02  0.1123337E+00
         21   -1    0    0  501  502  0.00000000000E+00  0.00000000000E+00  0.33786027604E+03  0.33786027604E+03  0.00000000000E+00 0.  1.
         21   -1    0    0  502  503 -0.00000000000E+00 -0.00000000000E+00 -0.16859235583E+03  0.16859235583E+03  0.00000000000E+00 0.  1.
         -6    2    1    2    0  503  0.12711592980E+03 -0.91360270885E+02  0.34584666515E+02  0.23518906002E+03  0.17208322430E+03 0.  0.
        -24    2    3    3    0    0  0.10076616717E+03 -0.56819294262E+01  0.54588092323E+02  0.14322539746E+03  0.85717850457E+02 0.  0.
          6    2    1    2  501    0 -0.12711592980E+03  0.91360270885E+02  0.13468325370E+03  0.27126357186E+03  0.17589538903E+03 0.  0.
         24    2    5    5    0    0 -0.58572960117E+02  0.52253123726E+02 -0.90628807823E+01  0.10721312586E+03  0.72466115889E+02 0.  0.
          5    1    5    5  501    0 -0.68542969687E+02  0.39107147159E+02  0.14374613449E+03  0.16405044600E+03  0.47000000000E+01 0. -1.
        -11    1    6    6    0    0 -0.57543102108E+02  0.54659015017E+01  0.58463823129E+01  0.58097029748E+02  0.00000000000E+00 0.  1.
         12    1    6    6    0    0 -0.10298580095E+01  0.46787222224E+02 -0.14909263095E+02  0.49116096110E+02  0.00000000000E+00 0. -1.
         -5    1    3    3    0  503  0.26349762634E+02 -0.85678341459E+02 -0.20003425808E+02  0.91963662552E+02  0.47000000000E+01 0.  1.
         11    1    4    4    0    0  0.48466735674E+02 -0.39090941736E+02  0.51979510168E+02  0.81111008316E+02  0.00000000000E+00 0. -1.
        -12    1    4    4    0    0  0.52299431497E+02  0.33409012310E+02  0.26085821550E+01  0.62114389149E+02  0.00000000000E+00 0.  1.
</event>
<event>
12    1  0.8113184E-002  0.2054146E+03  0.7818608E-02  0.1145619E+00
         21   -1    0    0  503  502  0.00000000000E+00  0.00000000000E+00  0.88960371123E+02  0.88960371123E+02  0.00000000000E+00 0.  1.
         21   -1    0    0  501  503 -0.00000000000E+00 -0.00000000000E+00 -0.94050297721E+03  0.94050297721E+03  0.00000000000E+00 0.  1.
          6    2    1    2  501    0 -0.97851478045E+01  0.11149322669E+03 -0.78883754317E+03  0.81469121715E+03  0.17009003815E+03 0.  0.
         24    2    3    3    0    0  0.32394690371E+02  0.10007099764E+03 -0.36192754218E+03  0.38552476342E+03  0.81081298016E+02 0.  0.
         -6    2    1    2    0  502  0.97851478045E+01 -0.11149322669E+03 -0.62705062914E+02  0.21477213118E+03  0.17224591345E+03 0.  0.
        -24    2    5    5    0    0  0.64021585491E+02 -0.94822394065E+02 -0.15541939088E+02  0.14084001311E+03  0.80649287636E+02 0.  0.
          5    1    3    3  501    0 -0.42179838176E+02  0.11422229049E+02 -0.42691000099E+03  0.42916645373E+03  0.47000000000E+01 0. -1.
        -13    1    4    4    0    0  0.28475745834E+02  0.87086531102E+02 -0.36041362323E+03  0.37187754949E+03  0.00000000000E+00 0.  1.
         14    1    4    4    0    0  0.39189445375E+01  0.12984466541E+02 -0.15139189509E+01  0.13647213937E+02  0.00000000000E+00 0. -1.
         -5    1    5    5    0  502 -0.54236437686E+02 -0.16670832628E+02 -0.47163123826E+02  0.73932118071E+02  0.47000000000E+01 0.  1.
         13    1    6    6    0    0  0.28980786243E+02 -0.49623708316E+02 -0.48180115997E+02  0.74991479355E+02  0.00000000000E+00 0. -1.
        -14    1    6    6    0    0  0.35040799247E+02 -0.45198685748E+02  0.32638176909E+02  0.65848533751E+02  0.00000000000E+00 0.  1.
</event>
<event>
12    1  0.8113184E-002  0.1785442E+03  0.7818608E-02  0.1170722E+00
         21   -1    0    0  503  502  0.00000000000E+00  0.00000000000E+00  0.11325559392E+04  0.11325559392E+04  0.00000000000E+00 0.  1.
         21   -1    0    0  501  503 -0.00000000000E+00 -0.00000000000E+00 -0.28679359324E+02  0.28679359324E+02  0.00000000000E+00 0.  1.
          6    2    1    2  501    0 -0.10122999275E+02  0.72990051036E+01  0.69259806849E+03  0.71524131113E+03  0.17810754636E+03 0.  0.
         24    2    3    3    0    0 -0.88794213132E+01  0.60203612332E+02  0.60063654205E+03  0.60903652640E+03  0.80361158458E+02 0.  0.
         -6    2    1    2    0  502  0.10122999275E+02 -0.72990051036E+01  0.41127851142E+03  0.44599398743E+03  0.17206066454E+03 0.  0.
        -24    2    5    5    0    0  0.22344412944E+02  0.11878478288E+02  0.41461889671E+03  0.42253365932E+03  0.77365966084E+02 0.  0.
          5    1    3    3  501    0 -0.12435779620E+01 -0.52904607229E+02  0.91961526448E+02  0.10620478473E+03  0.47000000000E+01 0. -1.
        -11    1    4    4    0    0  0.28698053444E+00  0.56525238069E+02  0.18876850268E+03  0.19705007612E+03  0.00000000000E+00 0.  1.
         12    1    4    4    0    0 -0.91664018477E+01  0.36783742630E+01  0.41186803937E+03  0.41198645028E+03  0.00000000000E+00 0. -1.
         -5    1    5    5    0  502 -0.12221413669E+02 -0.19177483391E+02 -0.33403852960E+01  0.23460328114E+02  0.47000000000E+01 0.  1.
         13    1    6    6    0    0  0.34992240369E+02 -0.11158686539E+02  0.36055194867E+03  0.36241782636E+03  0.00000000000E+00 0. -1.
        -14    1    6    6    0    0 -0.12647827425E+02  0.23037164827E+02  0.54066948043E+02  0.60115832961E+02  0.00000000000E+00 0.  1.
</event>
<event>
12    1  0.8113184E-002  0.2341664E+03  0.7818608E-02  0.1123959E+00
         21   -1    0    0  503  502  0.00000000000E+00  0.00000000000E+00  0.42584826629E+03  0.42584826629E+03  0.00000000000E+00 0. -1.
         21   -1    0    0  501  503 -0.00000000000E+00 -0.00000000000E+00 -0.14325328842E+03  0.14325328842E+03  0.00000000000E+00 0.  1.
          6    2    1    2  501    0 -0.91671547505E+02 -0.12721134626E+03  0.48315384272E+02  0.23786021711E+03  0.17221122869E+03 0.  0.
         24    2    3    3    0    0 -0.76684562552E+02 -0.14663175577E+03  0.36636737851E+00  0.18379580881E+03  0.79996069769E+02 0.  0.
         -6    2    1    2    0  502  0.91671547505E+02  0.12721134626E+03  0.23427959359E+03  0.33124133760E+03  0.17391807417E+03 0.  0.
        -24    2    5    5    0    0  0.31627787324E+02  0.13879431729E+03  0.20767343587E+03  0.26438779631E+03  0.80675097943E+02 0.  0.
          5    1    3    3  501    0 -0.14986984953E+02  0.19420409509E+02  0.47949016893E+02  0.54064408297E+02  0.47000000000E+01 0. -1.
        -13    1    4    4    0    0 -0.81086205846E+01 -0.45867557517E+02  0.33632729826E+02  0.57452093748E+02  0.00000000000E+00 0.  1.
         14    1    4    4    0    0 -0.68575941967E+02 -0.10076419825E+03 -0.33266362448E+02  0.12634371506E+03  0.00000000000E+00 0. -1.
         -5    1    5    5    0  502  0.60043760181E+02 -0.11582971028E+02  0.26606157720E+02  0.66853541291E+02  0.47000000000E+01 0.  1.
         13    1    6    6    0    0  0.30753721923E+01  0.12436743586E+03  0.12782858443E+03  0.17837282308E+03  0.00000000000E+00 0. -1.
        -14    1    6    6    0    0  0.28552415132E+02  0.14426881427E+02  0.79844851443E+02  0.86014973229E+02  0.00000000000E+00 0.  1.
</event>
<event>
12    1  0.8113184E-002  0.1878556E+03  0.7818608E-02  0.1160507E+00
         21   -1    0    0  501  502  0.00000000000E+00  0.00000000000E+00  0.34445015750E+02  0.34445015750E+02  0.00000000000E+00 0. -1.
         21   -1    0    0  502  503 -0.00000000000E+00 -0.00000000000E+00 -0.11422883213E+04  0.11422883213E+04  0.00000000000E+00 0. -1.
         -6    2    1    2    0  503 -0.23844957488E+02  0.69608512021E+02 -0.74412363596E+03  0.76736588933E+03  0.17238473125E+03 0.  0.
        -24    2    3    3    0    0 -0.48803140935E+02  0.10364600754E+03 -0.48262987990E+03  0.50244602130E+03  0.79976008251E+02 0.  0.
          6    2    1    2  501    0  0.23844957488E+02 -0.69608512021E+02 -0.36371966955E+03  0.40936744768E+03  0.17284612307E+03 0.  0.
         24    2    5    5    0    0  0.49747864125E+02 -0.86142523535E+02 -0.35410321822E+03  0.37682670022E+03  0.81938321321E+02 0.  0.
          5    1    5    5  501    0 -0.25902906637E+02  0.16534011514E+02 -0.96164513296E+01  0.32540747458E+02  0.47000000000E+01 0. -1.
        -11    1    6    6    0    0 -0.43614336253E+01  0.13666811565E+02 -0.56787424224E+02  0.58571455434E+02  0.00000000000E+00 0.  1.
         12    1    6    6    0    0  0.54109297750E+02 -0.99809335100E+02 -0.29731579399E+03  0.31825524479E+03  0.00000000000E+00 0. -1.
         -5    1    3    3    0  503  0.24958183447E+02 -0.34037495520E+02 -0.26149375606E+03  0.26491986804E+03  0.47000000000E+01 0.  1.
         11    1    4    4    0    0  0.49914325033E+01  0.49569639126E+02 -0.30630221681E+03  0.31032742635E+03  0.00000000000E+00 0. -1.
        -12    1    4    4    0    0 -0.53794573439E+02  0.54076368414E+02 -0.17632766309E+03  0.19211859495E+03  0.00000000000E+00 0.  1.
</event>
<event>
12    1  0.8113184E-002  0.2712040E+03  0.7818608E-02  0.1100607E+00
         21   -1    0    0  501  502  0.00000000000E+00  0.00000000000E+00  0.92799302165E+02  0.92799302165E+02  0.00000000000E+00 0.  1.
         21   -1    0    0  502  503 -0.00000000000E+00 -0.00000000000E+00 -0.12657241108E+04  0.12657241108E+04  0.00000000000E+00 0.  1.
         -6    2    1    2    0  503 -0.94231013926E+02 -0.18677020895E+03 -0.17096782873E+03  0.32051117973E+03  0.17243788139E+03 0.  0.
        -24    2    3    3    0    0 -0.11030055720E+01 -0.32481232077E+02 -0.81529160629E+02  0.11926685143E+03  0.80754756876E+02 0.  0.
          6    2    1    2  501    0  0.94231013926E+02  0.18677020895E+03 -0.10019569799E+04  0.10380122332E+04  0.17259493567E+03 0.  0.
         24    2    5    5    0    0  0.21535480671E+02  0.15047260635E+03 -0.46702903610E+03  0.49692799619E+03  0.75601128629E+02 0.  0.
          5    1    5    5  501    0  0.72695533254E+02  0.36297602600E+02 -0.53492794377E+03  0.54108423700E+03  0.47000000000E+01 0. -1.
        -11    1    6    6    0    0  0.25934644498E+02  0.15542689995E+03 -0.40545811681E+03  0.43500162241E+03  0.00000000000E+00 0.  1.
         12    1    6    6    0    0 -0.43991638270E+01 -0.49542936014E+01 -0.61570919290E+02  0.61926373781E+02  0.00000000000E+00 0. -1.
         -5    1    3    3    0  503 -0.93128008354E+02 -0.15428897687E+03 -0.89438668100E+02  0.20124432830E+03  0.47000000000E+01 0.  1.
         13    1    4    4    0    0 -0.32888981455E+02 -0.22771659086E+02 -0.75564667629E+02  0.85500014927E+02  0.00000000000E+00 0. -1.
        -14    1    4    4    0    0  0.31785975883E+02 -0.97095729904E+01 -0.59644929998E+01  0.33766836500E+02  0.00000000000E+00 0.  1.
</event>
<event>
12    1  0.8113184E-002  0.1901780E+03  0.7818608E-02  0.1158905E+00
         21   -1    0    0  503  502  0.00000000000E+00  0.00000000000E+00  0.13824421083E+03  0.13824421083E+03  0.00000000000E+00 0.  1.
         21   -1    0    0  501  503 -0.00000000000E+00 -0.00000000000E+00 -0.52505380259E+03  0.52505380259E+03  0.00000000000E+00 0.  1.
          6    2    1    2  501    0 -0.54611355223E+02 -0.49265713608E+02 -0.43060703778E+03  0.47073358262E+03  0.17538008486E+03 0.  0.
         24    2    3    3    0    0 -0.60398895845E+02 -0.45913051840E+02 -0.13457568666E+03  0.17458938327E+03  0.81331435252E+02 0.  0.
         -6    2    1    2    0  502  0.54611355223E+02  0.49265713608E+02  0.43797446010E+02  0.19256443080E+03  0.17249154494E+03 0.  0.
        -24    2    5    5    0    0  0.77550486309E+02 -0.12991614063E+02  0.56482216251E+02  0.12485053282E+03  0.78832447823E+02 0.  0.
          5    1    3    3  501    0  0.57875406221E+01 -0.33526617687E+01 -0.29603135112E+03  0.29614419935E+03  0.47000000000E+01 0. -1.
        -11    1    4    4    0    0  0.90122958738E+01 -0.24194860414E+02 -0.78838202595E+02  0.82958272257E+02  0.00000000000E+00 0.  1.
         12    1    4    4    0    0 -0.69411191719E+02 -0.21718191426E+02 -0.55737484066E+02  0.91631111009E+02  0.00000000000E+00 0. -1.
         -5    1    5    5    0  502 -0.22939131086E+02  0.62257327672E+02 -0.12684770241E+02  0.67713897981E+02  0.47000000000E+01 0.  1.
         13    1    6    6    0    0  0.81545014290E+02  0.20768465696E+01  0.18286409661E+02  0.83596025177E+02  0.00000000000E+00 0. -1.
        -14    1    6    6    0    0 -0.39945279808E+01 -0.15068460633E+02  0.38195806590E+02  0.41254507641E+02  0.00000000000E+00 0.  1.
</event>
<event>
12    1  0.8113184E-002  0.2279417E+03  0.7818608E-02  0.1128820E+00
         21   -1    0    0  503  502  0.00000000000E+00  0.00000000000E+00  0.12441439098E+03  0.12441439098E+03  0.00000000000E+00 0.  1.
         21   -1    0    0  501  503 -0.00000000000E+00 -0.00000000000E+00 -0.71877290241E+03  0.71877290241E+03  0.00000000000E+00 0.  1.
          6    2    1    2  501    0  0.59552086000E+02 -0.13178215668E+03 -0.57186150522E+03  0.61413810889E+03  0.17095919945E+03 0.  0.
         24    2    3    3    0    0  0.30321488814E+02 -0.10913560955E+03 -0.22192106303E+03  0.26221809385E+03  0.81727575332E+02 0.  0.
         -6    2    1    2    0  502 -0.59552086000E+02  0.13178215668E+03 -0.22497006203E+02  0.22904918449E+03  0.17619428442E+03 0.  0.
        -24    2    5    5    0    0 -0.82540228874E+02  0.21930972573E+02 -0.25208358514E+01  0.11495766533E+03  0.76909383467E+02 0.  0.
          5    1    3    3  501    0  0.29230597187E+02 -0.22646547130E+02 -0.34994044219E+03  0.35192001505E+03  0.47000000000E+01 0. -1.
        -13    1    4    4    0    0  0.51334348622E+02 -0.61269177140E+02 -0.17321653334E+03  0.19076974299E+03  0.00000000000E+00 0.  1.
         14    1    4    4    0    0 -0.21012859809E+02 -0.47866432407E+02 -0.48704529687E+02  0.71448350861E+02  0.00000000000E+00 0. -1.
         -5    1    5    5    0  502  0.22988142874E+02  0.10985118410E+03 -0.19976170352E+02  0.11409151916E+03  0.47000000000E+01 0.  1.
         11    1    6    6    0    0 -0.74681850452E+01 -0.25128850511E+02 -0.27093598897E+01  0.26354763268E+02  0.00000000000E+00 0. -1.
        -12    1    6    6    0    0 -0.75072043829E+02  0.47059823085E+02  0.18852403835E+00  0.88602902067E+02  0.00000000000E+00 0.  1.
</event>
<event>
12    1  0.8113184E-002  0.1954700E+03  0.7818608E-02  0.1154465E+00
         21   -1    0    0  503  502  0.00000000000E+00  0.00000000000E+00  0.56447957874E+02  0.56447957874E+02  0.00000000000E+00 0.  1.
         21   -1    0    0  501  503 -0.00000000000E+00 -0.00000000000E+00 -0.13382097336E+04  0.13382097336E+04  0.00000000000E+00 0.  1.
          6    2    1    2  501    0 -0.20709653854E+02 -0.87319412751E+02 -0.11328150001E+04  0.11489064344E+04  0.16930032765E+03 0.  0.
         24    2    3    3    0    0  0.16224303673E+02  0.41255721872E+01 -0.70438463533E+03  0.70924637260E+03  0.81193929402E+02 0.  0.
         -6    2    1    2    0  502  0.20709653854E+02  0.87319412751E+02 -0.14894677557E+03  0.24575125702E+03  0.17365186083E+03 0.  0.
        -24    2    5    5    0    0  0.46476075762E+02  0.13083669904E+02 -0.19909168903E+02  0.94596872539E+02  0.78873222651E+02 0.  0.
          5    1    3    3  501    0 -0.36933957528E+02 -0.91444984938E+02 -0.42843036481E+03  0.43966006184E+03  0.47000000000E+01 0. -1.
        -13    1    4    4    0    0 -0.24216881533E+02 -0.12447542014E+02 -0.47218090180E+03  0.47296532926E+03  0.00000000000E+00 0.  1.
         14    1    4    4    0    0  0.40441185206E+02  0.16573114201E+02 -0.23220373353E+03  0.23628104334E+03  0.00000000000E+00 0. -1.
         -5    1    5    5    0  502 -0.25766421908E+02  0.74235742847E+02 -0.12903760667E+03  0.15115438448E+03  0.47000000000E+01 0.  1.
         11    1    6    6    0    0  0.21628901307E+02 -0.32703120242E+02 -0.16028756033E+02  0.42358286854E+02  0.00000000000E+00 0. -1.
        -12    1    6    6    0    0  0.24847174455E+02  0.45786790146E+02 -0.38804128706E+01  0.52238585684E+02  0.00000000000E+00 0.  1.
</event>
<event>
12    1  0.8113184E-002  0.2125679E+03  0.7818608E-02  0.1139579E+00
         21   -1    0    0  503  502  0.00000000000E+00  0.00000000000E+00  0.10650276963E+03  0.10650276963E+03  0.00000000000E+00 0.  1.
         21   -1    0    0  501  503 -0.00000000000E+00 -0.00000000000E+00 -0.42534913168E+03  0.42534913168E+03  0.00000000000E+00 0.  1.
          6    2    1    2  501    0  0.14831245228E+02  0.12105787686E+03 -0.14422519173E+03  0.25687744528E+03  0.17409807747E+03 0.  0.
         24    2    3    3    0    0  0.71831327013E+02  0.10424970286E+03 -0.78606221200E+02  0.16822383097E+03  0.78054975553E+02 0.  0.
         -6    2    1    2    0  502 -0.14831245228E+02 -0.12105787686E+03 -0.17462117032E+03  0.27497445603E+03  0.17390636262E+03 0.  0.
        -24    2    5    5    0    0 -0.66636745724E+02 -0.30800409876E+02 -0.94657305416E+02  0.14364841170E+03  0.79282656282E+02 0.  0.
          5    1    3    3  501    0 -0.57000081785E+02  0.16808174007E+02 -0.65618970529E+02  0.88653614310E+02  0.47000000000E+01 0. -1.
        -13    1    4    4    0    0  0.61105817527E+02  0.22431762323E+02 -0.24509991336E+02  0.69554615748E+02  0.00000000000E+00 0.  1.
         14    1    4    4    0    0  0.10725509485E+02  0.81817940534E+02 -0.54096229863E+02  0.98669215221E+02  0.00000000000E+00 0. -1.
         -5    1    5    5    0  502  0.51805500497E+02 -0.90257466988E+02 -0.79963864901E+02  0.13132604433E+03  0.47000000000E+01 0.  1.
         11    1    6    6    0    0 -0.78937152369E+01  0.25486053381E+02 -0.24345859139E+02  0.36118838774E+02  0.00000000000E+00 0. -1.
        -12    1    6    6    0    0 -0.58743030487E+02 -0.56286463257E+02 -0.70311446277E+02  0.10752957293E+03  0.00000000000E+00 0.  1.
</event>
<event>
12    1  0.8113184E-002  0.1795363E+03  0.7818608E-02  0.1168919E+00
         21   -1    0    0  501  502  0.00000000000E+00  0.00000000000E+00  0.21537364361E+03  0.21537364361E+03  0.00000000000E+00 0. -1.
         21   -1    0    0  502  503 -0.00000000000E+00 -0.00000000000E+00 -0.22394403835E+03  0.22394403835E+03  0.00000000000E+00 0. -1.
         -6    2    1    2    0  503 -0.33127244442E+02  0.39808466334E+02 -0.13268158688E+03  0.22105899667E+03  0.16905782500E+03 0.  0.
        -24    2    3    3    0    0  0.33866955837E+01  0.30322959993E+02 -0.30197589658E+01  0.85938597523E+02  0.80283074121E+02 0.  0.
          6    2    1    2  501    0  0.33127244442E+02 -0.39808466334E+02  0.12411119214E+03  0.21825868530E+03  0.17190444257E+03 0.  0.
         24    2    5    5    0    0 -0.40509194494E+02 -0.57870963176E+01  0.10011405448E+03  0.13353719231E+03  0.78325426935E+02 0.  0.
          5    1    5    5  501    0  0.73636438936E+02 -0.34021370016E+02  0.23997137663E+02  0.84721492981E+02  0.47000000000E+01 0. -1.
        -11    1    6    6    0    0 -0.10680432949E+01  0.21001929896E+02 -0.17148197768E+01  0.21098871598E+02  0.00000000000E+00 0.  1.
         12    1    6    6    0    0 -0.39441151199E+02 -0.26789026213E+02  0.10182887426E+03  0.11243832072E+03  0.00000000000E+00 0. -1.
         -5    1    3    3    0  503 -0.36513940026E+02  0.94855063412E+01 -0.12966182791E+03  0.13512039914E+03  0.47000000000E+01 0.  1.
         11    1    4    4    0    0  0.21441661615E+02 -0.19975240496E+01 -0.32242997867E+02  0.38773004354E+02  0.00000000000E+00 0. -1.
        -12    1    4    4    0    0 -0.18054966031E+02  0.32320484042E+02  0.29223238901E+02  0.47165593169E+02  0.00000000000E+00 0.  1.
</event>
<event>
12    1  0.8113184E-002  0.2074016E+03  0.7818608E-02  0.1143855E+00
         21   -1    0    0  501  502  0.00000000000E+00  0.00000000000E+00  0.38612634299E+03  0.38612634299E+03  0.00000000000E+00 0. -1.
         21   -1    0    0  502  503 -0.00000000000E+00 -0.00000000000E+00 -0.12203700096E+03  0.12203700096E+03  0.00000000000E+00 0. -1.
         -6    2    1    2    0  503 -0.91312628335E+02 -0.67108591736E+02  0.55365408568E+02  0.21466428107E+03  0.17370626334E+03 0.  0.
        -24    2    3    3    0    0 -0.34499156157E+01 -0.83998302742E+02  0.17213879248E+02  0.11728487969E+03  0.79948787254E+02 0.  0.
          6    2    1    2  501    0  0.91312628335E+02  0.67108591736E+02  0.20872393346E+03  0.29349906288E+03  0.17243682999E+03 0.  0.
         24    2    5    5    0    0  0.88410337467E+02  0.93493499653E+02  0.11020644088E+03  0.19136007423E+03  0.88970760087E+02 0.  0.
          5    1    5    5  501    0  0.29022908682E+01 -0.26384907917E+02  0.98517492581E+02  0.10213898865E+03  0.47000000000E+01 0. -1.
        -11    1    6    6    0    0  0.29111460916E+02  0.82691464186E+01 -0.10602653078E+02  0.32066683512E+02  0.00000000000E+00 0.  1.
         12    1    6    6    0    0  0.59298876551E+02  0.85224353235E+02  0.12080909396E+03  0.15929339072E+03  0.00000000000E+00 0. -1.
         -5    1    3    3    0  503 -0.87862712720E+02  0.16889711006E+02  0.38151529320E+02  0.97379401383E+02  0.47000000000E+01 0.  1.
         13    1    4    4    0    0  0.53736653775E+01 -0.57028472890E+02  0.48493568321E+02  0.75051643341E+02  0.00000000000E+00 0. -1.
        -14    1    4    4    0    0 -0.88235809932E+01 -0.26969829852E+02 -0.31279689073E+02  0.42233236347E+02  0.00000000000E+00 0.  1.
</event>
<event>
12    1  0.8113184E-002  0.2034509E+03  0.7818608E-02  0.1146914E+00
         21   -1    0    0  501  502  0.00000000000E+00  0.00000000000E+00  0.28710964385E+03  0.28710964385E+03  0.00000000000E+00 0.  1.
         21   -1    0    0  502  503 -0.00000000000E+00 -0.00000000000E+00 -0.14674198714E+03  0.14674198714E+03  0.00000000000E+00 0.  1.
         -6    2    1    2    0  503  0.41623750109E+02 -0.99783212700E+02  0.99983717649E+02  0.22669143817E+03  0.17234569398E+03 0.  0.
        -24    2    3    3    0    0 -0.16506692918E+01 -0.14754023527E+01  0.27225621455E+01  0.81712393754E+02  0.81637010156E+02 0.  0.
          6    2    1    2  501    0 -0.41623750109E+02  0.99783212700E+02  0.40383939067E+02  0.20716019282E+03  0.17203272028E+03 0.  0.
         24    2    5    5    0    0 -0.89283867057E+02  0.94200157467E+02  0.20469215977E+02  0.15499369544E+03  0.82211788941E+02 0.  0.
          5    1    5    5  501    0  0.47660116948E+02  0.55830552331E+01  0.19914723090E+02  0.52166497380E+02  0.47000000000E+01 0. -1.
        -11    1    6    6    0    0 -0.20018885047E+02  0.52795514783E+02 -0.25684257573E+02  0.62030663601E+02  0.00000000000E+00 0.  1.
         12    1    6    6    0    0 -0.69264982009E+02  0.41404642684E+02  0.46153473549E+02  0.92963031842E+02  0.00000000000E+00 0. -1.
         -5    1    3    3    0  503  0.43274419401E+02 -0.98307810347E+02  0.97261155503E+02  0.14497904442E+03  0.47000000000E+01 0.  1.
         11    1    4    4    0    0 -0.53720212596E+00  0.24129718519E+02  0.33735158519E+02  0.41480029197E+02  0.00000000000E+00 0. -1.
        -12    1    4    4    0    0 -0.11134671659E+01 -0.25605120871E+02 -0.31012596374E+02  0.40232364556E+02  0.00000000000E+00 0.  1.
</event>
<event>
12    1  0.8113184E-002  0.1762685E+03  0.7818608E-02  0.1171493E+00
         21   -1    0    0  503  502  0.00000000000E+00  0.00000000000E+00  0.17108977389E+04  0.17108977389E+04  0.00000000000E+00 0.  1.
         21   -1    0    0  501  503 -0.00000000000E+00 -0.00000000000E+00 -0.79688993477E+02  0.79688993477E+02  0.00000000000E+00 0.  1.
          6    2    1    2  501    0 -0.58280130210E+02 -0.26548031322E+01  0.28772362844E+02  0.17848470601E+03  0.16620866361E+03 0.  0.
         24    2    3    3    0    0  0.52897314938E+01 -0.17287948082E+02 -0.31217686444E+02  0.89737017244E+02  0.82166501135E+02 0.  0.
         -6    2    1    2    0  502  0.58280130210E+02  0.26548031322E+01  0.16024363826E+04  0.16121020264E+04  0.16633388602E+03 0.  0.
        -24    2    5    5    0    0  0.26962312302E+02 -0.61828825528E+02  0.93282831775E+03  0.93865121557E+03  0.79672229368E+02 0.  0.
          5    1    3    3  501    0 -0.63569861703E+02  0.14633144950E+02  0.59990049288E+02  0.88747688768E+02  0.47000000000E+01 0. -1.
        -13    1    4    4    0    0 -0.31151561738E+02  0.13241073700E+01 -0.37028362394E+02  0.48407361843E+02  0.00000000000E+00 0.  1.
         14    1    4    4    0    0  0.36441293232E+02 -0.18612055452E+02  0.58106759501E+01  0.41329655401E+02  0.00000000000E+00 0. -1.
         -5    1    5    5    0  502  0.31317817907E+02  0.64483628661E+02  0.66960806484E+03  0.67345081081E+03  0.47000000000E+01 0.  1.
         11    1    6    6    0    0  0.68809791018E+01 -0.42973936572E+02  0.17528091603E+03  0.18060317445E+03  0.00000000000E+00 0. -1.
        -12    1    6    6    0    0  0.20081333201E+02 -0.18854888956E+02  0.75754740172E+03  0.75804804111E+03  0.00000000000E+00 0.  1.
</event>
<event>
12    1  0.8113184E-002  0.2176200E+03  0.7818608E-02  0.1135788E+00
         21   -1    0    0  501  502  0.00000000000E+00  0.00000000000E+00  0.91211450448E+02  0.91211450448E+02  0.00000000000E+00 0. -1.
         21   -1    0    0  502  503 -0.00000000000E+00 -0.00000000000E+00 -0.61673958340E+03  0.61673958340E+03  0.00000000000E+00 0.  1.
         -6    2    1    2    0  503 -0.92820727142E+02 -0.97032852700E+02 -0.40427298010E+03  0.45883005014E+03  0.17046205028E+03 0.  0.
        -24    2    3    3    0    0 -0.93995919893E+02 -0.10537066050E+03 -0.21360724081E+03  0.26792061021E+03  0.78836482656E+02 0.  0.
          6    2    1    2  501    0  0.92820727142E+02  0.97032852700E+02 -0.12125515285E+03  0.24912098370E+03  0.17125241761E+03 0.  0.
         24    2    5    5    0    0  0.93437946869E+02  0.11326927070E+03 -0.14394597596E+03  0.22081964658E+03  0.80500277791E+02 0.  0.
          5    1    5    5  501    0 -0.61721972684E+00 -0.16236417997E+02  0.22690823105E+02  0.28301337120E+02  0.47000000000E+01 0. -1.
        -13    1    6    6    0    0  0.10810573448E+03  0.94710126096E+02 -0.12583830275E+03  0.19102915027E+03  0.00000000000E+00 0.  1.
         14    1    6    6    0    0 -0.14667787614E+02  0.18559144601E+02 -0.18107673204E+02  0.29790496315E+02  0.00000000000E+00 0. -1.
         -5    1    3    3    0  503  0.11751927513E+01  0.83378077982E+01 -0.19066573929E+03  0.19090943994E+03  0.47000000000E+01 0.  1.
         13    1    4    4    0    0 -0.22464285235E+02 -0.82088207878E+02 -0.95790773914E+02  0.12813660816E+03  0.00000000000E+00 0. -1.
        -14    1    4    4    0    0 -0.71531634658E+02 -0.23282452620E+02 -0.11781646689E+03  0.13978400205E+03  0.00000000000E+00 0.  1.
</event>
<event>
12    1  0.8113184E-002  0.2071646E+03  0.7818608E-02  0.1143959E+00
         21   -1    0    0  503  502  0.00000000000E+00  0.00000000000E+00  0.10664116227E+03  0.10664116227E+03  0.00000000000E+00 0. -1.
         21   -1    0    0  501  503 -0.00000000000E+00 -0.00000000000E+00 -0.99805008737E+03  0.99805008737E+03  0.00000000000E+00 0.  1.
          6    2    1    2  501    0  0.16344840747E+02  0.11348237439E+03 -0.87310844724E+03  0.89734916776E+03  0.17254496552E+03 0.  0.
         24    2    3    3    0    0  0.37833079338E+02  0.84573829389E+02 -0.83588926824E+03  0.84534142164E+03  0.85482020704E+02 0.  0.
         -6    2    1    2    0  502 -0.16344840747E+02 -0.11348237439E+03 -0.18300477854E+02  0.20734208188E+03  0.17178599568E+03 0.  0.
        -24    2    5    5    0    0  0.96988931643E+01 -0.34307878267E+02 -0.67264684297E+02  0.11056160645E+03  0.80176256008E+02 0.  0.
          5    1    3    3  501    0 -0.21488238591E+02  0.28908544999E+02 -0.37219178995E+02  0.52007746123E+02  0.47000000000E+01 0. -1.
        -11    1    4    4    0    0 -0.15272851299E+02  0.10972162837E+02 -0.38223017571E+03  0.38269250785E+03  0.00000000000E+00 0.  1.
         12    1    4    4    0    0  0.53105930636E+02  0.73601666552E+02 -0.45365909254E+03  0.46264891379E+03  0.00000000000E+00 0. -1.
         -5    1    5    5    0  502 -0.26043733911E+02 -0.79174496121E+02  0.48964206442E+02  0.96780475431E+02  0.47000000000E+01 0.  1.
         13    1    6    6    0    0  0.26720596575E+02 -0.68150497895E+01  0.79429969482E+01  0.28697149432E+02  0.00000000000E+00 0. -1.
        -14    1    6    6    0    0 -0.17021703411E+02 -0.27492828477E+02 -0.75207681245E+02  0.81864457018E+02  0.00000000000E+00 0.  1.
</event>
<event>
12    1  0.8113184E-002  0.2252494E+03  0.7818608E-02  0.1130954E+00
         21   -1    0    0  503  502  0.00000000000E+00  0.00000000000E+00  0.21058684230E+03  0.21058684230E+03  0.00000000000E+00 0.  1.
         21   -1    0    0  501  503 -0.00000000000E+00 -0.00000000000E+00 -0.32110417093E+03  0.32110417093E+03  0.00000000000E+00 0.  1.
          6    2    1    2  501    0  0.76693602306E+02 -0.11659033550E+03 -0.19200956699E+03  0.29215341897E+03  0.17032536932E+03 0.  0.
         24    2    3    3    0    0  0.18100848176E+02 -0.63258845402E+02 -0.18733620130E+03  0.21264688452E+03  0.76121764004E+02 0.  0.
         -6    2    1    2    0  502 -0.76693602306E+02  0.11659033550E+03  0.81492238358E+02  0.23953759426E+03  0.17681080053E+03 0.  0.
        -24    2    5    5    0    0 -0.59971929730E+02  0.10000349902E+03 -0.12983156438E+02  0.14205719777E+03  0.80089655476E+02 0.  0.
          5    1    3    3  501    0  0.58592754130E+02 -0.53331490102E+02 -0.46733656950E+01  0.79506534448E+02  0.47000000000E+01 0. -1.
        -11    1    4    4    0    0  0.44837407864E+02 -0.57884748755E+02 -0.14113772382E+03  0.15899966782E+03  0.00000000000E+00 0.  1.
         12    1    4    4    0    0 -0.26736559688E+02 -0.53740966476E+01 -0.46198477480E+02  0.53647216705E+02  0.00000000000E+00 0. -1.
         -5    1    5    5    0  502 -0.16721672576E+02  0.16586836481E+02  0.94475394796E+02  0.97480396491E+02  0.47000000000E+01 0.  1.
         13    1    6    6    0    0  0.79763370670E+01 -0.38311912258E+01 -0.15604031472E+02  0.17938388373E+02  0.00000000000E+00 0. -1.
        -14    1    6    6    0    0 -0.67948266797E+02  0.10383469025E+03  0.26208750345E+01  0.12411880940E+03  0.00000000000E+00 0.  1.
</event>
<event>
12    1  0.8113184E-002  0.1867840E+03  0.7818608E-02  0.1161665E+00
         21   -1    0    0  501  502  0.00000000000E+00  0.00000000000E+00  0.35942617552E+02  0.35942617552E+02  0.00000000000E+00 0. -1.
         21   -1    0    0  502  503 -0.00000000000E+00 -0.00000000000E+00 -0.10119620953E+04  0.10119620953E+04  0.00000000000E+00 0. -1.
         -6    2    1    2    0  503 -0.64493836580E+02 -0.22706395477E+02 -0.59989587873E+03  0.62795562854E+03  0.17256352672E+03 0.  0.
        -24    2    3    3    0    0 -0.88466360421E+02 -0.60396671224E+02 -0.51314677466E+03  0.53026870085E+03  0.79945155824E+02 0.  0.
          6    2    1    2  501    0  0.64493836580E+02  0.22706395477E+02 -0.37612359901E+03  0.41994908430E+03  0.17381955102E+03 0.  0.
         24    2    5    5    0    0  0.24210201451E+02  0.71389977566E+02 -0.13926278582E+03  0.17475936745E+03  0.73919214315E+02 0.  0.
          5    1    5    5  501    0  0.40283635129E+02 -0.48683582089E+02 -0.23686081319E+03  0.24518971685E+03  0.47000000000E+01 0. -1.
        -11    1    6    6    0    0 -0.20185917022E+02 -0.43232040531E+00 -0.36929015244E+02  0.42088125568E+02  0.00000000000E+00 0.  1.
         12    1    6    6    0    0  0.44396118473E+02  0.71822297971E+02 -0.10233377058E+03  0.13267124188E+03  0.00000000000E+00 0. -1.
         -5    1    3    3    0  503  0.23972523841E+02  0.37690275747E+02 -0.86749104070E+02  0.97686927693E+02  0.47000000000E+01 0.  1.
         13    1    4    4    0    0 -0.89246812165E+02 -0.20036295268E+02 -0.39367093567E+03  0.40415745966E+03  0.00000000000E+00 0. -1.
        -14    1    4    4    0    0  0.78045174453E+00 -0.40360375956E+02 -0.11947583899E+03  0.12611124119E+03  0.00000000000E+00 0.  1.
</event>
<event>
12    1  0.8113184E-002  0.2447375E+03  0.7818608E-02  0.1116865E+00
         21   -1    0    0  501  502  0.00000000000E+00  0.00000000000E+00  0.32247190949E+03  0.32247190949E+03  0.00000000000E+00 0.  1.
         21   -1    0    0  502  503 -0.00000000000E+00 -0.00000000000E+00 -0.24730580497E+03  0.24730580497E+03  0.00000000000E+00 0.  1.
         -6    2    1    2    0  503 -0.52149234383E+01 -0.17394683925E+03 -0.10563731332E+03  0.26549772040E+03  0.17042622820E+03 0.  0.
        -24    2    3    3    0    0  0.44297003085E+02 -0.43369224224E+02 -0.74576354794E+02  0.12235856587E+03  0.74611472684E+02 0.  0.
          6    2    1    2  501    0  0.52149234383E+01  0.17394683925E+03  0.18080341784E+03  0.30427999407E+03  0.17208062230E+03 0.  0.
         24    2    5    5    0    0 -0.35782529310E+02  0.24099730286E+02  0.60662729464E+02  0.10783452529E+03  0.78020072387E+02 0.  0.
          5    1    5    5  501    0  0.40997452748E+02  0.14984710897E+03  0.12014068838E+03  0.19644546877E+03  0.47000000000E+01 0. -1.
        -11    1    6    6    0    0  0.20948190235E+02  0.13897453454E+02  0.38706397202E+02  0.46153559678E+02  0.00000000000E+00 0.  1.
         12    1    6    6    0    0 -0.56730719545E+02  0.10202276833E+02  0.21956332262E+02  0.61680965614E+02  0.00000000000E+00 0. -1.
         -5    1    3    3    0  503 -0.49511926523E+02 -0.13057761503E+03 -0.31060958529E+02  0.14313915453E+03  0.47000000000E+01 0.  1.
         11    1    4    4    0    0  0.15303110190E+02  0.13419821413E+02 -0.50070127685E+02  0.54049000681E+02  0.00000000000E+00 0. -1.
        -12    1    4    4    0    0  0.28993892894E+02 -0.56789045637E+02 -0.24506227109E+02  0.68309565192E+02  0.00000000000E+00 0.  1.
</event>
<event>
12    1  0.8113184E-002  0.2419547E+03  0.7818608E-02  0.1118653E+00
         21   -1    0    0  503  502  0.00000000000E+00  0.00000000000E+00  0.26132854934E+03  0.26132854934E+03  0.00000000000E+00 0. -1.
         21   -1    0    0  501  503 -0.00000000000E+00 -0.00000000000E+00 -0.22430929887E+03  0.22430929887E+03  0.00000000000E+00 0.  1.
          6    2    1    2  501    0  0.16902531127E+03 -0.19987682095E+02  0.36022066130E+02  0.24462149577E+03  0.17196808906E+03 0.  0.
         24    2    3    3    0    0  0.14319814536E+03 -0.56792781272E+02 -0.18919907193E+02  0.17347117421E+03  0.77480039726E+02 0.  0.
         -6    2    1    2    0  502 -0.16902531127E+03  0.19987682095E+02  0.99718434679E+00  0.24101635244E+03  0.17064238770E+03 0.  0.
        -24    2    5    5    0    0 -0.12603782814E+03  0.37773273784E+02 -0.59541698448E+02  0.16452257944E+03  0.78804257220E+02 0.  0.
          5    1    3    3  501    0  0.25827165916E+02  0.36805099177E+02  0.54941973323E+02  0.71150321554E+02  0.47000000000E+01 0. -1.
        -11    1    4    4    0    0  0.47452587249E+02 -0.24200436863E+02 -0.44201591932E+02  0.69218421756E+02  0.00000000000E+00 0.  1.
         12    1    4    4    0    0  0.95745558109E+02 -0.32592344410E+02  0.25281684739E+02  0.10425275246E+03  0.00000000000E+00 0. -1.
         -5    1    5    5    0  502 -0.42987483133E+02 -0.17785591689E+02  0.60538882794E+02  0.76493773000E+02  0.47000000000E+01 0.  1.
         11    1    6    6    0    0 -0.15901777064E+02  0.14066408448E+01  0.18720677599E+02  0.24603026685E+02  0.00000000000E+00 0. -1.
        -12    1    6    6    0    0 -0.11013605108E+03  0.36366632939E+02 -0.78262376047E+02  0.13991955275E+03  0.00000000000E+00 0.  1.
</event>
<event>
12    1  0.8113184E-002  0.2284542E+03  0.7818608E-02  0.1127930E+00
         21   -1    0    0  501  502  0.00000000000E+00  0.00000000000E+00  0.13110885492E+04  0.13110885492E+04  0.00000000000E+00 0.  1.
         21   -1    0    0  502  503 -0.00000000000E+00 -0.00000000000E+00 -0.47802812458E+02  0.47802812458E+02  0.00000000000E+00 0. -1.
         -6    2    1    2    0  503 -0.14738965551E+03 -0.24691149502E+02  0.91157559440E+03  0.93949733485E+03  0.17132371251E+03 0.  0.
        -24    2    3    3    0    0 -0.73288710990E+02 -0.14269172533E+02  0.78414040696E+03  0.79164137596E+03  0.79025602505E+02 0.  0.
          6    2    1    2  501    0  0.14738965551E+03  0.24691149502E+02  0.35171014231E+03  0.41939402677E+03  0.17279456610E+03 0.  0.
         24    2    5    5    0    0  0.47573681721E+02  0.29901844069E+02  0.71824564021E+02  0.12215942768E+03  0.81282115524E+02 0.  0.
          5    1    5    5  501    0  0.99815973793E+02 -0.52106945670E+01  0.27988557829E+03  0.29723459909E+03  0.47000000000E+01 0. -1.
        -13    1    6    6    0    0 -0.23034898445E+02  0.11674235618E+02  0.16842810127E+02  0.30831389469E+02  0.00000000000E+00 0.  1.
         14    1    6    6    0    0  0.70608580166E+02  0.18227608451E+02  0.54981753894E+02  0.91328038215E+02  0.00000000000E+00 0. -1.
         -5    1    3    3    0  503 -0.74100944524E+02 -0.10421976969E+02  0.12743518743E+03  0.14785595889E+03  0.47000000000E+01 0.  1.
         11    1    4    4    0    0  0.26196225969E+01 -0.98659366530E+01  0.11949292422E+02  0.15715747452E+02  0.00000000000E+00 0. -1.
        -12    1    4    4    0    0 -0.75908333587E+02 -0.44032358802E+01  0.77219111454E+03  0.77592562850E+03  0.00000000000E+00 0.  1.
</event>
<event>
12    1  0.8113184E-002  0.2034839E+03  0.7818608E-02  0.1147292E+00
         21   -1    0    0  503  502  0.00000000000E+00  0.00000000000E+00  0.11574103940E+03  0.11574103940E+03  0.00000000000E+00 0.  1.
         21   -1    0    0  501  503 -0.00000000000E+00 -0.00000000000E+00 -0.45769873480E+03  0.45769873480E+03  0.00000000000E+00 0. -1.
          6    2    1    2  501    0 -0.37123378860E+02 -0.69425814550E+02 -0.33689112962E+02  0.20406838122E+03  0.18523190573E+03 0.  0.
         24    2    3    3    0    0 -0.69012998857E+02 -0.10103231956E+03  0.28410176781E+01  0.14599550057E+03  0.79600824103E+02 0.  0.
         -6    2    1    2    0  502  0.37123378860E+02  0.69425814550E+02 -0.30826858244E+03  0.36937139298E+03  0.18763693146E+03 0.  0.
        -24    2    5    5    0    0  0.50533344122E+02 -0.26903829528E+02 -0.10194238390E+03  0.14122271843E+03  0.79209668935E+02 0.  0.
          5    1    3    3  501    0  0.31889619997E+02  0.31606505013E+02 -0.36530130640E+02  0.58072880652E+02  0.47000000000E+01 0. -1.
        -13    1    4    4    0    0 -0.75987103473E+02 -0.71385909265E+02  0.26331759531E+02  0.10753301584E+03  0.00000000000E+00 0.  1.
         14    1    4    4    0    0  0.69741046165E+01 -0.29646410298E+02 -0.23490741853E+02  0.38462484729E+02  0.00000000000E+00 0. -1.
         -5    1    5    5    0  502 -0.13409965263E+02  0.96329644078E+02 -0.20632619853E+03  0.22814867455E+03  0.47000000000E+01 0.  1.
         13    1    6    6    0    0  0.26353150131E+02 -0.11344571852E+02 -0.10807821913E+03  0.11182168520E+03  0.00000000000E+00 0. -1.
        -14    1    6    6    0    0  0.24180193991E+02 -0.15559257676E+02  0.61358352210E+01  0.29401033226E+02  0.00000000000E+00 0.  1.
</event>
<event>
12    1  0.8113184E-002  0.1783187E+03  0.7818608E-02  0.1169545E+00
         21   -1    0    0  501  502  0.00000000000E+00  0.00000000000E+00  0.22821652233E+03  0.22821652233E+03  0.00000000000E+00 0. -1.
         21   -1    0    0  502  503 -0.00000000000E+00 -0.00000000000E+00 -0.14210455648E+03  0.14210455648E+03  0.00000000000E+00 0. -1.
         -6    2    1    2    0  503  0.45299350256E+02  0.64122803599E+01  0.15721072325E+02  0.17901034848E+03  0.17234965702E+03 0.  0.
        -24    2    3    3    0    0 -0.35420221544E+01  0.63591012148E+02 -0.27712890776E+01  0.10142849198E+03  0.78890406226E+02 0.  0.
          6    2    1    2  501    0 -0.45299350256E+02 -0.64122803599E+01  0.70390893528E+02  0.19131073034E+03  0.17190628022E+03 0.  0.
         24    2    5    5    0    0 -0.33613245552E+02  0.62291655248E+02  0.31780004263E+02  0.11150041408E+03  0.80076670008E+02 0.  0.
          5    1    5    5  501    0 -0.11686104704E+02 -0.68703935608E+02  0.38610889265E+02  0.79810316257E+02  0.47000000000E+01 0. -1.
        -11    1    6    6    0    0  0.10240447801E+02  0.61856431892E+02  0.14431110652E+02  0.64337717493E+02  0.00000000000E+00 0.  1.
         12    1    6    6    0    0 -0.43853693353E+02  0.43522335633E+00  0.17348893611E+02  0.47162696590E+02  0.00000000000E+00 0. -1.
         -5    1    3    3    0  503  0.48841372410E+02 -0.57178731788E+02  0.18492361403E+02  0.77581856500E+02  0.47000000000E+01 0.  1.
         11    1    4    4    0    0  0.24789996408E+02  0.62365581636E+02 -0.17663574374E+02  0.69397489539E+02  0.00000000000E+00 0. -1.
        -12    1    4    4    0    0 -0.28332018562E+02  0.12254305118E+01  0.14892285296E+02  0.32031002437E+02  0.00000000000E+00 0.  1.
</event>
<event>
12    1  0.8113184E-002  0.1804974E+03  0.7818608E-02  0.1167499E+00
         21   -1    0    0  503  502  0.00000000000E+00  0.00000000000E+00  0.17223186405E+03  0.17223186405E+03  0.00000000000E+00 0. -1.
         21   -1    0    0  501  503 -0.00000000000E+00 -0.00000000000E+00 -0.19103788967E+03  0.19103788967E+03  0.00000000000E+00 0. -1.
          6    2    1    2  501    0 -0.52819672555E+02  0.18919671795E+02 -0.30778997673E+02  0.18310290515E+03  0.17155598324E+03 0.  0.
         24    2    3    3    0    0 -0.71649478141E+02 -0.30881552014E+02 -0.55474898715E+02  0.12422420782E+03  0.79163573993E+02 0.  0.
         -6    2    1    2    0  502  0.52819672555E+02 -0.18919671795E+02  0.11972972048E+02  0.18016684857E+03  0.17078896180E+03 0.  0.
        -24    2    5    5    0    0  0.43434500223E+02  0.51254178220E+02  0.27842183707E+02  0.10745940353E+03  0.79112512403E+02 0.  0.
          5    1    3    3  501    0  0.18829805585E+02  0.49801223809E+02  0.24695901042E+02  0.58878697332E+02  0.47000000000E+01 0. -1.
        -13    1    4    4    0    0 -0.16427387402E+02 -0.14534571314E+02  0.19729133521E+02  0.29501720791E+02  0.00000000000E+00 0.  1.
         14    1    4    4    0    0 -0.55222090738E+02 -0.16346980701E+02 -0.75204032236E+02  0.94722487025E+02  0.00000000000E+00 0. -1.
         -5    1    5    5    0  502  0.93851723323E+01 -0.70173850015E+02 -0.15869211659E+02  0.72707445040E+02  0.47000000000E+01 0.  1.
         11    1    6    6    0    0  0.20287843506E+02  0.20387017146E+02  0.53767203408E+02  0.60976546512E+02  0.00000000000E+00 0. -1.
        -12    1    6    6    0    0  0.23146656718E+02  0.30867161074E+02 -0.25925019701E+02  0.46482857017E+02  0.00000000000E+00 0.  1.
</event>
<event>
12    1  0.8113184E-002  0.3363161E+03  0.7818608E-02  0.1068827E+00
         21   -1    0    0  503  502  0.00000000000E+00  0.00000000000E+00  0.36260445970E+03  0.36260445970E+03  0.00000000000E+00 0.  1.
         21   -1    0    0  501  503 -0.00000000000E+00 -0.00000000000E+00 -0.31039703904E+03  0.31039703904E+03  0.00000000000E+00 0.  1.
          6    2    1    2  501    0 -0.21304422343E+03 -0.18728478066E+03 -0.30178438353E+01  0.33218142340E+03  0.17283506725E+03 0.  0.
         24    2    3    3    0    0 -0.10950088831E+03 -0.19283424751E+02  0.36290964959E+00  0.13474992306E+03  0.76125653037E+02 0.  0.
         -6    2    1    2    0  502  0.21304422343E+03  0.18728478066E+03  0.55225264488E+02  0.34082007533E+03  0.18067945016E+03 0.  0.
        -24    2    5    5    0    0  0.20175285863E+03  0.14438472332E+03  0.99286317951E+02  0.27811938738E+03  0.77080843318E+02 0.  0.
          5    1    3    3  501    0 -0.10354333512E+03 -0.16800135591E+03 -0.33807534849E+01  0.19743150035E+03  0.47000000000E+01 0. -1.
        -11    1    4    4    0    0 -0.11786273051E+03 -0.12039953430E+02 -0.10882725760E+02  0.11897486054E+03  0.00000000000E+00 0.  1.
         12    1    4    4    0    0  0.83618421958E+01 -0.72434713205E+01  0.11245635410E+02  0.15775062518E+02  0.00000000000E+00 0. -1.
         -5    1    5    5    0  502  0.11291364799E+02  0.42900057333E+02 -0.44061053462E+02  0.62700687958E+02  0.47000000000E+01 0.  1.
         13    1    6    6    0    0  0.10678637491E+03  0.10902592841E+03  0.87981210491E+02  0.17615526201E+03  0.00000000000E+00 0. -1.
        -14    1    6    6    0    0  0.94966483721E+02  0.35358794912E+02  0.11305107460E+02  0.10196412537E+03  0.00000000000E+00 0.  1.
</event>
<event>
12    1  0.8113184E-002  0.1864698E+03  0.7818608E-02  0.1162330E+00
         21   -1    0    0  503  502  0.00000000000E+00  0.00000000000E+00  0.11952970776E+03  0.11952970776E+03  0.00000000000E+00 0.  1.
         21   -1    0    0  501  503 -0.00000000000E+00 -0.00000000000E+00 -0.28925162347E+03  0.28925162347E+03  0.00000000000E+00 0. -1.
          6    2    1    2  501    0  0.55946304053E+02  0.27222449458E+02 -0.65885557186E+02  0.19776728553E+03  0.17578379301E+03 0.  0.
         24    2    3    3    0    0  0.38224221998E+02  0.77312128182E+02 -0.79965277526E+02  0.14260047819E+03  0.80636185785E+02 0.  0.
         -6    2    1    2    0  502 -0.55946304053E+02 -0.27222449458E+02 -0.10383635852E+03  0.21101404570E+03  0.17284064174E+03 0.  0.
        -24    2    5    5    0    0 -0.94838045008E+02 -0.17381893206E+02 -0.33051668515E+02  0.12951578558E+03  0.79909579723E+02 0.  0.
          5    1    3    3  501    0  0.17722082055E+02 -0.50089678724E+02  0.14079720340E+02  0.55166807338E+02  0.47000000000E+01 0. -1.
        -11    1    4    4    0    0  0.20877194596E+02  0.43857169033E+02  0.58031624643E+01  0.48918148211E+02  0.00000000000E+00 0.  1.
         12    1    4    4    0    0  0.17347027402E+02  0.33454959149E+02 -0.85768439991E+02  0.93682329976E+02  0.00000000000E+00 0. -1.
         -5    1    5    5    0  502  0.38891740955E+02 -0.98405562523E+01 -0.70784690007E+02  0.81498260112E+02  0.47000000000E+01 0.  1.
         11    1    6    6    0    0 -0.56909459548E+02  0.17490297032E+02 -0.47322453717E+02  0.76052690301E+02  0.00000000000E+00 0. -1.
        -12    1    6    6    0    0 -0.37928585461E+02 -0.34872190238E+02  0.14270785202E+02  0.53463095284E+02  0.00000000000E+00 0.  1.
</event>
<event>
12    1  0.8113184E-002  0.1877970E+03  0.7818608E-02  0.1160732E+00
         21   -1    0    0  501  502  0.00000000000E+00  0.00000000000E+00  0.25010808537E+03  0.25010808537E+03  0.00000000000E+00 0.  1.
         21   -1    0    0  502  503 -0.00000000000E+00 -0.00000000000E+00 -0.14707884903E+03  0.14707884903E+03  0.00000000000E+00 0.  1.
         -6    2    1    2    0  503 -0.71423937143E+02 -0.29163170254E+02  0.94520102387E+02  0.20919722836E+03  0.16993399101E+03 0.  0.
        -24    2    3    3    0    0 -0.34023828819E+02 -0.26139836912E+02 -0.16243095084E+02  0.92156703066E+02  0.79925639070E+02 0.  0.
          6    2    1    2  501    0  0.71423937143E+02  0.29163170254E+02  0.85091339502E+01  0.18798970603E+03  0.17121873413E+03 0.  0.
         24    2    5    5    0    0  0.18788825985E+02  0.22739858645E+01 -0.49761618541E+02  0.10485695822E+03  0.90335884414E+02 0.  0.
          5    1    5    5  501    0  0.52635111159E+02  0.26889184390E+02  0.58270752491E+02  0.83132747818E+02  0.47000000000E+01 0. -1.
        -11    1    6    6    0    0  0.11338004946E+02 -0.92917725169E+01 -0.74834893547E+02  0.76257122191E+02  0.00000000000E+00 0.  1.
         12    1    6    6    0    0  0.74508210390E+01  0.11565758381E+02  0.25073275007E+02  0.28599836025E+02  0.00000000000E+00 0. -1.
         -5    1    3    3    0  503 -0.37400108324E+02 -0.30233333422E+01  0.11076319747E+03  0.11704052529E+03  0.47000000000E+01 0.  1.
         13    1    4    4    0    0  0.10098743873E+01 -0.40067419951E+02  0.15399644220E+02  0.42936779454E+02  0.00000000000E+00 0. -1.
        -14    1    4    4    0    0 -0.35033703206E+02  0.13927583039E+02 -0.31642739304E+02  0.49219923611E+02  0.00000000000E+00 0.  1.
</event>
<event>
12    1  0.8113184E-002  0.1939020E+03  0.7818608E-02  0.1157186E+00
         21   -1    0    0  503  502  0.00000000000E+00  0.00000000000E+00  0.10832051756E+04  0.10832051756E+04  0.00000000000E+00 0.  1.
         21   -1    0    0  501  503 -0.00000000000E+00 -0.00000000000E+00 -0.40372394372E+02  0.40372394372E+02  0.00000000000E+00 0.  1.
          6    2    1    2  501    0  0.56926454945E+02 -0.35512034747E+02  0.27026015850E+03  0.32704356315E+03  0.17150863838E+03 0.  0.
         24    2    3    3    0    0  0.11075351991E+03 -0.30146230360E+02  0.20859974424E+03  0.24488371002E+03  0.57262909100E+02 0.  0.
         -6    2    1    2    0  502 -0.56926454945E+02  0.35512034747E+02  0.77257262269E+03  0.79653400678E+03  0.18192372235E+03 0.  0.
        -24    2    5    5    0    0  0.33223033062E+02 -0.14196068552E+02  0.42424645604E+03  0.43328335765E+03  0.80275240702E+02 0.  0.
          5    1    3    3  501    0 -0.53827064966E+02 -0.53658043868E+01  0.61660414265E+02  0.82159853133E+02  0.47000000000E+01 0. -1.
        -11    1    4    4    0    0  0.73962563358E+02 -0.13402928513E+02  0.78652747954E+02  0.10879500922E+03  0.00000000000E+00 0.  1.
         12    1    4    4    0    0  0.36790956553E+02 -0.16743301847E+02  0.12994699628E+03  0.13608870079E+03  0.00000000000E+00 0. -1.
         -5    1    5    5    0  502 -0.90149488007E+02  0.49708103298E+02  0.34832616665E+03  0.36325064913E+03  0.47000000000E+01 0.  1.
         11    1    6    6    0    0  0.49946910055E+02 -0.12174533754E+02  0.15087096320E+03  0.15938933663E+03  0.00000000000E+00 0. -1.
        -12    1    6    6    0    0 -0.16723876993E+02 -0.20215347971E+01  0.27337549284E+03  0.27389402102E+03  0.00000000000E+00 0.  1.
</event>
<event>
12    1  0.8113184E-002  0.2113954E+03  0.7818608E-02  0.1143427E+00
         21   -1    0    0  501  502  0.00000000000E+00  0.00000000000E+00  0.35840820552E+02  0.35840820552E+02  0.00000000000E+00 0.  1.
         21   -1    0    0  502  503 -0.00000000000E+00 -0.00000000000E+00 -0.12038315784E+04  0.12038315784E+04  0.00000000000E+00 0. -1.
         -6    2    1    2    0  503 -0.26876436189E+02  0.11659865797E+03 -0.67851028758E+03  0.70649404145E+03  0.15633307518E+03 0.  0.
        -24    2    3    3    0    0  0.17631767597E+02  0.16282914727E+02 -0.37337584970E+03  0.38218964166E+03  0.77996054456E+02 0.  0.
          6    2    1    2  501    0  0.26876436189E+02 -0.11659865797E+03 -0.48948047029E+03  0.53317835752E+03  0.17427116879E+03 0.  0.
         24    2    5    5    0    0 -0.44652963357E+02 -0.88748301852E+02 -0.37516602251E+03  0.39540324980E+03  0.75657367723E+02 0.  0.
          5    1    5    5  501    0  0.71529399547E+02 -0.27850356114E+02 -0.11431444778E+03  0.13777510772E+03  0.47000000000E+01 0. -1.
        -11    1    6    6    0    0  0.54596020994E+01 -0.22914698805E+02 -0.20539652588E+02  0.31253287904E+02  0.00000000000E+00 0.  1.
         12    1    6    6    0    0 -0.50112565457E+02 -0.65833603048E+02 -0.35462636992E+03  0.36414996190E+03  0.00000000000E+00 0. -1.
         -5    1    3    3    0  503 -0.44508203787E+02  0.10031574324E+03 -0.30513443788E+03  0.32430439980E+03  0.47000000000E+01 0.  1.
         13    1    4    4    0    0  0.40321084280E+02  0.32171182035E+02 -0.28306185501E+03  0.28772345847E+03  0.00000000000E+00 0. -1.
        -14    1    4    4    0    0 -0.22689316682E+02 -0.15888267308E+02 -0.90313994688E+02  0.94466183188E+02  0.00000000000E+00 0.  1.
</event>
<event>
12    1  0.8113184E-002  0.2072447E+03  0.7818608E-02  0.1143879E+00
         21   -1    0    0  501  502  0.00000000000E+00  0.00000000000E+00  0.16470072535E+03  0.16470072535E+03  0.00000000000E+00 0.  1.
         21   -1    0    0  502  503 -0.00000000000E+00 -0.00000000000E+00 -0.26629079252E+03  0.26629079252E+03  0.00000000000E+00 0.  1.
         -6    2    1    2    0  503  0.10839723973E+03  0.35683815839E+02 -0.83651541791E+02  0.22297187568E+03  0.17232405696E+03 0.  0.
        -24    2    3    3    0    0  0.11063432918E+03  0.34327014162E+02 -0.14043011049E+01  0.14054891723E+03  0.79584718242E+02 0.  0.
          6    2    1    2  501    0 -0.10839723973E+03 -0.35683815839E+02 -0.17938525380E+02  0.20801964219E+03  0.17299446393E+03 0.  0.
         24    2    5    5    0    0 -0.57355630205E+02 -0.87613800448E+02 -0.20174618942E+02  0.13501923590E+03  0.82809011994E+02 0.  0.
          5    1    5    5  501    0 -0.51041609526E+02  0.51929984609E+02  0.22360935620E+01  0.73000406293E+02  0.47000000000E+01 0. -1.
        -13    1    6    6    0    0 -0.61558243112E+02 -0.22866605268E+02  0.39724948259E+01  0.65788142144E+02  0.00000000000E+00 0.  1.
         14    1    6    6    0    0  0.42026129072E+01 -0.64747195179E+02 -0.24147113767E+02  0.69231093752E+02  0.00000000000E+00 0. -1.
         -5    1    3    3    0  503 -0.22370894499E+01  0.13568016765E+01 -0.82247240686E+02  0.82422958455E+02  0.47000000000E+01 0.  1.
         13    1    4    4    0    0  0.44433243072E+02  0.26299767269E+02 -0.38345487406E+02  0.64314595954E+02  0.00000000000E+00 0. -1.
        -14    1    4    4    0    0  0.66201086109E+02  0.80272468928E+01  0.36941186301E+02  0.76234321273E+02  0.00000000000E+00 0.  1.
</event>
<event>
12    1  0.8113184E-002  0.4701486E+03  0.7818608E-02  0.1021996E+00
         21   -1    0    0  501  502  0.00000000000E+00  0.00000000000E+00  0.46696201030E+03  0.46696201030E+03  0.00000000000E+00 0. -1.
         21   -1    0    0  502  503 -0.00000000000E+00 -0.00000000000E+00 -0.47769239257E+03  0.47769239257E+03  0.00000000000E+00 0. -1.
         -6    2    1    2    0  503 -0.23791414053E+03  0.36578203755E+03 -0.58354643957E+02  0.47375622764E+03  0.17504302757E+03 0.  0.
        -24    2    3    3    0    0 -0.15316520412E+03  0.29384541872E+03 -0.99200289173E+02  0.35523316624E+03  0.80902380495E+02 0.  0.
          6    2    1    2  501    0  0.23791414053E+03 -0.36578203755E+03  0.47624261684E+02  0.47089817523E+03  0.17052091918E+03 0.  0.
         24    2    5    5    0    0  0.23231011336E+03 -0.26463636432E+03  0.67647459360E+02  0.36753052662E+03  0.80635694023E+02 0.  0.
          5    1    5    5  501    0  0.56040271643E+01 -0.10114567323E+03 -0.20023197676E+02  0.10336764861E+03  0.47000000000E+01 0. -1.
        -11    1    6    6    0    0  0.10948949445E+02 -0.25165254674E+02 -0.14772581959E+02  0.31167269924E+02  0.00000000000E+00 0.  1.
         12    1    6    6    0    0  0.22136116392E+03 -0.23947110965E+03  0.82420041319E+02  0.33636325670E+03  0.00000000000E+00 0. -1.
         -5    1    3    3    0  503 -0.84748936401E+02  0.71936618833E+02  0.40845645217E+02  0.11852306140E+03  0.47000000000E+01 0.  1.
         11    1    4    4    0    0 -0.46730194185E+02  0.33508540296E+02 -0.32979874156E+02  0.66288803132E+02  0.00000000000E+00 0. -1.
        -12    1    4    4    0    0 -0.10643500994E+03  0.26033687842E+03 -0.66220415017E+02  0.28894436311E+03  0.00000000000E+00 0.  1.
</event>
<event>
12    1  0.8113184E-002  0.2309266E+03  0.7818608E-02  0.1126094E+00
         21   -1    0    0  501  502  0.00000000000E+00  0.00000000000E+00  0.24383174294E+02  0.24383174294E+02  0.00000000000E+00 0. -1.
         21   -1    0    0  502  503 -0.00000000000E+00 -0.00000000000E+00 -0.21940098216E+04  0.21940098216E+04  0.00000000000E+00 0. -1.
         -6    2    1    2    0  503  0.70303347480E+02  0.13601077846E+03 -0.11675588696E+04  0.11900608916E+04  0.17207474887E+03 0.  0.
        -24    2    3    3    0    0  0.91021503025E+02  0.13600765262E+03 -0.77544212723E+03  0.79736906379E+03  0.87772066293E+02 0.  0.
          6    2    1    2  501    0 -0.70303347480E+02 -0.13601077846E+03 -0.10020677777E+04  0.10283321043E+04  0.17287450099E+03 0.  0.
         24    2    5    5    0    0  0.14142416333E+02 -0.10622500861E+03 -0.45734684439E+03  0.47628023690E+03  0.78695410222E+02 0.  0.
          5    1    5    5  501    0 -0.84445763813E+02 -0.29785769858E+02 -0.54472093335E+03  0.55205186743E+03  0.47000000000E+01 0. -1.
        -11    1    6    6    0    0  0.23481487532E+02 -0.20120932337E+02 -0.24509536385E+03  0.24703839693E+03  0.00000000000E+00 0.  1.
         12    1    6    6    0    0 -0.93390711996E+01 -0.86104076269E+02 -0.21225148054E+03  0.22924183997E+03  0.00000000000E+00 0. -1.
         -5    1    3    3    0  503 -0.20718155545E+02  0.31258466798E-02 -0.39211674238E+03  0.39269182782E+03  0.47000000000E+01 0.  1.
         11    1    4    4    0    0  0.55802507558E+01  0.81628427053E+02 -0.28143321301E+03  0.29308529934E+03  0.00000000000E+00 0. -1.
        -12    1    4    4    0    0  0.85441252269E+02  0.54379225564E+02 -0.49400891422E+03  0.50428376445E+03  0.00000000000E+00 0.  1.
</event>
<event>
12    1  0.8113184E-002  0.2941419E+03  0.7818608E-02  0.1088496E+00
         21   -1    0    0  503  502  0.00000000000E+00  0.00000000000E+00  0.14462255523E+03  0.14462255523E+03  0.00000000000E+00 0.  1.
         21   -1    0    0  501  503 -0.00000000000E+00 -0.00000000000E+00 -0.69940145127E+03  0.69940145127E+03  0.00000000000E+00 0. -1.
          6    2    1    2  501    0 -0.10708933727E+02 -0.23547455342E+03 -0.44056281260E+03  0.52848512979E+03  0.17215688773E+03 0.  0.
         24    2    3    3    0    0  0.18307332187E+02 -0.17117296248E+03 -0.19319621686E+03  0.27121297627E+03  0.81217970886E+02 0.  0.
         -6    2    1    2    0  502  0.10708933727E+02  0.23547455342E+03 -0.11421608344E+03  0.31553887670E+03  0.17594465728E+03 0.  0.
        -24    2    5    5    0    0  0.34147725534E+01  0.23383474369E+03 -0.14314604670E+03  0.28529112410E+03  0.78802834804E+02 0.  0.
          5    1    3    3  501    0 -0.29016265914E+02 -0.64301590938E+02 -0.24736659575E+03  0.25727215352E+03  0.47000000000E+01 0. -1.
        -11    1    4    4    0    0  0.11634930367E+01 -0.10641191261E+03 -0.60121240203E+02  0.12222688896E+03  0.00000000000E+00 0.  1.
         12    1    4    4    0    0  0.17143839151E+02 -0.64761049871E+02 -0.13307497665E+03  0.14898608731E+03  0.00000000000E+00 0. -1.
         -5    1    5    5    0  502  0.72941611735E+01  0.16398097279E+01  0.28929963264E+02  0.30247752604E+02  0.47000000000E+01 0.  1.
         11    1    6    6    0    0 -0.60844748864E-01  0.23595431896E+03 -0.12564354650E+03  0.26732142659E+03  0.00000000000E+00 0. -1.
        -12    1    6    6    0    0  0.34756173023E+01 -0.21195752703E+01 -0.17502500207E+02  0.17969697506E+02  0.00000000000E+00 0.  1.
</event>
<event>
12    1  0.8113184E-002  0.1953242E+03  0.7818608E-02  0.1153759E+00
         21   -1    0    0  503  502  0.00000000000E+00  0.00000000000E+00  0.26612601569E+02  0.26612601569E+02  0.00000000000E+00 0.  1.
         21   -1    0    0  501  503 -0.00000000000E+00 -0.00000000000E+00 -0.14727303956E+04  0.14727303956E+04  0.00000000000E+00 0.  1.
          6    2    1    2  501    0 -0.91584974553E+02  0.82458975488E+01 -0.60024691512E+03  0.63122730725E+03  0.17232455399E+03 0.  0.
         24    2    3    3    0    0 -0.87347843848E+02 -0.55858433022E+02 -0.38973128248E+03  0.41107681312E+03  0.79648373378E+02 0.  0.
         -6    2    1    2    0  502  0.91584974553E+02 -0.82458975488E+01 -0.84587087893E+03  0.86811568994E+03  0.17225418693E+03 0.  0.
        -24    2    5    5    0    0  0.64277103018E+02 -0.44324404375E+02 -0.30125387581E+03  0.32160205920E+03  0.81103563394E+02 0.  0.
          5    1    3    3  501    0 -0.42371307047E+01  0.64104330571E+02 -0.21051563264E+03  0.22015049412E+03  0.47000000000E+01 0. -1.
        -13    1    4    4    0    0  0.11486672440E+02  0.42739846402E+01 -0.69864372274E+02  0.70931242071E+02  0.00000000000E+00 0.  1.
         14    1    4    4    0    0 -0.98834516289E+02 -0.60132417662E+02 -0.31986691020E+03  0.34014557105E+03  0.00000000000E+00 0. -1.
         -5    1    5    5    0  502  0.27307871535E+02  0.36078506826E+02 -0.54461700312E+03  0.54651363074E+03  0.47000000000E+01 0.  1.
         13    1    6    6    0    0  0.37928056252E+02 -0.36804529808E+02 -0.28475344607E+03  0.28961635988E+03  0.00000000000E+00 0. -1.
        -14    1    6    6    0    0  0.26349046766E+02 -0.75198745672E+01 -0.16500429742E+02  0.31985699315E+02  0.00000000000E+00 0.  1.
</event>
<event>
12    1  0.8113184E-002  0.1965823E+03  0.7818608E-02  0.1153172E+00
         21   -1    0    0  503  502  0.00000000000E+00  0.00000000000E+00  0.14743576906E+03  0.14743576906E+03  0.00000000000E+00 0.  1.
         21   -1    0    0  501  503 -0.00000000000E+00 -0.00000000000E+00 -0.25939351278E+03  0.25939351278E+03  0.00000000000E+00 0.  1.
          6    2    1    2  501    0  0.68602972553E+02 -0.62858106685E+02 -0.47180613733E+02  0.19984940692E+03  0.17045898543E+03 0.  0.
         24    2    3    3    0    0  0.68292713368E+02 -0.10461766284E+03 -0.13507983547E+02  0.14599875404E+03  0.74326445388E+02 0.  0.
         -6    2    1    2    0  502 -0.68602972553E+02  0.62858106685E+02 -0.64777129987E+02  0.20697987492E+03  0.17316778751E+03 0.  0.
        -24    2    5    5    0    0 -0.78679046495E+02  0.90757794660E+02 -0.10493469040E+02  0.14494177613E+03  0.80440263094E+02 0.  0.
          5    1    3    3  501    0  0.31025918436E+00  0.41759556160E+02 -0.33672630186E+02  0.53850652876E+02  0.47000000000E+01 0. -1.
        -13    1    4    4    0    0 -0.75849687669E+01 -0.16898889003E+02  0.17983357643E+02  0.25816764957E+02  0.00000000000E+00 0.  1.
         14    1    4    4    0    0  0.75877682135E+02 -0.87718773842E+02 -0.31491341190E+02  0.12018198909E+03  0.00000000000E+00 0. -1.
         -5    1    5    5    0  502  0.10076073942E+02 -0.27899687976E+02 -0.54283660948E+02  0.62038098787E+02  0.47000000000E+01 0. -1.
         13    1    6    6    0    0 -0.72481859154E+02  0.22675954531E+02 -0.12504747406E+01  0.75956451388E+02  0.00000000000E+00 0. -1.
        -14    1    6    6    0    0 -0.61971873411E+01  0.68081840130E+02 -0.92429942991E+01  0.68985324744E+02  0.00000000000E+00 0.  1.
</event>
<event>
12    1  0.8113184E-002  0.1802585E+03  0.7818608E-02  0.1167745E+00
         21   -1    0    0  503  502  0.00000000000E+00  0.00000000000E+00  0.15712006923E+03  0.15712006923E+03  0.00000000000E+00 0.  1.
         21   -1    0    0  501  503 -0.00000000000E+00 -0.00000000000E+00 -0.52004802058E+03  0.52004802058E+03  0.00000000000E+00 0.  1.
          6    2    1    2  501    0 -0.50325756464E+02 -0.13607831791E+01 -0.44446241516E+03  0.47932722475E+03  0.17225915477E+03 0.  0.
         24    2    3    3    0    0 -0.96804488267E+02  0.20882463151E+02 -0.33681614680E+03  0.35989170404E+03  0.79181662463E+02 0.  0.
         -6    2    1    2    0  502  0.50325756464E+02  0.13607831791E+01  0.81534463804E+02  0.19784086506E+03  0.17308554419E+03 0.  0.
        -24    2    5    5    0    0  0.79631290152E+02 -0.43652935018E+02  0.78002217300E+02  0.14380739492E+03  0.79683748792E+02 0.  0.
          5    1    3    3  501    0  0.46478731803E+02 -0.22243246331E+02 -0.10764626835E+03  0.11943552071E+03  0.47000000000E+01 0. -1.
        -13    1    4    4    0    0 -0.10090573633E+02  0.33603937629E+02 -0.14198291457E+03  0.14625386261E+03  0.00000000000E+00 0.  1.
         14    1    4    4    0    0 -0.86713914633E+02 -0.12721474478E+02 -0.19483323224E+03  0.21363784142E+03  0.00000000000E+00 0. -1.
         -5    1    5    5    0  502 -0.29305533689E+02  0.45013718197E+02  0.35322465042E+01  0.54033470146E+02  0.47000000000E+01 0.  1.
         13    1    6    6    0    0  0.39546101280E+01 -0.12743824764E+02  0.58183199813E+02  0.59693624043E+02  0.00000000000E+00 0. -1.
        -14    1    6    6    0    0  0.75676680024E+02 -0.30909110254E+02  0.19819017487E+02  0.84113770872E+02  0.00000000000E+00 0.  1.
</event>
<event>
12    1  0.8113184E-002  0.2605308E+03  0.7818608E-02  0.1106854E+00
         21   -1    0    0  501  502  0.00000000000E+00  0.00000000000E+00  0.47847634419E+02  0.47847634419E+02  0.00000000000E+00 0. -1.
         21   -1    0    0  502  503 -0.00000000000E+00 -0.00000000000E+00 -0.14231043047E+04  0.14231043047E+04  0.00000000000E+00 0. -1.
         -6    2    1    2    0  503 -0.63474099275E+02 -0.18374079079E+03 -0.73343051031E+03  0.77826362790E+03  0.17315981514E+03 0.  0.
        -24    2    3    3    0    0 -0.79303941993E+02 -0.15587637460E+03 -0.71648903395E+03  0.74171074523E+03  0.78687574895E+02 0.  0.
          6    2    1    2  501    0  0.63474099275E+02  0.18374079079E+03 -0.64182615994E+03  0.69268831119E+03  0.17345500107E+03 0.  0.
         24    2    5    5    0    0 -0.23278680882E+02  0.79794680432E+02 -0.39099578815E+03  0.40761147219E+03  0.79751601222E+02 0.  0.
          5    1    5    5  501    0  0.86752780157E+02  0.10394611036E+03 -0.25083037179E+03  0.28507683900E+03  0.47000000000E+01 0. -1.
        -11    1    6    6    0    0 -0.27126869712E+01 -0.10387066099E+02 -0.13484616820E+03  0.13527283131E+03  0.00000000000E+00 0.  1.
         12    1    6    6    0    0 -0.20565993910E+02  0.90181746531E+02 -0.25614961996E+03  0.27233864088E+03  0.00000000000E+00 0. -1.
         -5    1    3    3    0  503  0.15829842718E+02 -0.27864416193E+02 -0.16941476359E+02  0.36552882670E+02  0.47000000000E+01 0.  1.
         11    1    4    4    0    0 -0.48564944688E+02 -0.64489080313E+02 -0.18959143287E+03  0.20606384145E+03  0.00000000000E+00 0. -1.
        -12    1    4    4    0    0 -0.30738997305E+02 -0.91387294285E+02 -0.52689760108E+03  0.53564690379E+03  0.00000000000E+00 0.  1.
</event>
<event>
12    1  0.8113184E-002  0.1869280E+03  0.7818608E-02  0.1161821E+00
         21   -1    0    0  501  502  0.00000000000E+00  0.00000000000E+00  0.39660509977E+03  0.39660509977E+03  0.00000000000E+00 0.  1.
         21   -1    0    0  502  503 -0.00000000000E+00 -0.00000000000E+00 -0.92738573544E+02  0.92738573544E+02  0.00000000000E+00 0.  1.
         -6    2    1    2    0  503 -0.25447324858E+01  0.70246407980E+02  0.89988068998E+02  0.20529072085E+03  0.17060303048E+03 0.  0.
        -24    2    3    3    0    0  0.26927160309E+02  0.41985948167E+02 -0.13430611429E+02  0.94003886436E+02  0.78539528493E+02 0.  0.
          6    2    1    2  501    0  0.25447324858E+01 -0.70246407980E+02  0.21387845723E+03  0.28405295246E+03  0.17320811712E+03 0.  0.
         24    2    5    5    0    0  0.45025951856E+02 -0.82247814605E+01  0.51582206565E+02  0.10512978701E+03  0.79350896101E+02 0.  0.
          5    1    5    5  501    0 -0.42481219371E+02 -0.62021626520E+02  0.16229625066E+03  0.17892316545E+03  0.47000000000E+01 0. -1.
        -13    1    6    6    0    0  0.49818624274E+02 -0.34099452483E+02  0.19088441998E+02  0.63316953512E+02  0.00000000000E+00 0.  1.
         14    1    6    6    0    0 -0.47926724172E+01  0.25874671022E+02  0.32493764567E+02  0.41812833498E+02  0.00000000000E+00 0. -1.
         -5    1    3    3    0  503 -0.29471892795E+02  0.28260459814E+02  0.10341868043E+03  0.11128683442E+03  0.47000000000E+01 0.  1.
         13    1    4    4    0    0 -0.18058970795E+02  0.23601815162E+02 -0.30415342903E+02  0.42523701498E+02  0.00000000000E+00 0. -1.
        -14    1    4    4    0    0  0.44986131104E+02  0.18384133004E+02  0.16984731475E+02  0.51480184938E+02  0.00000000000E+00 0.  1.
</event>
<event>
12    1  0.8113184E-002  0.1765099E+03  0.7818608E-02  0.1171799E+00
         21   -1    0    0  503  502  0.00000000000E+00  0.00000000000E+00  0.30371321894E+03  0.30371321894E+03  0.00000000000E+00 0. -1.
         21   -1    0    0  501  503 -0.00000000000E+00 -0.00000000000E+00 -0.15496927235E+03  0.15496927235E+03  0.00000000000E+00 0. -1.
          6    2    1    2  501    0  0.35361381597E+02 -0.20480407511E+02 -0.60972970779E+02  0.18457135667E+03  0.16934877661E+03 0.  0.
         24    2    3    3    0    0  0.19867173433E+02 -0.61667310675E+02 -0.85841239085E+02  0.13380766643E+03  0.79612885141E+02 0.  0.
         -6    2    1    2    0  502 -0.35361381597E+02  0.20480407511E+02  0.20971691737E+03  0.27411113461E+03  0.17171445567E+03 0.  0.
        -24    2    5    5    0    0 -0.14816627554E+02 -0.52741366476E+02  0.93354127660E+02  0.13502158096E+03  0.80713381696E+02 0.  0.
          5    1    3    3  501    0  0.15494208164E+02  0.41186903164E+02  0.24868268306E+02  0.50763690246E+02  0.47000000000E+01 0. -1.
        -13    1    4    4    0    0  0.19536797133E+02 -0.39762630658E+02  0.93096647748E+00  0.44312751411E+02  0.00000000000E+00 0.  1.
         14    1    4    4    0    0  0.33037630023E+00 -0.21904680017E+02 -0.86772205563E+02  0.89494915014E+02  0.00000000000E+00 0. -1.
         -5    1    5    5    0  502 -0.20544754044E+02  0.73221773987E+02  0.11636278971E+03  0.13908955365E+03  0.47000000000E+01 0.  1.
         13    1    6    6    0    0  0.10274124459E+02  0.10584924518E+02  0.54802027852E+02  0.56752625641E+02  0.00000000000E+00 0. -1.
        -14    1    6    6    0    0 -0.25090752012E+02 -0.63326290995E+02  0.38552099808E+02  0.78268955323E+02  0.00000000000E+00 0.  1.
</event>
<event>
12    1  0.8113184E-002  0.1905730E+03  0.7818608E-02  0.1158134E+00
         21   -1    0    0  503  502  0.00000000000E+00  0.00000000000E+00  0.14383254909E+04  0.14383254909E+04  0.00000000000E+00 0. -1.
         21   -1    0    0  501  503 -0.00000000000E+00 -0.00000000000E+00 -0.49999455256E+02  0.49999455256E+02  0.00000000000E+00 0.  1.
          6    2    1    2  501    0 -0.45531031357E+02 -0.68822785111E+02  0.17020273741E+03  0.25551327270E+03  0.17178012148E+03 0.  0.
         24    2    3    3    0    0 -0.77680799057E+02  0.69102734551E+00  0.12094673607E+03  0.16433201720E+03  0.79637396065E+02 0.  0.
         -6    2    1    2    0  502  0.45531031357E+02  0.68822785111E+02  0.12181232982E+04  0.12328116735E+04  0.17085257370E+03 0.  0.
        -24    2    5    5    0    0  0.36833658638E+02  0.11022934663E+03  0.10430355422E+04  0.10526229947E+04  0.81146777308E+02 0.  0.
          5    1    3    3  501    0  0.32149767700E+02 -0.69513812456E+02  0.49256001338E+02  0.91181255492E+02  0.47000000000E+01 0. -1.
        -13    1    4    4    0    0  0.12978291967E+02 -0.11780748298E+02  0.88836904397E+01  0.19650497415E+02  0.00000000000E+00 0.  1.
         14    1    4    4    0    0 -0.90659091024E+02  0.12471775643E+02  0.11206304563E+03  0.14468151979E+03  0.00000000000E+00 0. -1.
         -5    1    5    5    0  502  0.86973727192E+01 -0.41406561515E+02  0.17508775602E+03  0.18018867871E+03  0.47000000000E+01 0.  1.
         13    1    6    6    0    0  0.48033051093E+02  0.53164248410E+02  0.77748257587E+03  0.78077702776E+03  0.00000000000E+00 0. -1.
        -14    1    6    6    0    0 -0.11199392455E+02  0.57065098216E+02  0.26555296635E+03  0.27184596698E+03  0.00000000000E+00 0.  1.
</event>
<event>
12    1  0.8113184E-002  0.1753615E+03  0.7818608E-02  0.1172515E+00
         21   -1    0    0  503  502  0.00000000000E+00  0.00000000000E+00  0.14479112927E+03  0.14479112927E+03  0.00000000000E+00 0.  1.
         21   -1    0    0  501  503 -0.00000000000E+00 -0.00000000000E+00 -0.28451991161E+03  0.28451991161E+03  0.00000000000E+00 0.  1.
          6    2    1    2  501    0  0.32605885360E+02 -0.10013473000E+01 -0.17855852349E+03  0.25026944284E+03  0.17230061304E+03 0.  0.
         24    2    3    3    0    0  0.51200134958E+02  0.12942793634E+02 -0.45278139973E+02  0.11489612267E+03  0.91444186903E+02 0.  0.
         -6    2    1    2    0  502 -0.32605885360E+02  0.10013473000E+01  0.38829741142E+02  0.17904159804E+03  0.17170905211E+03 0.  0.
        -24    2    5    5    0    0 -0.11220129692E+02 -0.54277631967E+02  0.61293226359E+02  0.11548206483E+03  0.80667806816E+02 0.  0.
          5    1    3    3  501    0 -0.18594249598E+02 -0.13944140934E+02 -0.13328038352E+03  0.13537332017E+03  0.47000000000E+01 0. -1.
        -11    1    4    4    0    0 -0.75346675756E+01 -0.30674248431E+02 -0.20498447768E+02  0.37654575993E+02  0.00000000000E+00 0.  1.
         12    1    4    4    0    0  0.58734802534E+02  0.43617042066E+02 -0.24779692205E+02  0.77241546677E+02  0.00000000000E+00 0. -1.
         -5    1    5    5    0  502 -0.21385755668E+02  0.55278979267E+02 -0.22463485216E+02  0.63559533214E+02  0.47000000000E+01 0.  1.
         13    1    6    6    0    0  0.20791909610E+02  0.60432701637E+01  0.37246872883E+02  0.43083107584E+02  0.00000000000E+00 0. -1.
        -14    1    6    6    0    0 -0.32012039302E+02 -0.60320902131E+02  0.24046353476E+02  0.72398957242E+02  0.00000000000E+00 0.  1.
</event>
<event>
12    1  0.8113184E-002  0.2246081E+03  0.7818608E-02  0.1130919E+00
         21   -1    0    0  501  502  0.00000000000E+00  0.00000000000E+00  0.21055505128E+03  0.21055505128E+03  0.00000000000E+00 0.  1.
         21   -1    0    0  502  503 -0.00000000000E+00 -0.00000000000E+00 -0.26460417027E+03  0.26460417027E+03  0.00000000000E+00 0. -1.
         -6    2    1    2    0  503  0.23231154528E+02 -0.14433834150E+03 -0.10372167437E+03  0.24740043505E+03  0.17051553056E+03 0.  0.
        -24    2    3    3    0    0  0.69377829495E+02 -0.61869793090E+02 -0.26863265509E+02  0.12549931898E+03  0.79920519943E+02 0.  0.
          6    2    1    2  501    0 -0.23231154528E+02  0.14433834150E+03  0.49672555386E+02  0.22775878650E+03  0.16743195245E+03 0.  0.
         24    2    5    5    0    0  0.40352697113E+01  0.15792161040E+03  0.11777921367E+02  0.17891151050E+03  0.83157024500E+02 0.  0.
          5    1    5    5  501    0 -0.27266424240E+02 -0.13583268906E+02  0.37894634019E+02  0.48847275998E+02  0.47000000000E+01 0. -1.
        -11    1    6    6    0    0  0.18391700954E+02  0.32283602724E+02  0.34182017647E+02  0.50486592272E+02  0.00000000000E+00 0.  1.
         12    1    6    6    0    0 -0.14356431243E+02  0.12563800768E+03 -0.22404096281E+02  0.12842491823E+03  0.00000000000E+00 0. -1.
         -5    1    3    3    0  503 -0.46146674967E+02 -0.82468548405E+02 -0.76858408866E+02  0.12190111607E+03  0.47000000000E+01 0.  1.
         11    1    4    4    0    0  0.36792963140E+02  0.76286267508E+01 -0.30879822238E+02  0.48636215974E+02  0.00000000000E+00 0. -1.
        -12    1    4    4    0    0  0.32584866355E+02 -0.69498419841E+02  0.40165567295E+01  0.76863103006E+02  0.00000000000E+00 0.  1.
</event>
<event>
12    1  0.8113184E-002  0.1804118E+03  0.7818608E-02  0.1168168E+00
         21   -1    0    0  503  502  0.00000000000E+00  0.00000000000E+00  0.38942356950E+03  0.38942356950E+03  0.00000000000E+00 0. -1.
         21   -1    0    0  501  503 -0.00000000000E+00 -0.00000000000E+00 -0.16449159633E+03  0.16449159633E+03  0.00000000000E+00 0. -1.
          6    2    1    2  501    0 -0.24353490271E+02 -0.21299713112E+02 -0.83990257360E+02  0.19617032714E+03  0.17430336672E+03 0.  0.
         24    2    3    3    0    0 -0.78116608087E+01  0.50408979433E+02 -0.76502813626E+02  0.12204934143E+03  0.80257547924E+02 0.  0.
         -6    2    1    2    0  502  0.24353490271E+02  0.21299713112E+02  0.30892223053E+03  0.35774483869E+03  0.17748705539E+03 0.  0.
        -24    2    5    5    0    0  0.15946720789E+02 -0.10827770158E+02  0.54902540382E+02  0.10152044107E+03  0.83189978391E+02 0.  0.
          5    1    3    3  501    0 -0.16541829463E+02 -0.71708692545E+02 -0.74874437339E+01  0.74120985707E+02  0.47000000000E+01 0. -1.
        -11    1    4    4    0    0  0.14637616814E+02  0.41291360962E+02 -0.21652671468E+01  0.43862566021E+02  0.00000000000E+00 0.  1.
         12    1    4    4    0    0 -0.22449277623E+02  0.91176184708E+01 -0.74337546479E+02  0.78186775409E+02  0.00000000000E+00 0. -1.
         -5    1    5    5    0  502  0.84067694821E+01  0.32127483269E+02  0.25401969015E+03  0.25622439762E+03  0.47000000000E+01 0.  1.
         11    1    6    6    0    0  0.17022401066E+02 -0.40854042831E+02  0.56093451546E+02  0.71451313914E+02  0.00000000000E+00 0. -1.
        -12    1    6    6    0    0 -0.10756802769E+01  0.30026272673E+02 -0.11909111638E+01  0.30069127159E+02  0.00000000000E+00 0.  1.
</event>
<event>
12    1  0.8113184E-002  0.2648486E+03  0.7818608E-02  0.1104457E+00
         21   -1    0    0  503  502  0.00000000000E+00  0.00000000000E+00  0.21887247413E+03  0.21887247413E+03  0.00000000000E+00 0.  1.
         21   -1    0    0  501  503 -0.00000000000E+00 -0.00000000000E+00 -0.32026344726E+03  0.32026344726E+03  0.00000000000E+00 0.  1.
          6    2    1    2  501    0  0.14759712291E+03 -0.13803520081E+03 -0.68145601403E+02  0.27220892417E+03  0.16916042106E+03 0.  0.
         24    2    3    3    0    0  0.68825599249E+02 -0.14915381587E+01 -0.19082246459E+02  0.10704710186E+03  0.79723033614E+02 0.  0.
         -6    2    1    2    0  502 -0.14759712291E+03  0.13803520081E+03 -0.33245371729E+02  0.26692699721E+03  0.17119036113E+03 0.  0.
        -24    2    5    5    0    0 -0.32167394394E+02  0.11822622226E+03 -0.24869749706E+02  0.14941674702E+03  0.81821017759E+02 0.  0.
          5    1    3    3  501    0  0.78771523659E+02 -0.13654366265E+03 -0.49063354944E+02  0.16516182231E+03  0.47000000000E+01 0. -1.
        -11    1    4    4    0    0  0.10514895422E+01 -0.10849469526E+02  0.23886396708E+02  0.26255981546E+02  0.00000000000E+00 0.  1.
         12    1    4    4    0    0  0.67774109707E+02  0.93579313675E+01 -0.42968643167E+02  0.80791120315E+02  0.00000000000E+00 0. -1.
         -5    1    5    5    0  502 -0.11542972851E+03  0.19808978550E+02 -0.83756220230E+01  0.11751025019E+03  0.47000000000E+01 0.  1.
         11    1    6    6    0    0 -0.16260386907E+02  0.89239821336E+02 -0.53816249718E+02  0.10547196134E+03  0.00000000000E+00 0. -1.
        -12    1    6    6    0    0 -0.15907007487E+02  0.28986400926E+02  0.28946500012E+02  0.43944785683E+02  0.00000000000E+00 0.  1.
</event>
<event>
12    1  0.8113184E-002  0.1779402E+03  0.7818608E-02  0.1170036E+00
         21   -1    0    0  501  502  0.00000000000E+00  0.00000000000E+00  0.50171122577E+02  0.50171122577E+02  0.00000000000E+00 0.  1.
         21   -1    0    0  502  503 -0.00000000000E+00 -0.00000000000E+00 -0.82393378217E+03  0.82393378217E+03  0.00000000000E+00 0.  1.
         -6    2    1    2    0  503  0.38711559360E+02 -0.16241328517E+02 -0.60084085979E+03  0.62663581150E+03  0.17291713588E+03 0.  0.
        -24    2    3    3    0    0  0.61896401743E+02 -0.31551659717E+02 -0.58355717529E+03  0.59357890742E+03  0.83488147181E+02 0.  0.
          6    2    1    2  501    0 -0.38711559360E+02  0.16241328517E+02 -0.17292179981E+03  0.24746909325E+03  0.17197859659E+03 0.  0.
         24    2    5    5    0    0 -0.50564255659E+02  0.55511244046E+02 -0.56668752189E+02  0.12410186196E+03  0.80942464146E+02 0.  0.
          5    1    5    5  501    0  0.11852696299E+02 -0.39269915529E+02 -0.11625304762E+03  0.12336723129E+03  0.47000000000E+01 0. -1.
        -13    1    6    6    0    0 -0.66425394509E+02  0.58044470932E+02 -0.61258375569E+02  0.10739684455E+03  0.00000000000E+00 0.  1.
         14    1    6    6    0    0  0.15861138850E+02 -0.25332268858E+01  0.45896233793E+01  0.16705017415E+02  0.00000000000E+00 0. -1.
         -5    1    3    3    0  503 -0.23184842383E+02  0.15310331200E+02 -0.17283684504E+02  0.33056904086E+02  0.47000000000E+01 0.  1.
         11    1    4    4    0    0  0.22990672120E+02  0.28255052683E+02 -0.16382708522E+03  0.16782798592E+03  0.00000000000E+00 0. -1.
        -12    1    4    4    0    0  0.38905729623E+02 -0.59806712400E+02 -0.41973009006E+03  0.42575092149E+03  0.00000000000E+00 0.  1.
</event>
<event>
12    1  0.8113184E-002  0.2401736E+03  0.7818608E-02  0.1120554E+00
         21   -1    0    0  501  502  0.00000000000E+00  0.00000000000E+00  0.20264217723E+03  0.20264217723E+03  0.00000000000E+00 0. -1.
         21   -1    0    0  502  503 -0.00000000000E+00 -0.00000000000E+00 -0.34096677966E+03  0.34096677966E+03  0.00000000000E+00 0. -1.
         -6    2    1    2    0  503  0.53857095568E+02 -0.15633589381E+03  0.47770835429E+02  0.23977533727E+03  0.16693909431E+03 0.  0.
        -24    2    3    3    0    0 -0.46001553912E+01 -0.82267696029E+02  0.80408051130E+02  0.13982221845E+03  0.79345213128E+02 0.  0.
          6    2    1    2  501    0 -0.53857095568E+02  0.15633589381E+03 -0.18609543786E+03  0.30383361962E+03  0.17418914426E+03 0.  0.
         24    2    5    5    0    0 -0.36741415781E+02  0.20032488285E+02 -0.36577346645E+02  0.10073434721E+03  0.84013535808E+02 0.  0.
          5    1    5    5  501    0 -0.17115679788E+02  0.13630340553E+03 -0.14951809122E+03  0.20309927241E+03  0.47000000000E+01 0. -1.
        -11    1    6    6    0    0 -0.61789891475E+02  0.10585177612E+02 -0.10882209778E+02  0.63627503198E+02  0.00000000000E+00 0.  1.
         12    1    6    6    0    0  0.25048475694E+02  0.94473106729E+01 -0.25695136868E+02  0.37106844008E+02  0.00000000000E+00 0. -1.
         -5    1    3    3    0  503  0.58457250960E+02 -0.74068197785E+02 -0.32637215702E+02  0.99953118819E+02  0.47000000000E+01 0.  1.
         13    1    4    4    0    0 -0.38353579547E+02 -0.56042269921E+02  0.31475512759E+02  0.74849455478E+02  0.00000000000E+00 0. -1.
        -14    1    4    4    0    0  0.33753424156E+02 -0.26225426109E+02  0.48932538371E+02  0.64972762973E+02  0.00000000000E+00 0.  1.
</event>
<event>
12    1  0.8113184E-002  0.2223745E+03  0.7818608E-02  0.1132522E+00
         21   -1    0    0  503  502  0.00000000000E+00  0.00000000000E+00  0.59554175394E+03  0.59554175394E+03  0.00000000000E+00 0.  1.
         21   -1    0    0  501  503 -0.00000000000E+00 -0.00000000000E+00 -0.16182507549E+03  0.16182507549E+03  0.00000000000E+00 0.  1.
          6    2    1    2  501    0  0.10988552639E+03 -0.87825718900E+02 -0.48178863216E+02  0.22753375073E+03  0.17222723086E+03 0.  0.
         24    2    3    3    0    0  0.88144055796E+02 -0.58221268305E+02 -0.10357304501E+03  0.16090252370E+03  0.63270497257E+02 0.  0.
         -6    2    1    2    0  502 -0.10988552639E+03  0.87825718900E+02  0.48189554167E+03  0.52983307870E+03  0.16944495387E+03 0.  0.
        -24    2    5    5    0    0 -0.23664523562E+01  0.36167183839E+02  0.16593171298E+03  0.19206957184E+03  0.89686798193E+02 0.  0.
          5    1    3    3  501    0  0.21741470596E+02 -0.29604450595E+02  0.55394181799E+02  0.66631227032E+02  0.47000000000E+01 0. -1.
        -11    1    4    4    0    0  0.63869460125E+02 -0.46693538199E+02 -0.33618386014E+02  0.85963889653E+02  0.00000000000E+00 0.  1.
         12    1    4    4    0    0  0.24274595671E+02 -0.11527730106E+02 -0.69954659000E+02  0.74938634043E+02  0.00000000000E+00 0. -1.
         -5    1    5    5    0  502 -0.10751907404E+03  0.51658535061E+02  0.31596382869E+03  0.33776350686E+03  0.47000000000E+01 0.  1.
         11    1    6    6    0    0  0.13201823537E+02  0.18272121710E+01 -0.70146567955E+01  0.15060951463E+02  0.00000000000E+00 0. -1.
        -12    1    6    6    0    0 -0.15568275893E+02  0.34339971668E+02  0.17294636978E+03  0.17700862038E+03  0.00000000000E+00 0.  1.
</event>
<event>
12    1  0.8113184E-002  0.2083338E+03  0.7818608E-02  0.1143169E+00
         21   -1    0    0  501  502  0.00000000000E+00  0.00000000000E+00  0.75588505551E+03  0.75588505551E+03  0.00000000000E+00 0. -1.
         21   -1    0    0  502  503 -0.00000000000E+00 -0.00000000000E+00 -0.13279219808E+03  0.13279219808E+03  0.00000000000E+00 0. -1.
         -6    2    1    2    0  503  0.78920335069E+02  0.83121946562E+02 -0.23609362863E+02  0.20966725568E+03  0.17396918924E+03 0.  0.
        -24    2    3    3    0    0  0.91209498913E+02  0.77193983050E+02  0.35131700097E+02  0.14917951497E+03  0.82110947037E+02 0.  0.
          6    2    1    2  501    0 -0.78920335069E+02 -0.83121946562E+02  0.64670222029E+03  0.67900999791E+03  0.17231697028E+03 0.  0.
         24    2    5    5    0    0 -0.11154858892E+03 -0.66766481097E+02  0.60433382568E+03  0.62289159574E+03  0.76640175514E+02 0.  0.
          5    1    5    5  501    0  0.32628253846E+02 -0.16355465465E+02  0.42368394610E+02  0.56118402164E+02  0.47000000000E+01 0. -1.
        -11    1    6    6    0    0 -0.71582466489E+02 -0.15943236586E+02  0.19218017786E+03  0.20569748921E+03  0.00000000000E+00 0.  1.
         12    1    6    6    0    0 -0.39966122427E+02 -0.50823244512E+02  0.41215364781E+03  0.41719410654E+03  0.00000000000E+00 0. -1.
         -5    1    3    3    0  503 -0.12289163843E+02  0.59279635126E+01 -0.58741062960E+02  0.60487740717E+02  0.47000000000E+01 0.  1.
         13    1    4    4    0    0  0.10381038003E+03  0.50523481270E+02  0.26674519183E+02  0.11849365863E+03  0.00000000000E+00 0. -1.
        -14    1    4    4    0    0 -0.12600881119E+02  0.26670501780E+02  0.84571809138E+01  0.30685856338E+02  0.00000000000E+00 0.  1.
</event>
<event>
12    1  0.8113184E-002  0.1793487E+03  0.7818608E-02  0.1168729E+00
         21   -1    0    0  501  502  0.00000000000E+00  0.00000000000E+00  0.21849097190E+04  0.21849097190E+04  0.00000000000E+00 0.  1.
         21   -1    0    0  502  503 -0.00000000000E+00 -0.00000000000E+00 -0.20833905226E+03  0.20833905226E+03  0.00000000000E+00 0.  1.
         -6    2    1    2    0  503 -0.13274366804E+02 -0.46228316892E+02 -0.16581289250E+03  0.24337127349E+03  0.17152957571E+03 0.  0.
        -24    2    3    3    0    0  0.47433341150E+02 -0.44105912726E+02 -0.56055715015E+02  0.11783777830E+03  0.80921229717E+02 0.  0.
          6    2    1    2  501    0  0.13274366804E+02  0.46228316892E+02  0.21423835593E+04  0.21498774978E+04  0.17277926498E+03 0.  0.
         24    2    5    5    0    0  0.49624613484E+02  0.84520461519E+02  0.15364379384E+04  0.15416178376E+04  0.79609722810E+02 0.  0.
          5    1    5    5  501    0 -0.36350246680E+02 -0.38292144627E+02  0.60594562085E+03  0.60825966018E+03  0.47000000000E+01 0. -1.
        -11    1    6    6    0    0  0.35102239143E+01  0.11651382277E+02  0.80824305248E+03  0.80833465116E+03  0.00000000000E+00 0.  1.
         12    1    6    6    0    0  0.46114389570E+02  0.72869079242E+02  0.72819488595E+03  0.73328318647E+03  0.00000000000E+00 0. -1.
         -5    1    3    3    0  503 -0.60707707954E+02 -0.21224041659E+01 -0.10975717749E+03  0.12553349519E+03  0.47000000000E+01 0.  1.
         13    1    4    4    0    0  0.53381523914E+02 -0.69031860005E+01 -0.59224048170E+02  0.80029550505E+02  0.00000000000E+00 0. -1.
        -14    1    4    4    0    0 -0.59481827642E+01 -0.37202726726E+02  0.31683331555E+01  0.37808227795E+02  0.00000000000E+00 0.  1.
</event>
<event>
12    1  0.8113184E-002  0.3419733E+03  0.7818608E-02  0.1066062E+00
         21   -1    0    0  503  502  0.00000000000E+00  0.00000000000E+00  0.23232420839E+03  0.23232420839E+03  0.00000000000E+00 0. -1.
         21   -1    0    0  501  503 -0.00000000000E+00 -0.00000000000E+00 -0.29412816276E+04  0.29412816276E+04  0.00000000000E+00 0.  1.
          6    2    1    2  501    0  0.59516070270E+00  0.29543179549E+03 -0.27998899352E+04  0.28206966149E+04  0.17223659284E+03 0.  0.
         24    2    3    3    0    0 -0.27297189229E+02  0.23819991255E+03 -0.25573843615E+04  0.25699287643E+04  0.82672523909E+02 0.  0.
         -6    2    1    2    0  502 -0.59516070270E+00 -0.29543179549E+03  0.90932516062E+02  0.35290922104E+03  0.17028181293E+03 0.  0.
        -24    2    5    5    0    0  0.10542026630E+02 -0.11682800602E+03  0.10163107979E+03  0.17357740618E+03  0.77719510038E+02 0.  0.
          5    1    3    3  501    0  0.27892349931E+02  0.57231882946E+02 -0.24250557375E+03  0.25076785063E+03  0.47000000000E+01 0. -1.
        -11    1    4    4    0    0 -0.21927857126E+02  0.24383760518E+03 -0.25097118400E+04  0.25216247001E+04  0.00000000000E+00 0.  1.
         12    1    4    4    0    0 -0.53693321028E+01 -0.56376926343E+01 -0.47672521504E+02  0.48304064136E+02  0.00000000000E+00 0. -1.
         -5    1    5    5    0  502 -0.11137187332E+02 -0.17860378947E+03 -0.10698563728E+02  0.17933181486E+03  0.47000000000E+01 0.  1.
         11    1    6    6    0    0  0.40719460941E+02 -0.95327275708E+02  0.74905243119E+02  0.12789120157E+03  0.00000000000E+00 0. -1.
        -12    1    6    6    0    0 -0.30177434312E+02 -0.21500730316E+02  0.26725836671E+02  0.45686204609E+02  0.00000000000E+00 0.  1.
</event>
<event>
12    1  0.8113184E-002  0.2652433E+03  0.7818608E-02  0.1104224E+00
         21   -1    0    0  503  502  0.00000000000E+00  0.00000000000E+00  0.13303028026E+04  0.13303028026E+04  0.00000000000E+00 0. -1.
         21   -1    0    0  501  503 -0.00000000000E+00 -0.00000000000E+00 -0.95284759817E+02  0.95284759817E+02  0.00000000000E+00 0. -1.
          6    2    1    2  501    0 -0.20117050367E+03 -0.58036519481E+01  0.14142042407E+03  0.30058898564E+03  0.17277369018E+03 0.  0.
         24    2    3    3    0    0 -0.13470878386E+03  0.40325114004E+02  0.14952122285E+03  0.21914737349E+03  0.76788045657E+02 0.  0.
         -6    2    1    2    0  502  0.20117050367E+03  0.58036519481E+01  0.10935976187E+04  0.11249985768E+04  0.17077116904E+03 0.  0.
        -24    2    5    5    0    0  0.12385361563E+03  0.25336901658E+02  0.93981208265E+03  0.95170250031E+03  0.80679747747E+02 0.  0.
          5    1    3    3  501    0 -0.66461719814E+02 -0.46128765952E+02 -0.81007987801E+01  0.81441612151E+02  0.47000000000E+01 0. -1.
        -13    1    4    4    0    0 -0.70136859764E+02 -0.13148755216E+02  0.96244287766E+02  0.11981248595E+03  0.00000000000E+00 0.  1.
         14    1    4    4    0    0 -0.64571924095E+02  0.53473869220E+02  0.53276935081E+02  0.99334887538E+02  0.00000000000E+00 0. -1.
         -5    1    5    5    0  502  0.77316888040E+02 -0.19533249710E+02  0.15378553609E+03  0.17329607650E+03  0.47000000000E+01 0.  1.
         11    1    6    6    0    0  0.11457323530E+03 -0.34791032297E+01  0.82671388717E+03  0.83462265824E+03  0.00000000000E+00 0. -1.
        -12    1    6    6    0    0  0.92803803330E+01  0.28816004887E+02  0.11309819548E+03  0.11707984206E+03  0.00000000000E+00 0.  1.
</event>
<event>
12    1  0.8113184E-002  0.2234065E+03  0.7818608E-02  0.1131442E+00
         21   -1    0    0  503  502  0.00000000000E+00  0.00000000000E+00  0.14441850840E+04  0.14441850840E+04  0.00000000000E+00 0. -1.
         21   -1    0    0  501  503 -0.00000000000E+00 -0.00000000000E+00 -0.21492888767E+03  0.21492888767E+03  0.00000000000E+00 0. -1.
          6    2    1    2  501    0  0.67363914453E+01 -0.14180070610E+03 -0.14553302250E+03  0.26629098570E+03  0.17198316547E+03 0.  0.
         24    2    3    3    0    0  0.68363415061E+01 -0.13116859804E+03 -0.42082013218E+02  0.16218885780E+03  0.85336938551E+02 0.  0.
         -6    2    1    2    0  502 -0.67363914453E+01  0.14180070610E+03  0.13747892189E+04  0.13928229860E+04  0.17250407187E+03 0.  0.
        -24    2    5    5    0    0  0.47844393911E+02  0.10349860715E+03  0.11486629160E+04  0.11570236905E+04  0.79222964277E+02 0.  0.
          5    1    3    3  501    0 -0.99950060830E-01 -0.10632108060E+02 -0.10345100928E+03  0.10410212790E+03  0.47000000000E+01 0. -1.
        -13    1    4    4    0    0  0.13302323512E+02 -0.26951743142E+02 -0.49064451141E+02  0.57538410084E+02  0.00000000000E+00 0.  1.
         14    1    4    4    0    0 -0.64659820059E+01 -0.10421685489E+03  0.69824379234E+01  0.10465044771E+03  0.00000000000E+00 0. -1.
         -5    1    5    5    0  502 -0.54580785356E+02  0.38302098944E+02  0.22612630288E+03  0.23579929552E+03  0.47000000000E+01 0.  1.
         11    1    6    6    0    0  0.18878492976E+02  0.34290672632E+02  0.77031344111E+03  0.77130736109E+03  0.00000000000E+00 0. -1.
        -12    1    6    6    0    0  0.28965900935E+02  0.69207934519E+02  0.37834947487E+03  0.38571632938E+03  0.00000000000E+00 0.  1.
</event>
<event>
12    1  0.8113184E-002  0.1747325E+03  0.7818608E-02  0.1173057E+00
         21   -1    0    0  501  502  0.00000000000E+00  0.00000000000E+00  0.17407409091E+03  0.17407409091E+03  0.00000000000E+00 0.  1.
         21   -1    0    0  502  503 -0.00000000000E+00 -0.00000000000E+00 -0.32568430920E+03  0.32568430920E+03  0.00000000000E+00 0.  1.
         -6    2    1    2    0  503 -0.17000330953E+02  0.26639991537E+02 -0.24570461567E+03  0.30149994287E+03  0.17185097319E+03 0.  0.
        -24    2    3    3    0    0 -0.53059894397E+02  0.64556397400E+02 -0.20405796597E+03  0.23445906444E+03  0.79677591470E+02 0.  0.
          6    2    1    2  501    0  0.17000330953E+02 -0.26639991537E+02  0.94094397379E+02  0.19825845724E+03  0.17162155998E+03 0.  0.
         24    2    5    5    0    0 -0.25235467460E+02  0.42517596410E+02  0.57051603721E+02  0.10903461962E+03  0.78670756741E+02 0.  0.
          5    1    5    5  501    0  0.42235798413E+02 -0.69157587947E+02  0.37042793658E+02  0.89223837623E+02  0.47000000000E+01 0. -1.
        -11    1    6    6    0    0 -0.21150363362E+02  0.85221865699E+01  0.69077740897E+02  0.72744070698E+02  0.00000000000E+00 0.  1.
         12    1    6    6    0    0 -0.40851040985E+01  0.33995409840E+02 -0.12026137176E+02  0.36290548922E+02  0.00000000000E+00 0. -1.
         -5    1    3    3    0  503  0.36059563444E+02 -0.37916405863E+02 -0.41646649698E+02  0.67040878428E+02  0.47000000000E+01 0.  1.
         13    1    4    4    0    0 -0.22160631212E+01 -0.80146065584E+01  0.33121630302E+01  0.89507138252E+01  0.00000000000E+00 0. -1.
        -14    1    4    4    0    0 -0.50843831276E+02  0.72571003959E+02 -0.20737012900E+03  0.22550835061E+03  0.00000000000E+00 0.  1.
</event>
<event>
12    1  0.8113184E-002  0.2569438E+03  0.7818608E-02  0.1110179E+00
         21   -1    0    0  501  502  0.00000000000E+00  0.00000000000E+00  0.14139665962E+04  0.14139665962E+04  0.00000000000E+00 0. -1.
         21   -1    0    0  502  503 -0.00000000000E+00 -0.00000000000E+00 -0.45963640879E+02  0.45963640879E+02  0.00000000000E+00 0. -1.
         -6    2    1    2    0  503 -0.10001489043E+03 -0.14968726822E+03  0.58687830065E+03  0.63763111933E+03  0.17244723246E+03 0.  0.
        -24    2    3    3    0    0 -0.12707827590E+03 -0.14785813450E+03  0.55813132372E+03  0.59782846557E+03  0.88754625720E+02 0.  0.
          6    2    1    2  501    0  0.10001489043E+03  0.14968726822E+03  0.78112465466E+03  0.82229911774E+03  0.18333263851E+03 0.  0.
         24    2    5    5    0    0 -0.38613193823E+01  0.94507979198E+01  0.28060283727E+03  0.29220411281E+03  0.80876843975E+02 0.  0.
          5    1    5    5  501    0  0.10387620981E+03  0.14023647030E+03  0.50052181739E+03  0.53009500493E+03  0.47000000000E+01 0. -1.
        -11    1    6    6    0    0 -0.27339883620E+02  0.15997337019E+02  0.43282766922E+02  0.53635640581E+02  0.00000000000E+00 0.  1.
         12    1    6    6    0    0  0.23478564238E+02 -0.65465390993E+01  0.23732007034E+03  0.23856847223E+03  0.00000000000E+00 0. -1.
         -5    1    3    3    0  503  0.27063385473E+02 -0.18291337289E+01  0.28746976934E+02  0.39802653760E+02  0.47000000000E+01 0.  1.
         11    1    4    4    0    0 -0.10421892547E+03 -0.15791550693E+03  0.48948202206E+03  0.52477761163E+03  0.00000000000E+00 0. -1.
        -12    1    4    4    0    0 -0.22859350428E+02  0.10057372430E+02  0.68649301660E+02  0.73050853935E+02  0.00000000000E+00 0.  1.
</event>
<event>
12    1  0.8113184E-002  0.2242963E+03  0.7818608E-02  0.1133123E+00
         21   -1    0    0  501  502  0.00000000000E+00  0.00000000000E+00  0.83780470305E+03  0.83780470305E+03  0.00000000000E+00 0.  1.
         21   -1    0    0  502  503 -0.00000000000E+00 -0.00000000000E+00 -0.57352759399E+02  0.57352759399E+02  0.00000000000E+00 0.  1.
         -6    2    1    2    0  503 -0.18706851191E+02  0.12069579607E+03  0.35265209097E+03  0.41793820490E+03  0.18812608638E+03 0.  0.
        -24    2    3    3    0    0 -0.64176521974E+02  0.35328577354E+02  0.10024090948E+03  0.14758926827E+03  0.79797354747E+02 0.  0.
          6    2    1    2  501    0  0.18706851191E+02 -0.12069579607E+03  0.42779985268E+03  0.47721925755E+03  0.17265017913E+03 0.  0.
         24    2    5    5    0    0 -0.83818694057E+01 -0.11881269947E+03  0.42620045867E+03  0.44961503872E+03  0.79499300515E+02 0.  0.
          5    1    5    5  501    0  0.27088720597E+02 -0.18830965989E+01  0.15993940159E+01  0.27604218837E+02  0.47000000000E+01 0. -1.
        -11    1    6    6    0    0  0.29427710059E+02 -0.80230622764E+02  0.30836475677E+03  0.31998713438E+03  0.00000000000E+00 0.  1.
         12    1    6    6    0    0 -0.37809579464E+02 -0.38582076709E+02  0.11783570190E+03  0.12962790434E+03  0.00000000000E+00 0. -1.
         -5    1    3    3    0  503  0.45469670782E+02  0.85367218718E+02  0.25241118150E+03  0.27034893663E+03  0.47000000000E+01 0.  1.
         11    1    4    4    0    0 -0.52588609191E+02 -0.15368788842E+02  0.63753207285E+02  0.84060888207E+02  0.00000000000E+00 0. -1.
        -12    1    4    4    0    0 -0.11587912783E+02  0.50697366196E+02  0.36487702191E+02  0.63528380060E+02  0.00000000000E+00 0.  1.
</event>
<event>
12    1  0.8113184E-002  0.1826181E+03  0.7818608E-02  0.1167276E+00
         21   -1    0    0  501  502  0.00000000000E+00  0.00000000000E+00  0.10042145198E+04  0.10042145198E+04  0.00000000000E+00 0.  1.
         21   -1    0    0  502  503 -0.00000000000E+00 -0.00000000000E+00 -0.63127647455E+02  0.63127647455E+02  0.00000000000E+00 0.  1.
         -6    2    1    2    0  503 -0.16944177734E+01  0.30695048849E+02  0.99707987492E+02  0.20806499775E+03  0.18001195362E+03 0.  0.
        -24    2    3    3    0    0 -0.41089117851E+02  0.53370260454E+02  0.11913666391E+03  0.15840947356E+03  0.79770397504E+02 0.  0.
          6    2    1    2  501    0  0.16944177734E+01 -0.30695048849E+02  0.84137888485E+03  0.85927716950E+03  0.17173750049E+03 0.  0.
         24    2    5    5    0    0 -0.30135508293E+02 -0.18880435917E+02  0.22142572269E+03  0.23837722381E+03  0.80806747529E+02 0.  0.
          5    1    5    5  501    0  0.31829926066E+02 -0.11814612932E+02  0.61995316217E+03  0.62089994569E+03  0.47000000000E+01 0. -1.
        -11    1    6    6    0    0  0.13500789392E+02 -0.37737881698E+02  0.11602420236E+03  0.12275192285E+03  0.00000000000E+00 0.  1.
         12    1    6    6    0    0 -0.43636297685E+02  0.18857445781E+02  0.10540152032E+03  0.11562530097E+03  0.00000000000E+00 0. -1.
         -5    1    3    3    0  503  0.39394700078E+02 -0.22675211605E+02 -0.19428676422E+02  0.49655524195E+02  0.47000000000E+01 0.  1.
         11    1    4    4    0    0 -0.10353446903E+02  0.64364872980E+01  0.97532175700E+02  0.98291136571E+02  0.00000000000E+00 0. -1.
        -12    1    4    4    0    0 -0.30735670948E+02  0.46933773156E+02  0.21604488214E+02  0.60118336988E+02  0.00000000000E+00 0.  1.
</event>
<event>
12    1  0.8113184E-002  0.1724917E+03  0.7818608E-02  0.1175675E+00
         21   -1    0    0  503  502  0.00000000000E+00  0.00000000000E+00  0.64890680348E+03  0.64890680348E+03  0.00000000000E+00 0.  1.
         21   -1    0    0  501  503 -0.00000000000E+00 -0.00000000000E+00 -0.54744243245E+02  0.54744243245E+02  0.00000000000E+00 0.  1.
          6    2    1    2  501    0 -0.10171922742E+02 -0.45630276587E+01  0.15090340091E+03  0.22801246300E+03  0.17056833717E+03 0.  0.
         24    2    3    3    0    0  0.37611387920E+02  0.49926679546E+01  0.24272566002E+02  0.92247907811E+02  0.80504507952E+02 0.  0.
         -6    2    1    2    0  502  0.10171922742E+02  0.45630276587E+01  0.44325915933E+03  0.47563858373E+03  0.17213102791E+03 0.  0.
        -24    2    5    5    0    0 -0.55347230538E+01 -0.27007722808E+02  0.42924149235E+03  0.43740252751E+03  0.79452262857E+02 0.  0.
          5    1    3    3  501    0 -0.47783310662E+02 -0.95556956133E+01  0.12663083491E+03  0.13576455519E+03  0.47000000000E+01 0. -1.
        -13    1    4    4    0    0 -0.44016834283E+01 -0.31743786025E+02  0.18439210139E+01  0.32100511100E+02  0.00000000000E+00 0.  1.
         14    1    4    4    0    0  0.42013071348E+02  0.36736453979E+02  0.22428644988E+02  0.60147396711E+02  0.00000000000E+00 0. -1.
         -5    1    5    5    0  502  0.15706645796E+02  0.31570750467E+02  0.14017666984E+02  0.38236056215E+02  0.47000000000E+01 0.  1.
         11    1    6    6    0    0  0.22804024659E+01  0.27816402597E+02  0.11655376002E+03  0.11984878582E+03  0.00000000000E+00 0. -1.
        -12    1    6    6    0    0 -0.78151255197E+01 -0.54824125405E+02  0.31268773233E+03  0.31755374169E+03  0.00000000000E+00 0.  1.
</event>
<event>
12    1  0.8113184E-002  0.2334075E+03  0.7818608E-02  0.1124335E+00
         21   -1    0    0  501  502  0.00000000000E+00  0.00000000000E+00  0.14130675978E+04  0.14130675978E+04  0.00000000000E+00 0. -1.
         21   -1    0    0  502  503 -0.00000000000E+00 -0.00000000000E+00 -0.44297560409E+02  0.44297560409E+02  0.00000000000E+00 0.  1.
         -6    2    1    2    0  503  0.15714517860E+03  0.20672416963E+02  0.42097544623E+03  0.48135161744E+03  0.17133912950E+03 0.  0.
        -24    2    3    3    0    0  0.12318470968E+02 -0.24874531353E+02  0.14607771231E+03  0.16728131661E+03  0.76641071346E+02 0.  0.
          6    2    1    2  501    0 -0.15714517860E+03 -0.20672416963E+02  0.94779459112E+03  0.97601354073E+03  0.17078023527E+03 0.  0.
         24    2    5    5    0    0 -0.55509932342E+02 -0.37416128707E+02  0.25064798066E+03  0.27128269733E+03  0.79300519465E+02 0.  0.
          5    1    5    5  501    0 -0.10163524626E+03  0.16743711744E+02  0.69714661046E+03  0.70473084340E+03  0.47000000000E+01 0. -1.
        -13    1    6    6    0    0 -0.59916793525E+02  0.37992168521E+01  0.11939075846E+03  0.13363610815E+03  0.00000000000E+00 0.  1.
         14    1    6    6    0    0  0.44068611824E+01 -0.41215345559E+02  0.13125722220E+03  0.13764658919E+03  0.00000000000E+00 0. -1.
         -5    1    3    3    0  503  0.14482670763E+03  0.45546948316E+02  0.27489773393E+03  0.31407030083E+03  0.47000000000E+01 0.  1.
         11    1    4    4    0    0  0.13517026040E+02 -0.35370425872E+02  0.15096513970E+03  0.15564141616E+03  0.00000000000E+00 0. -1.
        -12    1    4    4    0    0 -0.11985550720E+01  0.10495894519E+02 -0.48874273928E+01  0.11639900452E+02  0.00000000000E+00 0.  1.
</event>
<event>
12    1  0.8113184E-002  0.2392892E+03  0.7818608E-02  0.1120386E+00
         21   -1    0    0  501  502  0.00000000000E+00  0.00000000000E+00  0.71707824872E+02  0.71707824872E+02  0.00000000000E+00 0. -1.
         21   -1    0    0  502  503 -0.00000000000E+00 -0.00000000000E+00 -0.96575609692E+03  0.96575609692E+03  0.00000000000E+00 0. -1.
         -6    2    1    2    0  503 -0.10217611724E+03  0.13314424491E+03 -0.66386518112E+03  0.70543446480E+03  0.16956844206E+03 0.  0.
        -24    2    3    3    0    0 -0.10846988935E+03  0.36612643077E+02 -0.43666504772E+03  0.45845278059E+03  0.79977406824E+02 0.  0.
          6    2    1    2  501    0  0.10217611724E+03 -0.13314424491E+03 -0.23018309093E+03  0.33202945699E+03  0.17056364229E+03 0.  0.
         24    2    5    5    0    0  0.35043316639E+02 -0.13324157192E+03 -0.10036722957E+03  0.18580678347E+03  0.73954239131E+02 0.  0.
          5    1    5    5  501    0  0.67132800603E+02  0.97327007583E-01 -0.12981586136E+03  0.14622267351E+03  0.47000000000E+01 0. -1.
        -11    1    6    6    0    0  0.49653567432E+02 -0.10031559401E+03 -0.46951978915E+02  0.12138032578E+03  0.00000000000E+00 0.  1.
         12    1    6    6    0    0 -0.14610250793E+02 -0.32925977901E+02 -0.53415250655E+02  0.64426457698E+02  0.00000000000E+00 0. -1.
         -5    1    3    3    0  503  0.62937721106E+01  0.96531601832E+02 -0.22720013340E+03  0.24698168421E+03  0.47000000000E+01 0.  1.
         11    1    4    4    0    0 -0.86298570143E+02  0.22596078600E+02 -0.18458115934E+03  0.20500787877E+03  0.00000000000E+00 0. -1.
        -12    1    4    4    0    0 -0.22171319209E+02  0.14016564477E+02 -0.25208388839E+03  0.25344490182E+03  0.00000000000E+00 0.  1.
</event>
<event>
12    1  0.8113184E-002  0.2227958E+03  0.7818608E-02  0.1132234E+00
         21   -1    0    0  501  502  0.00000000000E+00  0.00000000000E+00  0.91449638020E+02  0.91449638020E+02  0.00000000000E+00 0. -1.
         21   -1    0    0  502  503 -0.00000000000E+00 -0.00000000000E+00 -0.84210543062E+03  0.84210543062E+03  0.00000000000E+00 0.  1.
         -6    2    1    2    0  503  0.12176688710E+03 -0.70176676552E+02 -0.65493771185E+03  0.69106808649E+03  0.16994043968E+03 0.  0.
        -24    2    3    3    0    0  0.15189470305E+03 -0.77341890295E+02 -0.53058346909E+03  0.56282966294E+03  0.78769556358E+02 0.  0.
          6    2    1    2  501    0 -0.12176688710E+03  0.70176676552E+02 -0.95718080752E+02  0.24248698215E+03  0.17287580746E+03 0.  0.
         24    2    5    5    0    0 -0.89968796597E+02 -0.28953165788E+02 -0.69687378091E+02  0.13507407937E+03  0.66753322640E+02 0.  0.
          5    1    5    5  501    0 -0.31798090501E+02  0.99129842340E+02 -0.26030702661E+02  0.10741290278E+03  0.47000000000E+01 0. -1.
        -13    1    6    6    0    0  0.10647691613E+02 -0.44525407370E+01 -0.30764135860E+01  0.11944152387E+02  0.00000000000E+00 0.  1.
         14    1    6    6    0    0 -0.10061648821E+03 -0.24500625051E+02 -0.66610964505E+02  0.12312992699E+03  0.00000000000E+00 0. -1.
         -5    1    3    3    0  503 -0.30127815950E+02  0.71652137437E+01 -0.12435424276E+03  0.12823842355E+03  0.47000000000E+01 0.  1.
         13    1    4    4    0    0  0.19502654954E+02  0.15902440750E+02 -0.56416058730E+02  0.61773884893E+02  0.00000000000E+00 0. -1.
        -14    1    4    4    0    0  0.13239204809E+03 -0.93244331046E+02 -0.47416741036E+03  0.50105577805E+03  0.00000000000E+00 0.  1.
</event>
<event>
12    1  0.8113184E-002  0.1776509E+03  0.7818608E-02  0.1170105E+00
         21   -1    0    0  501  502  0.00000000000E+00  0.00000000000E+00  0.12749247388E+04  0.12749247388E+04  0.00000000000E+00 0. -1.
         21   -1    0    0  502  503 -0.00000000000E+00 -0.00000000000E+00 -0.25249193203E+02  0.25249193203E+02  0.00000000000E+00 0. -1.
         -6    2    1    2    0  503  0.30122704409E+02 -0.33464473498E+02  0.53327864708E+03  0.56207884818E+03  0.17181172205E+03 0.  0.
        -24    2    3    3    0    0  0.66113780875E+01 -0.28569003552E+02  0.53061621842E+03  0.53746327145E+03  0.80332425766E+02 0.  0.
          6    2    1    2  501    0 -0.30122704409E+02  0.33464473498E+02  0.71639689851E+03  0.73809508381E+03  0.17185048225E+03 0.  0.
         24    2    5    5    0    0 -0.65422332150E+02 -0.71617758122E+01  0.32365520471E+03  0.34165507083E+03  0.87430677148E+02 0.  0.
          5    1    5    5  501    0  0.35299627741E+02  0.40626249311E+02  0.39274169379E+03  0.39644001298E+03  0.47000000000E+01 0. -1.
        -11    1    6    6    0    0 -0.77992610623E+02 -0.88663732158E+01  0.31838524106E+03  0.32791862041E+03  0.00000000000E+00 0.  1.
         12    1    6    6    0    0  0.12570278473E+02  0.17045974036E+01  0.52699636548E+01  0.13736450419E+02  0.00000000000E+00 0. -1.
         -5    1    3    3    0  503  0.23511326322E+02 -0.48954699462E+01  0.26624286668E+01  0.24615576731E+02  0.47000000000E+01 0.  1.
         11    1    4    4    0    0 -0.19035820084E+02 -0.48892495029E+02  0.30350880329E+03  0.30801044169E+03  0.00000000000E+00 0. -1.
        -12    1    4    4    0    0  0.25647198172E+02  0.20323491477E+02  0.22710741512E+03  0.22945282976E+03  0.00000000000E+00 0.  1.
</event>
<event>
12    1  0.8113184E-002  0.2041641E+03  0.7818608E-02  0.1147711E+00
         21   -1    0    0  501  502  0.00000000000E+00  0.00000000000E+00  0.93872501497E+03  0.93872501497E+03  0.00000000000E+00 0.  1.
         21   -1    0    0  502  503 -0.00000000000E+00 -0.00000000000E+00 -0.59943850701E+02  0.59943850701E+02  0.00000000000E+00 0. -1.
         -6    2    1    2    0  503 -0.80280158171E+02 -0.51920440164E+02  0.17871294669E+03  0.27133241451E+03  0.18039491663E+03 0.  0.
        -24    2    3    3    0    0 -0.23427428604E+02 -0.30941965135E+02  0.62479217564E+01  0.88470160068E+02  0.79257069583E+02 0.  0.
          6    2    1    2  501    0  0.80280158171E+02  0.51920440164E+02  0.70006821758E+03  0.72733645116E+03  0.17257510835E+03 0.  0.
         24    2    5    5    0    0  0.76619265976E+02  0.24422299110E+02  0.22660894859E+03  0.25304190209E+03  0.78813882136E+02 0.  0.
          5    1    5    5  501    0  0.36608921953E+01  0.27498141055E+02  0.47345926898E+03  0.47429454907E+03  0.47000000000E+01 0. -1.
        -11    1    6    6    0    0  0.26116796911E+02 -0.27644861980E+02  0.10198916783E+03  0.10884905066E+03  0.00000000000E+00 0.  1.
         12    1    6    6    0    0  0.50502469064E+02  0.52067161090E+02  0.12461978076E+03  0.14419285143E+03  0.00000000000E+00 0. -1.
         -5    1    3    3    0  503 -0.56852729567E+02 -0.20978475029E+02  0.17246502493E+03  0.18286225444E+03  0.47000000000E+01 0.  1.
         13    1    4    4    0    0  0.68962431569E+01 -0.50916469885E+02 -0.12336754589E+01  0.51396177196E+02  0.00000000000E+00 0. -1.
        -14    1    4    4    0    0 -0.30323671761E+02  0.19974504750E+02  0.74815972153E+01  0.37073982872E+02  0.00000000000E+00 0.  1.
</event>
<event>
12    1  0.8113184E-002  0.2103549E+03  0.7818608E-02  0.1143619E+00
         21   -1    0    0  503  502  0.00000000000E+00  0.00000000000E+00  0.10645819618E+04  0.10645819618E+04  0.00000000000E+00 0. -1.
         21   -1    0    0  501  503 -0.00000000000E+00 -0.00000000000E+00 -0.69321860533E+02  0.69321860533E+02  0.00000000000E+00 0. -1.
          6    2    1    2  501    0 -0.73800026049E+01 -0.12253425990E+03  0.87837545008E+03  0.90321239726E+03  0.17082181937E+03 0.  0.
         24    2    3    3    0    0  0.52171843505E+02 -0.12026719715E+03  0.61802973118E+03  0.63609155326E+03  0.73929801472E+02 0.  0.
         -6    2    1    2    0  502  0.73800026049E+01  0.12253425990E+03  0.11688465115E+03  0.23069142504E+03  0.15648451241E+03 0.  0.
        -24    2    5    5    0    0  0.14440965284E+02  0.14965270522E+03  0.97951469240E+02  0.19654727989E+03  0.80198935457E+02 0.  0.
          5    1    3    3  501    0 -0.59551846109E+02 -0.22670627530E+01  0.26034571891E+03  0.26712084400E+03  0.47000000000E+01 0. -1.
        -13    1    4    4    0    0 -0.12910630397E+01 -0.76735139490E+02  0.24482764771E+03  0.25657460038E+03  0.00000000000E+00 0.  1.
         14    1    4    4    0    0  0.53462906544E+02 -0.43532057657E+02  0.37320208347E+03  0.37951695289E+03  0.00000000000E+00 0. -1.
         -5    1    5    5    0  502 -0.70609626790E+01 -0.27118445319E+02  0.18933181910E+02  0.34144145145E+02  0.47000000000E+01 0.  1.
         11    1    6    6    0    0  0.47349176391E+02  0.82648174395E+02  0.62350284360E+02  0.11384297605E+03  0.00000000000E+00 0. -1.
        -12    1    6    6    0    0 -0.32908211107E+02  0.67004530823E+02  0.35601184879E+02  0.82704303842E+02  0.00000000000E+00 0.  1.
</event>
<event>
12    1  0.8113184E-002  0.2131710E+03  0.7818608E-02  0.1139148E+00
         21   -1    0    0  503  502  0.00000000000E+00  0.00000000000E+00  0.67214921843E+02  0.67214921843E+02  0.00000000000E+00 0. -1.
         21   -1    0    0  501  503 -0.00000000000E+00 -0.00000000000E+00 -0.68246550396E+03  0.68246550396E+03  0.00000000000E+00 0. -1.
          6    2    1    2  501    0 -0.84815322581E+02 -0.93330803713E+02 -0.26854452634E+03  0.34286736207E+03  0.17186502693E+03 0.  0.
         24    2    3    3    0    0 -0.89830306903E+02 -0.14181642702E+02 -0.96991068368E+02  0.15381070734E+03  0.77329575978E+02 0.  0.
         -6    2    1    2    0  502  0.84815322581E+02  0.93330803713E+02 -0.34670605578E+03  0.40681306373E+03  0.17142783276E+03 0.  0.
        -24    2    5    5    0    0  0.94025719003E+02  0.57633963988E+01 -0.23130288158E+03  0.26157923558E+03  0.77772880142E+02 0.  0.
          5    1    3    3  501    0  0.50149843218E+01 -0.79149161011E+02 -0.17155345797E+03  0.18905665473E+03  0.47000000000E+01 0. -1.
        -11    1    4    4    0    0 -0.36385553107E+02  0.26756256289E+02 -0.65313745521E+02  0.79408381671E+02  0.00000000000E+00 0.  1.
         12    1    4    4    0    0 -0.53444753795E+02 -0.40937898991E+02 -0.31677322847E+02  0.74402325668E+02  0.00000000000E+00 0. -1.
         -5    1    5    5    0  502 -0.92103964224E+01  0.87567407314E+02 -0.11540317420E+03  0.14523382816E+03  0.47000000000E+01 0.  1.
         13    1    6    6    0    0  0.51439448273E+02  0.40455562244E+02 -0.10324782449E+03  0.12224067497E+03  0.00000000000E+00 0. -1.
        -14    1    6    6    0    0  0.42586270730E+02 -0.34692165845E+02 -0.12805505709E+03  0.13933856061E+03  0.00000000000E+00 0.  1.
</event>
<event>
12    1  0.8113184E-002  0.2261907E+03  0.7818608E-02  0.1129467E+00
         21   -1    0    0  501  502  0.00000000000E+00  0.00000000000E+00  0.52996930223E+03  0.52996930223E+03  0.00000000000E+00 0. -1.
         21   -1    0    0  502  503 -0.00000000000E+00 -0.00000000000E+00 -0.10792134710E+03  0.10792134710E+03  0.00000000000E+00 0. -1.
         -6    2    1    2    0  503 -0.10604988812E+03 -0.99886837443E+02  0.10591374122E+03  0.24917085019E+03  0.17217558753E+03 0.  0.
        -24    2    3    3    0    0 -0.79292816645E+02 -0.13405966221E+03  0.57570722714E+02  0.18403360843E+03  0.79338749144E+02 0.  0.
          6    2    1    2  501    0  0.10604988812E+03  0.99886837443E+02  0.31613421391E+03  0.38871979914E+03  0.17302682443E+03 0.  0.
         24    2    5    5    0    0 -0.90842115861E+01  0.77628325413E+02  0.13049252601E+03  0.16909232236E+03  0.73859558137E+02 0.  0.
          5    1    5    5  501    0  0.11513409971E+03  0.22258512030E+02  0.18564168790E+03  0.21962747678E+03  0.47000000000E+01 0. -1.
        -11    1    6    6    0    0  0.11310089733E+02 -0.10168683380E+02  0.85304513121E+01  0.17438143566E+02  0.00000000000E+00 0.  1.
         12    1    6    6    0    0 -0.20394301319E+02  0.87797008793E+02  0.12196207470E+03  0.15165417879E+03  0.00000000000E+00 0. -1.
         -5    1    3    3    0  503 -0.26757071473E+02  0.34172824765E+02  0.48343018503E+02  0.65137241761E+02  0.47000000000E+01 0.  1.
         11    1    4    4    0    0 -0.23392577679E+02 -0.59933424622E+02 -0.15156597675E+02  0.66098037266E+02  0.00000000000E+00 0. -1.
        -12    1    4    4    0    0 -0.55900238966E+02 -0.74126237586E+02  0.72727320389E+02  0.11793557117E+03  0.00000000000E+00 0.  1.
</event>
<event>
12    1  0.8113184E-002  0.1798905E+03  0.7818608E-02  0.1168779E+00
         21   -1    0    0  501  502  0.00000000000E+00  0.00000000000E+00  0.99475099821E+02  0.99475099821E+02  0.00000000000E+00 0.  1.
         21   -1    0    0  502  503 -0.00000000000E+00 -0.00000000000E+00 -0.31973334656E+03  0.31973334656E+03  0.00000000000E+00 0.  1.
         -6    2    1    2    0  503  0.31329708946E+02  0.29462367979E+02 -0.12183367217E+03  0.21726490805E+03  0.17467402441E+03 0.  0.
        -24    2    3    3    0    0 -0.42017919526E+02 -0.10797345240E+02 -0.93535206631E+02  0.12881372229E+03  0.77214324732E+02 0.  0.
          6    2    1    2  501    0 -0.31329708946E+02 -0.29462367979E+02 -0.98424574567E+02  0.20194353833E+03  0.17100939742E+03 0.  0.
         24    2    5    5    0    0  0.75050514257E+01 -0.68908857700E+02 -0.11088085786E+03  0.14501012848E+03  0.62678674639E+02 0.  0.
          5    1    5    5  501    0 -0.38834760372E+02  0.39446489720E+02  0.12456283294E+02  0.56933409856E+02  0.47000000000E+01 0. -1.
        -11    1    6    6    0    0  0.63157783366E+01 -0.80779623382E+02 -0.91189902931E+02  0.12198702802E+03  0.00000000000E+00 0.  1.
         12    1    6    6    0    0  0.11892730891E+01  0.11870765682E+02 -0.19690954929E+02  0.23023100451E+02  0.00000000000E+00 0. -1.
         -5    1    3    3    0  503  0.73347628472E+02  0.40259713220E+02 -0.28298465543E+02  0.88451185764E+02  0.47000000000E+01 0.  1.
         13    1    4    4    0    0  0.14748404263E+02 -0.25745910524E+02 -0.27440426069E+02  0.40414654766E+02  0.00000000000E+00 0. -1.
        -14    1    4    4    0    0 -0.56766323790E+02  0.14948565284E+02 -0.66094780562E+02  0.88399067519E+02  0.00000000000E+00 0.  1.
</event>
<event>
12    1  0.8113184E-002  0.2192260E+03  0.7818608E-02  0.1134609E+00
         21   -1    0    0  501  502  0.00000000000E+00  0.00000000000E+00  0.23871611578E+03  0.23871611578E+03  0.00000000000E+00 0.  1.
         21   -1    0    0  502  503 -0.00000000000E+00 -0.00000000000E+00 -0.32456176071E+03  0.32456176071E+03  0.00000000000E+00 0.  1.
         -6    2    1    2    0  503 -0.12840163949E+03 -0.41145079476E+02 -0.21692686550E+03  0.30785207472E+03  0.17185964140E+03 0.  0.
        -24    2    3    3    0    0 -0.32962637630E+02 -0.99807593008E+01 -0.23751664101E+02  0.90094029250E+02  0.79791237133E+02 0.  0.
          6    2    1    2  501    0  0.12840163949E+03  0.41145079476E+02  0.13108122058E+03  0.25542580178E+03  0.17285877251E+03 0.  0.
         24    2    5    5    0    0  0.66965394041E+02 -0.31344626130E+02  0.11760062701E+03  0.15933737335E+03  0.78048968523E+02 0.  0.
          5    1    5    5  501    0  0.61436245453E+02  0.72489705607E+02  0.13480593573E+02  0.96088428426E+02  0.47000000000E+01 0. -1.
        -11    1    6    6    0    0  0.82394168213E+02 -0.27691471818E+02  0.78418036465E+02  0.11706837750E+03  0.00000000000E+00 0.  1.
         12    1    6    6    0    0 -0.15428774172E+02 -0.36531543125E+01  0.39182590541E+02  0.42268995852E+02  0.00000000000E+00 0. -1.
         -5    1    3    3    0  503 -0.95439001864E+02 -0.31164320176E+02 -0.19317520140E+03  0.21775804547E+03  0.47000000000E+01 0.  1.
         13    1    4    4    0    0 -0.18013660379E+01 -0.30753690302E+02 -0.38964541313E+02  0.49671620333E+02  0.00000000000E+00 0. -1.
        -14    1    4    4    0    0 -0.31161271592E+02  0.20772931001E+02  0.15212877211E+02  0.40422408917E+02  0.00000000000E+00 0.  1.
</event>
<event>
12    1  0.8113184E-002  0.2190641E+03  0.7818608E-02  0.1134936E+00
         21   -1    0    0  503  502  0.00000000000E+00  0.00000000000E+00  0.48305943835E+03  0.48305943835E+03  0.00000000000E+00 0. -1.
         21   -1    0    0  501  503 -0.00000000000E+00 -0.00000000000E+00 -0.10727612467E+03  0.10727612467E+03  0.00000000000E+00 0.  1.
          6    2    1    2  501    0 -0.12277465153E+03 -0.54050767527E+02  0.27159537333E+03  0.34775727794E+03  0.17080976851E+03 0.  0.
         24    2    3    3    0    0 -0.59050766202E+02 -0.87952231935E+02  0.22680783166E+03  0.26268050826E+03  0.79603196085E+02 0.  0.
         -6    2    1    2    0  502  0.12277465153E+03  0.54050767527E+02  0.10418794036E+03  0.24257828509E+03  0.17318775058E+03 0.  0.
        -24    2    5    5    0    0  0.10844921615E+03  0.10362923939E+03  0.78413719275E+02  0.18470218084E+03  0.73931945030E+02 0.  0.
          5    1    3    3  501    0 -0.63723885323E+02  0.33901464409E+02  0.44787541666E+02  0.85076769674E+02  0.47000000000E+01 0. -1.
        -11    1    4    4    0    0 -0.62070391900E+02 -0.86716470261E+02  0.14088043328E+03  0.17669118893E+03  0.00000000000E+00 0.  1.
         12    1    4    4    0    0  0.30196256979E+01 -0.12357616741E+01  0.85927398384E+02  0.85989319333E+02  0.00000000000E+00 0. -1.
         -5    1    5    5    0  502  0.14325435371E+02 -0.49578471859E+02  0.25774221083E+02  0.57876104247E+02  0.47000000000E+01 0.  1.
         11    1    6    6    0    0  0.10771792315E+03  0.71622844060E+02  0.41523546912E+02  0.13585723281E+03  0.00000000000E+00 0. -1.
        -12    1    6    6    0    0  0.73129300863E+00  0.32006395326E+02  0.36890172362E+02  0.48844948031E+02  0.00000000000E+00 0.  1.
</event>
<event>
12    1  0.8113184E-002  0.1861655E+03  0.7818608E-02  0.1161973E+00
         21   -1    0    0  501  502  0.00000000000E+00  0.00000000000E+00  0.23381139014E+03  0.23381139014E+03  0.00000000000E+00 0. -1.
         21   -1    0    0  502  503 -0.00000000000E+00 -0.00000000000E+00 -0.28645653633E+03  0.28645653633E+03  0.00000000000E+00 0. -1.
         -6    2    1    2    0  503  0.47698729262E+02  0.52607140158E+02 -0.20704345235E+03  0.27843234419E+03  0.17208979969E+03 0.  0.
        -24    2    3    3    0    0  0.35686117530E+02  0.10196702038E+03 -0.13035762497E+03  0.18632639032E+03  0.77805148375E+02 0.  0.
          6    2    1    2  501    0 -0.47698729262E+02 -0.52607140158E+02  0.15439830616E+03  0.24183558229E+03  0.17205502592E+03 0.  0.
         24    2    5    5    0    0  0.40047313021E+02 -0.12448273871E+02  0.84774618080E+02  0.12274884743E+03  0.78241912498E+02 0.  0.
          5    1    5    5  501    0 -0.87746042283E+02 -0.40158866287E+02  0.69623688081E+02  0.11908673486E+03  0.47000000000E+01 0. -1.
        -13    1    6    6    0    0  0.22206642817E+02 -0.36164594604E+02  0.11918600229E+02  0.44080221409E+02  0.00000000000E+00 0.  1.
         14    1    6    6    0    0  0.17840670204E+02  0.23716320733E+02  0.72856017850E+02  0.78668626017E+02  0.00000000000E+00 0. -1.
         -5    1    3    3    0  503  0.12012611732E+02 -0.49359880217E+02 -0.76685827385E+02  0.92105953865E+02  0.47000000000E+01 0.  1.
         11    1    4    4    0    0 -0.17704307749E+02  0.67012811622E+02 -0.68766803675E+02  0.97637250688E+02  0.00000000000E+00 0. -1.
        -12    1    4    4    0    0  0.53390425278E+02  0.34954208753E+02 -0.61590821294E+02  0.88689139632E+02  0.00000000000E+00 0.  1.
</event>
<event>
12    1  0.8113184E-002  0.2176411E+03  0.7818608E-02  0.1135903E+00
         21   -1    0    0  503  502  0.00000000000E+00  0.00000000000E+00  0.57944492367E+02  0.57944492367E+02  0.00000000000E+00 0.  1.
         21   -1    0    0  501  503 -0.00000000000E+00 -0.00000000000E+00 -0.15081163398E+04  0.15081163398E+04  0.00000000000E+00 0. -1.
          6    2    1    2  501    0  0.12126108202E+03 -0.53459435244E+02 -0.12556845409E+04  0.12741824831E+04  0.17098296049E+03 0.  0.
         24    2    3    3    0    0 -0.52593761904E+00 -0.56106941282E+02 -0.60097226617E+03  0.60821751397E+03  0.74917381974E+02 0.  0.
         -6    2    1    2    0  502 -0.12126108202E+03  0.53459435244E+02 -0.19448730653E+03  0.29187834906E+03  0.17264268597E+03 0.  0.
        -24    2    5    5    0    0 -0.22381992794E+02  0.33455985008E+02 -0.22606427493E+02  0.92523542531E+02  0.80182908554E+02 0.  0.
          5    1    3    3  501    0  0.12178701963E+03  0.26475060374E+01 -0.65471227477E+03  0.66596496918E+03  0.47000000000E+01 0. -1.
        -11    1    4    4    0    0  0.10807768890E+02 -0.64674804345E+02 -0.30807910899E+03  0.31497996060E+03  0.00000000000E+00 0.  1.
         12    1    4    4    0    0 -0.11333706509E+02  0.85678630635E+01 -0.29289315718E+03  0.29323755337E+03  0.00000000000E+00 0. -1.
         -5    1    5    5    0  502 -0.98879089221E+02  0.20003450236E+02 -0.17188087904E+03  0.19935480653E+03  0.47000000000E+01 0.  1.
         13    1    6    6    0    0 -0.31214258558E+02 -0.18466607095E+02 -0.15251487117E+02  0.39344038611E+02  0.00000000000E+00 0. -1.
        -14    1    6    6    0    0  0.88322657640E+01  0.51922592103E+02 -0.73549403764E+01  0.53179503920E+02  0.00000000000E+00 0.  1.
</event>
<event>
12    1  0.8113184E-002  0.1755169E+03  0.7818608E-02  0.1172236E+00
         21   -1    0    0  501  502  0.00000000000E+00  0.00000000000E+00  0.33939361223E+03  0.33939361223E+03  0.00000000000E+00 0.  1.
         21   -1    0    0  502  503 -0.00000000000E+00 -0.00000000000E+00 -0.10280320130E+03  0.10280320130E+03  0.00000000000E+00 0.  1.
         -6    2    1    2    0  503  0.31115917402E+02  0.20338282124E+02  0.19411720530E+03  0.26170146897E+03  0.17153519591E+03 0.  0.
        -24    2    3    3    0    0  0.60261385904E+02  0.51772257045E+02  0.75099827462E+02  0.13511245152E+03  0.79395146196E+02 0.  0.
          6    2    1    2  501    0 -0.31115917402E+02 -0.20338282124E+02  0.42473205636E+02  0.18049534455E+03  0.17144313976E+03 0.  0.
         24    2    5    5    0    0 -0.70135373898E+02 -0.92075058530E+01  0.73329286258E+02  0.12930354954E+03  0.79614539274E+02 0.  0.
          5    1    5    5  501    0  0.39019456496E+02 -0.11130776271E+02 -0.30856080622E+02  0.51191795016E+02  0.47000000000E+01 0. -1.
        -13    1    6    6    0    0 -0.18790928655E+02  0.21640666273E+02 -0.66101058293E+01  0.29412768240E+02  0.00000000000E+00 0.  1.
         14    1    6    6    0    0 -0.51344445243E+02 -0.30848172126E+02  0.79939392087E+02  0.99890781297E+02  0.00000000000E+00 0. -1.
         -5    1    3    3    0  503 -0.29145468502E+02 -0.31433974922E+02  0.11901737784E+03  0.12658901746E+03  0.47000000000E+01 0.  1.
         11    1    4    4    0    0  0.25419796629E+02 -0.13070212125E+02 -0.18260959066E+01  0.28641423357E+02  0.00000000000E+00 0. -1.
        -12    1    4    4    0    0  0.34841589275E+02  0.64842469170E+02  0.76925923369E+02  0.10647102816E+03  0.00000000000E+00 0.  1.
</event>
<event>
12    1  0.8113184E-002  0.1933186E+03  0.7818608E-02  0.1155703E+00
         21   -1    0    0  501  502  0.00000000000E+00  0.00000000000E+00  0.47964794090E+02  0.47964794090E+02  0.00000000000E+00 0. -1.
         21   -1    0    0  502  503 -0.00000000000E+00 -0.00000000000E+00 -0.79194319462E+03  0.79194319462E+03  0.00000000000E+00 0.  1.
         -6    2    1    2    0  503 -0.36274994761E+01  0.87327493657E+02 -0.43339290596E+03  0.47455399231E+03  0.17243210486E+03 0.  0.
        -24    2    3    3    0    0  0.50625796102E+02  0.83273559032E+02 -0.21291107859E+03  0.24741046793E+03  0.79895903483E+02 0.  0.
          6    2    1    2  501    0  0.36274994761E+01 -0.87327493657E+02 -0.31058549457E+03  0.36535399639E+03  0.17140870265E+03 0.  0.
         24    2    5    5    0    0  0.67976374781E+02 -0.65809054380E+02 -0.20526922520E+03  0.23998483122E+03  0.80657580151E+02 0.  0.
          5    1    5    5  501    0 -0.64348875305E+02 -0.21518439277E+02 -0.10531626937E+03  0.12536916517E+03  0.47000000000E+01 0. -1.
        -13    1    6    6    0    0  0.75240393731E+02 -0.67702429253E+02 -0.13203556588E+03  0.16636744403E+03  0.00000000000E+00 0.  1.
         14    1    6    6    0    0 -0.72640189502E+01  0.18933748736E+01 -0.73233659319E+02  0.73617387192E+02  0.00000000000E+00 0. -1.
         -5    1    3    3    0  503 -0.54253295578E+02  0.40539346253E+01 -0.22048182737E+03  0.22714352438E+03  0.47000000000E+01 0.  1.
         11    1    4    4    0    0  0.15209235303E+00  0.47324241092E+01  0.70292508649E+01  0.84752190388E+01  0.00000000000E+00 0. -1.
        -12    1    4    4    0    0  0.50473703749E+02  0.78541134922E+02 -0.21994032945E+03  0.23893524890E+03  0.00000000000E+00 0.  1.
</event>
<event>
12    1  0.8113184E-002  0.1856443E+03  0.7818608E-02  0.1164698E+00
         21   -1    0    0  503  502  0.00000000000E+00  0.00000000000E+00  0.50377608445E+02  0.50377608445E+02  0.00000000000E+00 0.  1.
         21   -1    0    0  501  503 -0.00000000000E+00 -0.00000000000E+00 -0.79587260783E+03  0.79587260783E+03  0.00000000000E+00 0.  1.
          6    2    1    2  501    0 -0.36257136017E+02 -0.58808412717E+02 -0.18365694014E+03  0.25453592088E+03  0.16212851086E+03 0.  0.
         24    2    3    3    0    0  0.21422518555E+00 -0.28356248610E+02 -0.18845970604E+03  0.20654997453E+03  0.79634844424E+02 0.  0.
         -6    2    1    2    0  502  0.36257136017E+02  0.58808412717E+02 -0.56183805924E+03  0.59171429540E+03  0.17231016583E+03 0.  0.
        -24    2    5    5    0    0  0.60029349560E+02 -0.15612688605E+02 -0.37025609322E+03  0.38476174489E+03  0.84289660744E+02 0.  0.
          5    1    3    3  501    0 -0.36471361202E+02 -0.30452164108E+02  0.48027659015E+01  0.47985946350E+02  0.47000000000E+01 0. -1.
        -11    1    4    4    0    0 -0.30075133704E+02 -0.17556705760E+02 -0.33615734408E+02  0.48402160946E+02  0.00000000000E+00 0.  1.
         12    1    4    4    0    0  0.30289358890E+02 -0.10799542849E+02 -0.15484397164E+03  0.15814781358E+03  0.00000000000E+00 0. -1.
         -5    1    5    5    0  502 -0.23772213544E+02  0.74421101322E+02 -0.19158196602E+03  0.20695255051E+03  0.47000000000E+01 0.  1.
         13    1    6    6    0    0 -0.54142352386E+01 -0.17304319846E+02 -0.15022672851E+02  0.23546424954E+02  0.00000000000E+00 0. -1.
        -14    1    6    6    0    0  0.65443584799E+02  0.16916312407E+01 -0.35523342037E+03  0.36121531994E+03  0.00000000000E+00 0.  1.
</event>
<event>
12    1  0.8113184E-002  0.2272494E+03  0.7818608E-02  0.1128724E+00
         21   -1    0    0  503  502  0.00000000000E+00  0.00000000000E+00  0.37804041816E+03  0.37804041816E+03  0.00000000000E+00 0.  1.
         21   -1    0    0  501  503 -0.00000000000E+00 -0.00000000000E+00 -0.14663516267E+03  0.14663516267E+03  0.00000000000E+00 0.  1.
          6    2    1    2  501    0  0.11273489325E+03  0.95290103597E+02  0.18564391496E+03  0.29286444545E+03  0.17180384235E+03 0.  0.
         24    2    3    3    0    0  0.11190534363E+02  0.87910170743E+02  0.13098992557E+03  0.17721467767E+03  0.79957833897E+02 0.  0.
         -6    2    1    2    0  502 -0.11273489325E+03 -0.95290103597E+02  0.45761340523E+02  0.23181113538E+03  0.17278003993E+03 0.  0.
        -24    2    5    5    0    0 -0.10432574468E+03 -0.86216101037E+02 -0.27542933516E+02  0.15732182142E+03  0.75329046369E+02 0.  0.
          5    1    3    3  501    0  0.10154435889E+03  0.73799328539E+01  0.54653989393E+02  0.11564976778E+03  0.47000000000E+01 0. -1.
        -11    1    4    4    0    0  0.29334464101E+02  0.86541691986E+02  0.13011718808E+03  0.15899829518E+03  0.00000000000E+00 0.  1.
         12    1    4    4    0    0 -0.18143929737E+02  0.13684787568E+01  0.87273749270E+00  0.18216382493E+02  0.00000000000E+00 0. -1.
         -5    1    5    5    0  502 -0.84091485728E+01 -0.90740025599E+01  0.73304274038E+02  0.74489313962E+02  0.47000000000E+01 0.  1.
         13    1    6    6    0    0 -0.21413150513E+02  0.21405413815E+00 -0.30794722573E+02  0.37508449347E+02  0.00000000000E+00 0. -1.
        -14    1    6    6    0    0 -0.82912594166E+02 -0.86430155175E+02  0.32517890575E+01  0.11981337207E+03  0.00000000000E+00 0.  1.
</event>
<event>
12    1  0.8113184E-002  0.1892582E+03  0.7818608E-02  0.1161238E+00
         21   -1    0    0  503  502  0.00000000000E+00  0.00000000000E+00  0.60695686891E+03  0.60695686891E+03  0.00000000000E+00 0.  1.
         21   -1    0    0  501  503 -0.00000000000E+00 -0.00000000000E+00 -0.70452695108E+02  0.70452695108E+02  0.00000000000E+00 0.  1.
          6    2    1    2  501    0 -0.70078077498E+02  0.33247858672E+02  0.12132504309E+03  0.22480755954E+03  0.17263347211E+03 0.  0.
         24    2    3    3    0    0 -0.63230386871E+02  0.42348098997E+02  0.67292171450E+01  0.10955132949E+03  0.78516037322E+02 0.  0.
         -6    2    1    2    0  502  0.70078077498E+02 -0.33247858672E+02  0.41517913071E+03  0.45260200448E+03  0.16266071078E+03 0.  0.
        -24    2    5    5    0    0  0.98915946354E+02  0.96407850734E+01  0.25032450308E+03  0.27977203979E+03  0.75714782098E+02 0.  0.
          5    1    3    3  501    0 -0.68476906262E+01 -0.91002403249E+01  0.11459582594E+03  0.11525623005E+03  0.47000000000E+01 0. -1.
        -13    1    4    4    0    0 -0.17475148956E+02  0.57484000256E+02  0.11322793478E+02  0.61139159044E+02  0.00000000000E+00 0.  1.
         14    1    4    4    0    0 -0.45755237915E+02 -0.15135901259E+02 -0.45935763325E+01  0.48412170444E+02  0.00000000000E+00 0. -1.
         -5    1    5    5    0  502 -0.28837868857E+02 -0.42888643745E+02  0.16485462764E+03  0.17282996469E+03  0.47000000000E+01 0.  1.
         11    1    6    6    0    0  0.56486756709E+02  0.41739463599E+02  0.12059394073E+03  0.13955584920E+03  0.00000000000E+00 0. -1.
        -12    1    6    6    0    0  0.42429189645E+02 -0.32098678526E+02  0.12973056235E+03  0.14021619059E+03  0.00000000000E+00 0.  1.
</event>
<event>
12    1  0.8113184E-002  0.2608681E+03  0.7818608E-02  0.1106703E+00
         21   -1    0    0  503  502  0.00000000000E+00  0.00000000000E+00  0.54457243159E+03  0.54457243159E+03  0.00000000000E+00 0. -1.
         21   -1    0    0  501  503 -0.00000000000E+00 -0.00000000000E+00 -0.13010815546E+03  0.13010815546E+03  0.00000000000E+00 0.  1.
          6    2    1    2  501    0  0.18392931345E+03  0.68615255692E+02  0.13870177572E+03  0.29544943163E+03  0.17179679393E+03 0.  0.
         24    2    3    3    0    0  0.28235725478E+02 -0.21012606960E+01  0.21890156361E+02  0.88306091303E+02  0.80728652447E+02 0.  0.
         -6    2    1    2    0  502 -0.18392931345E+03 -0.68615255692E+02  0.27576250041E+03  0.37923115542E+03  0.17097738725E+03 0.  0.
        -24    2    5    5    0    0 -0.63031735484E+02 -0.75771785252E+02  0.19880092149E+03  0.23566021511E+03  0.79369814671E+02 0.  0.
          5    1    3    3  501    0  0.15569358797E+03  0.70716516388E+02  0.11681161936E+03  0.20714334033E+03  0.47000000000E+01 0. -1.
        -13    1    4    4    0    0  0.43420691237E+02  0.51688738618E+01 -0.16223374502E+02  0.46639806654E+02  0.00000000000E+00 0.  1.
         14    1    4    4    0    0 -0.15184965759E+02 -0.72701345578E+01  0.38113530863E+02  0.41666284649E+02  0.00000000000E+00 0. -1.
         -5    1    5    5    0  502 -0.12089757796E+03  0.71565295600E+01  0.76961578925E+02  0.14357094032E+03  0.47000000000E+01 0.  1.
         13    1    6    6    0    0 -0.54191393066E+02 -0.72140767231E+02  0.20519863447E+03  0.22415949003E+03  0.00000000000E+00 0. -1.
        -14    1    6    6    0    0 -0.88403424176E+01 -0.36310180210E+01 -0.63977129848E+01  0.11500725080E+02  0.00000000000E+00 0.  1.
</event>
<event>
12    1  0.8113184E-002  0.2258866E+03  0.7818608E-02  0.1129824E+00
         21   -1    0    0  501  502  0.00000000000E+00  0.00000000000E+00  0.10234118888E+03  0.10234118888E+03  0.00000000000E+00 0. -1.
         21   -1    0    0  502  503 -0.00000000000E+00 -0.00000000000E+00 -0.57614202875E+03  0.57614202875E+03  0.00000000000E+00 0.  1.
         -6    2    1    2    0  503  0.90126764407E+02 -0.11388908894E+03 -0.36320624369E+03  0.42697589336E+03  0.17116097631E+03 0.  0.
        -24    2    3    3    0    0 -0.26420202583E+01 -0.60754922138E+02 -0.96485090724E+02  0.13958843620E+03  0.80482407735E+02 0.  0.
          6    2    1    2  501    0 -0.90126764407E+02  0.11388908894E+03 -0.11059459618E+03  0.25150732427E+03  0.17300639068E+03 0.  0.
         24    2    5    5    0    0 -0.11378172536E+03  0.13512288729E+03 -0.91201948492E+02  0.21397605525E+03  0.79142157622E+02 0.  0.
          5    1    5    5  501    0  0.23654960957E+02 -0.21233798352E+02 -0.19392647688E+02  0.37531269026E+02  0.47000000000E+01 0. -1.
        -11    1    6    6    0    0 -0.60841108350E+02  0.65075324456E+02 -0.89320266131E+02  0.12615287654E+03  0.00000000000E+00 0.  1.
         12    1    6    6    0    0 -0.52940617014E+02  0.70047562835E+02 -0.18816823608E+01  0.87823178702E+02  0.00000000000E+00 0. -1.
         -5    1    3    3    0  503  0.92768784665E+02 -0.53134166800E+02 -0.26672115297E+03  0.28738745716E+03  0.47000000000E+01 0.  1.
         11    1    4    4    0    0 -0.98077060448E+01 -0.74744452441E+02 -0.98175937295E+02  0.12377980018E+03  0.00000000000E+00 0. -1.
        -12    1    4    4    0    0  0.71656857864E+01  0.13989530302E+02  0.16908465707E+01  0.15808636026E+02  0.00000000000E+00 0.  1.
</event>
<event>
12    1  0.8113184E-002  0.1788240E+03  0.7818608E-02  0.1169517E+00
         21   -1    0    0  503  502  0.00000000000E+00  0.00000000000E+00  0.18513187958E+04  0.18513187958E+04  0.00000000000E+00 0. -1.
         21   -1    0    0  501  503 -0.00000000000E+00 -0.00000000000E+00 -0.30304047271E+02  0.30304047271E+02  0.00000000000E+00 0. -1.
          6    2    1    2  501    0 -0.23557216436E+01  0.46227196146E+02  0.28495672766E+03  0.33519073630E+03  0.17032319272E+03 0.  0.
         24    2    3    3    0    0 -0.30286731529E+02  0.66898564765E+01  0.61176094173E+02  0.10618592311E+03  0.81061060212E+02 0.  0.
         -6    2    1    2    0  502  0.23557216436E+01 -0.46227196146E+02  0.15360580208E+04  0.15464321067E+04  0.17272959871E+03 0.  0.
        -24    2    5    5    0    0  0.27775220410E+02 -0.10390267635E+02  0.14159955399E+04  0.14184964756E+04  0.78800139580E+02 0.  0.
          5    1    3    3  501    0  0.27931009885E+02  0.39537339669E+02  0.22378063348E+03  0.22900481319E+03  0.47000000000E+01 0. -1.
        -11    1    4    4    0    0  0.26900671583E+02 -0.51254047552E+01  0.27339625880E+02  0.38695878964E+02  0.00000000000E+00 0.  1.
         12    1    4    4    0    0 -0.57187403112E+02  0.11815261232E+02  0.33836468293E+02  0.67490044149E+02  0.00000000000E+00 0. -1.
         -5    1    5    5    0  502 -0.25419498766E+02 -0.35836928510E+02  0.12006248099E+03  0.12793563109E+03  0.47000000000E+01 0.  1.
         11    1    6    6    0    0 -0.47581931710E+01  0.95318857408E+01  0.11202515057E+04  0.11203021616E+04  0.00000000000E+00 0. -1.
        -12    1    6    6    0    0  0.32533413581E+02 -0.19922153376E+02  0.29574403415E+03  0.29819431404E+03  0.00000000000E+00 0.  1.
</event>
<event>
12    1  0.8113184E-002  0.1873886E+03  0.7818608E-02  0.1161210E+00
         21   -1    0    0  501  502  0.00000000000E+00  0.00000000000E+00  0.43415153060E+03  0.43415153060E+03  0.00000000000E+00 0. -1.
         21   -1    0    0  502  503 -0.00000000000E+00 -0.00000000000E+00 -0.65141869706E+03  0.65141869706E+03  0.00000000000E+00 0. -1.
         -6    2    1    2    0  503 -0.65266863052E+01  0.75160026510E+02 -0.61685648720E+03  0.64422444763E+03  0.16976921367E+03 0.  0.
        -24    2    3    3    0    0  0.57393525175E+02  0.37642445700E+02 -0.27342130181E+03  0.29285117195E+03  0.79319796868E+02 0.  0.
          6    2    1    2  501    0  0.65266863052E+01 -0.75160026510E+02  0.39958932073E+03  0.44134578003E+03  0.17153088669E+03 0.  0.
         24    2    5    5    0    0 -0.40864759249E+02 -0.69456950345E+02  0.13130672686E+03  0.16880933409E+03  0.68999552595E+02 0.  0.
          5    1    5    5  501    0  0.47391445554E+02 -0.57030761644E+01  0.26828259387E+03  0.27253644594E+03  0.47000000000E+01 0. -1.
        -13    1    6    6    0    0  0.16010778368E+02 -0.27885319082E+01  0.97316117613E+01  0.18942682007E+02  0.00000000000E+00 0.  1.
         14    1    6    6    0    0 -0.56875537617E+02 -0.66668418437E+02  0.12157511510E+03  0.14986665208E+03  0.00000000000E+00 0. -1.
         -5    1    3    3    0  503 -0.63920211481E+02  0.37517580810E+02 -0.34343518538E+03  0.35137327568E+03  0.47000000000E+01 0.  1.
         13    1    4    4    0    0  0.57727060707E+02  0.23287665222E+02 -0.27128455454E+03  0.27833440036E+03  0.00000000000E+00 0. -1.
        -14    1    4    4    0    0 -0.33353553111E+00  0.14354780478E+02 -0.21367472729E+01  0.14516771591E+02  0.00000000000E+00 0.  1.
</event>
<event>
12    1  0.8113184E-002  0.1903304E+03  0.7818608E-02  0.1158448E+00
         21   -1    0    0  503  502  0.00000000000E+00  0.00000000000E+00  0.22712726878E+04  0.22712726878E+04  0.00000000000E+00 0.  1.
         21   -1    0    0  501  503 -0.00000000000E+00 -0.00000000000E+00 -0.37627858431E+02  0.37627858431E+02  0.00000000000E+00 0.  1.
          6    2    1    2  501    0  0.80380410304E+02 -0.18180538976E+01  0.23999669067E+03  0.30630713649E+03  0.17251473749E+03 0.  0.
         24    2    3    3    0    0  0.90393659267E+02 -0.37850590333E+01  0.77963050457E+02  0.14388446312E+03  0.80244384121E+02 0.  0.
         -6    2    1    2    0  502 -0.80380410304E+02  0.18180538976E+01  0.19936481387E+04  0.20025934098E+04  0.17112319574E+03 0.  0.
        -24    2    5    5    0    0 -0.29080522545E+02 -0.56533253431E+02  0.81721093336E+03  0.82358401977E+03  0.80095208786E+02 0.  0.
          5    1    3    3  501    0 -0.10013248963E+02  0.19670051357E+01  0.16203364021E+03  0.16242267337E+03  0.47000000000E+01 0. -1.
        -13    1    4    4    0    0  0.25435106883E+02  0.22715114398E+02 -0.58335981614E+01  0.34596993392E+02  0.00000000000E+00 0.  1.
         14    1    4    4    0    0  0.64958552384E+02 -0.26500173431E+02  0.83796648618E+02  0.10928746973E+03  0.00000000000E+00 0. -1.
         -5    1    5    5    0  502 -0.51299887759E+02  0.58351307328E+02  0.11764372054E+04  0.11790093900E+04  0.47000000000E+01 0.  1.
         11    1    6    6    0    0  0.24798416466E+02 -0.56945305929E+01  0.13622200013E+03  0.13857785703E+03  0.00000000000E+00 0. -1.
        -12    1    6    6    0    0 -0.53878939011E+02 -0.50838722838E+02  0.68098893323E+03  0.68500616274E+03  0.00000000000E+00 0.  1.
</event>
<event>
12    1  0.8113184E-002  0.2039668E+03  0.7818608E-02  0.1149682E+00
         21   -1    0    0  503  502  0.00000000000E+00  0.00000000000E+00  0.11826275976E+03  0.11826275976E+03  0.00000000000E+00 0.  1.
         21   -1    0    0  501  503 -0.00000000000E+00 -0.00000000000E+00 -0.47415963915E+03  0.47415963915E+03  0.00000000000E+00 0. -1.
          6    2    1    2  501    0  0.38350666120E+02  0.68115552605E+02 -0.33864959008E+03  0.38772765674E+03  0.17186823104E+03 0.  0.
         24    2    3    3    0    0  0.47434626073E+02 -0.14959256195E+02 -0.24332069912E+03  0.26086698656E+03  0.79829812486E+02 0.  0.
         -6    2    1    2    0  502 -0.38350666120E+02 -0.68115552605E+02 -0.17247289300E+02  0.20469474217E+03  0.18839311661E+03 0.  0.
        -24    2    5    5    0    0 -0.12507488224E+02 -0.47706501448E+01 -0.79942136491E+02  0.11177983284E+03  0.76972654098E+02 0.  0.
          5    1    3    3  501    0 -0.90839599532E+01  0.83074808800E+02 -0.95328890963E+02  0.12686067018E+03  0.47000000000E+01 0. -1.
        -11    1    4    4    0    0  0.48040747025E+02  0.95843334058E+01 -0.22490088276E+03  0.23017423811E+03  0.00000000000E+00 0.  1.
         12    1    4    4    0    0 -0.60612095131E+00 -0.24543589601E+02 -0.18419816360E+02  0.30692748457E+02  0.00000000000E+00 0. -1.
         -5    1    5    5    0  502 -0.25843177896E+02 -0.63344902460E+02  0.62694847192E+02  0.92914909330E+02  0.47000000000E+01 0.  1.
         11    1    6    6    0    0 -0.44399859292E+02  0.98630446081E+00 -0.35940487966E+02  0.57131768543E+02  0.00000000000E+00 0. -1.
        -12    1    6    6    0    0  0.31892371068E+02 -0.57569546056E+01 -0.44001648525E+02  0.54648064299E+02  0.00000000000E+00 0.  1.
</event>
<event>
12    1  0.8113184E-002  0.1728697E+03  0.7818608E-02  0.1176759E+00
         21   -1    0    0  503  502  0.00000000000E+00  0.00000000000E+00  0.13594493225E+04  0.13594493225E+04  0.00000000000E+00 0. -1.
         21   -1    0    0  501  503 -0.00000000000E+00 -0.00000000000E+00 -0.41967989185E+02  0.41967989185E+02  0.00000000000E+00 0. -1.
          6    2    1    2  501    0 -0.13674065528E+02  0.37186850087E+01  0.15744345108E+03  0.22856956738E+03  0.16509027275E+03 0.  0.
         24    2    3    3    0    0  0.52289134890E+02  0.10132878979E+02  0.83209429675E+02  0.12894494377E+03  0.82862298268E+02 0.  0.
         -6    2    1    2    0  502  0.13674065528E+02 -0.37186850087E+01  0.11600378822E+04  0.11728477443E+04  0.17228794046E+03 0.  0.
        -24    2    5    5    0    0  0.36356783511E+02 -0.43240470749E+02  0.10306123718E+04  0.10355541538E+04  0.83779415906E+02 0.  0.
          5    1    3    3  501    0 -0.65963200418E+02 -0.64141939705E+01  0.74234021407E+02  0.99624623602E+02  0.47000000000E+01 0. -1.
        -11    1    4    4    0    0  0.12935233767E+02  0.48405979792E+01 -0.16560257817E+02  0.21563714902E+02  0.00000000000E+00 0.  1.
         12    1    4    4    0    0  0.39353901122E+02  0.52922810000E+01  0.99769687493E+02  0.10738122887E+03  0.00000000000E+00 0. -1.
         -5    1    5    5    0  502 -0.22682717983E+02  0.39521785740E+02  0.12942551039E+03  0.13729359047E+03  0.47000000000E+01 0.  1.
         11    1    6    6    0    0  0.66310146323E+01 -0.65812887304E+01  0.94045736317E+01  0.13256308747E+02  0.00000000000E+00 0. -1.
        -12    1    6    6    0    0  0.29725768878E+02 -0.36659182018E+02  0.10212077982E+04  0.10222978451E+04  0.00000000000E+00 0.  1.
</event>
<event>
12    1  0.8113184E-002  0.1811523E+03  0.7818608E-02  0.1168070E+00
         21   -1    0    0  503  502  0.00000000000E+00  0.00000000000E+00  0.11491182038E+03  0.11491182038E+03  0.00000000000E+00 0.  1.
         21   -1    0    0  501  503 -0.00000000000E+00 -0.00000000000E+00 -0.31408870798E+03  0.31408870798E+03  0.00000000000E+00 0.  1.
          6    2    1    2  501    0 -0.43262121210E+00 -0.32815599315E+02 -0.17215014538E+03  0.24584317317E+03  0.17241270985E+03 0.  0.
         24    2    3    3    0    0 -0.86065274728E+01 -0.54805063238E+02 -0.26386698054E+02  0.98129186545E+02  0.76520664831E+02 0.  0.
         -6    2    1    2    0  502  0.43262121210E+00  0.32815599315E+02 -0.27026742221E+02  0.18315735520E+03  0.17815476769E+03 0.  0.
        -24    2    5    5    0    0 -0.35186383104E+02 -0.39016404209E+02  0.74589792415E+01  0.95750804052E+02  0.79700807724E+02 0.  0.
          5    1    3    3  501    0  0.81739062607E+01  0.21989463923E+02 -0.14576344733E+03  0.14771398662E+03  0.47000000000E+01 0. -1.
        -11    1    4    4    0    0 -0.39513722735E+02 -0.21357284219E+02 -0.27331113996E+02  0.52578110140E+02  0.00000000000E+00 0.  1.
         12    1    4    4    0    0  0.30907195262E+02 -0.33447779018E+02  0.94441594213E+00  0.45551076406E+02  0.00000000000E+00 0. -1.
         -5    1    5    5    0  502  0.35619004316E+02  0.71832003524E+02 -0.34485721463E+02  0.87406551148E+02  0.47000000000E+01 0.  1.
         11    1    6    6    0    0 -0.33907576737E+02  0.90549268041E+01 -0.19980281200E+02  0.40384738410E+02  0.00000000000E+00 0. -1.
        -12    1    6    6    0    0 -0.12788063668E+01 -0.48071331013E+02  0.27439260441E+02  0.55366065642E+02  0.00000000000E+00 0.  1.
</event>
<event>
12    1  0.8113184E-002  0.1800678E+03  0.7818608E-02  0.1168746E+00
         21   -1    0    0  501  502  0.00000000000E+00  0.00000000000E+00  0.12506842321E+04  0.12506842321E+04  0.00000000000E+00 0. -1.
         21   -1    0    0  502  503 -0.00000000000E+00 -0.00000000000E+00 -0.32042071509E+02  0.32042071509E+02  0.00000000000E+00 0. -1.
         -6    2    1    2    0  503 -0.25289320861E+02 -0.29847231024E+02  0.32149011752E+03  0.36848379135E+03  0.17576689641E+03 0.  0.
        -24    2    3    3    0    0 -0.61891903167E+02 -0.62863313372E+02  0.15779281923E+03  0.19746126010E+03  0.79435329651E+02 0.  0.
          6    2    1    2  501    0  0.25289320861E+02  0.29847231024E+02  0.89715204312E+03  0.91424251231E+03  0.17154351019E+03 0.  0.
         24    2    5    5    0    0 -0.16859543297E+02 -0.88426462887E+01  0.22766409245E+03  0.24229784237E+03  0.80714737414E+02 0.  0.
          5    1    5    5  501    0  0.42148864159E+02  0.38689877312E+02  0.66948795067E+03  0.67194466994E+03  0.47000000000E+01 0. -1.
        -13    1    6    6    0    0 -0.70311750119E+01  0.10324185187E+02 -0.10838675902E+01  0.12537981926E+02  0.00000000000E+00 0.  1.
         14    1    6    6    0    0 -0.98283682854E+01 -0.19166831476E+02  0.22874796004E+03  0.22975986045E+03  0.00000000000E+00 0. -1.
         -5    1    3    3    0  503  0.36602582306E+02  0.33016082348E+02  0.16369729829E+03  0.17102253124E+03  0.47000000000E+01 0.  1.
         13    1    4    4    0    0 -0.36784514298E+02  0.45427249467E+01  0.20224711756E+02  0.42222929881E+02  0.00000000000E+00 0. -1.
        -14    1    4    4    0    0 -0.25107388869E+02 -0.67406038318E+02  0.13756810747E+03  0.15523833022E+03  0.00000000000E+00 0.  1.
</event>
<event>
12    1  0.8113184E-002  0.1892499E+03  0.7818608E-02  0.1159425E+00
         21   -1    0    0  501  502  0.00000000000E+00  0.00000000000E+00  0.40241802882E+03  0.40241802882E+03  0.00000000000E+00 0. -1.
         21   -1    0    0  502  503 -0.00000000000E+00 -0.00000000000E+00 -0.88593476665E+02  0.88593476665E+02  0.00000000000E+00 0. -1.
         -6    2    1    2    0  503  0.69598074307E+02  0.29834791914E+02  0.16857722234E+03  0.25344388681E+03  0.17344024076E+03 0.  0.
        -24    2    3    3    0    0  0.18167618392E+01 -0.18954949641E+02  0.13899653418E+03  0.16472042705E+03  0.86314493756E+02 0.  0.
          6    2    1    2  501    0 -0.69598074307E+02 -0.29834791914E+02  0.14524732981E+03  0.23756761867E+03  0.17206853247E+03 0.  0.
         24    2    5    5    0    0  0.21894774339E+02  0.12145538726E+02  0.87133391734E+02  0.12123787478E+03  0.80495335720E+02 0.  0.
          5    1    5    5  501    0 -0.91492848646E+02 -0.41980330640E+02  0.58113938078E+02  0.11632974389E+03  0.47000000000E+01 0. -1.
        -13    1    6    6    0    0  0.47983109937E+02 -0.75742770139E+01  0.35685991727E+02  0.60276351226E+02  0.00000000000E+00 0.  1.
         14    1    6    6    0    0 -0.26088335598E+02  0.19719815740E+02  0.51447400006E+02  0.60961523558E+02  0.00000000000E+00 0. -1.
         -5    1    3    3    0  503  0.67781312468E+02  0.48789741555E+02  0.29580688160E+02  0.88723459766E+02  0.47000000000E+01 0.  1.
         11    1    4    4    0    0  0.20493491246E+02 -0.27262142384E+02  0.12100831247E+02  0.36188916918E+02  0.00000000000E+00 0. -1.
        -12    1    4    4    0    0 -0.18676729407E+02  0.83071927434E+01  0.12689570293E+03  0.12853151013E+03  0.00000000000E+00 0.  1.
</event>
<event>
12    1  0.8113184E-002  0.2244855E+03  0.7818608E-02  0.1130829E+00
         21   -1    0    0  503  502  0.00000000000E+00  0.00000000000E+00  0.72416179145E+03  0.72416179145E+03  0.00000000000E+00 0. -1.
         21   -1    0    0  501  503 -0.00000000000E+00 -0.00000000000E+00 -0.72315913993E+02  0.72315913993E+02  0.00000000000E+00 0. -1.
          6    2    1    2  501    0  0.10140122225E+03  0.10368512771E+03  0.24191802766E+03  0.32910783322E+03  0.16957246296E+03 0.  0.
         24    2    3    3    0    0  0.12100086862E+03  0.51436285170E+02  0.12015610734E+03  0.19508491382E+03  0.79584746208E+02 0.  0.
         -6    2    1    2    0  502 -0.10140122225E+03 -0.10368512771E+03  0.40992784979E+03  0.46736987222E+03  0.17135034825E+03 0.  0.
        -24    2    5    5    0    0 -0.19098649834E+01 -0.72757329607E+02  0.13322308874E+03  0.17166279815E+03  0.80140179066E+02 0.  0.
          5    1    3    3  501    0 -0.19599646369E+02  0.52248842536E+02  0.12176192032E+03  0.13402291940E+03  0.47000000000E+01 0. -1.
        -13    1    4    4    0    0  0.47173486972E+01  0.50465093215E+01  0.52161416032E+02  0.52616860012E+02  0.00000000000E+00 0.  1.
         14    1    4    4    0    0  0.11628351992E+03  0.46389775849E+02  0.67994691309E+02  0.14246805381E+03  0.00000000000E+00 0. -1.
         -5    1    5    5    0  502 -0.99491357268E+02 -0.30927798100E+02  0.27670476105E+03  0.29570707407E+03  0.47000000000E+01 0.  1.
         11    1    6    6    0    0 -0.36596241618E+02 -0.32336652417E+02  0.35529483622E+02  0.60392782653E+02  0.00000000000E+00 0. -1.
        -12    1    6    6    0    0  0.34686376635E+02 -0.40420677190E+02  0.97693605120E+02  0.11127001550E+03  0.00000000000E+00 0.  1.
</event>
<event>
12    1  0.8113184E-002  0.1760113E+03  0.7818608E-02  0.1172292E+00
         21   -1    0    0  501  502  0.00000000000E+00  0.00000000000E+00  0.15572052806E+03  0.15572052806E+03  0.00000000000E+00 0.  1.
         21   -1    0    0  502  503 -0.00000000000E+00 -0.00000000000E+00 -0.92367027412E+03  0.92367027412E+03  0.00000000000E+00 0.  1.
         -6    2    1    2    0  503 -0.17048699732E+02 -0.22681754185E+02 -0.86234047825E+03  0.87966699625E+03  0.17139954409E+03 0.  0.
        -24    2    3    3    0    0 -0.41229492196E+02 -0.65923326458E+02 -0.42116575637E+03  0.43569428365E+03  0.80019738018E+02 0.  0.
          6    2    1    2  501    0  0.17048699732E+02  0.22681754185E+02  0.94390732197E+02  0.19972380594E+03  0.17370914828E+03 0.  0.
         24    2    5    5    0    0  0.79821073480E+02  0.19752767625E+02  0.69952215999E+02  0.13213474660E+03  0.76188602397E+02 0.  0.
          5    1    5    5  501    0 -0.62772373748E+02  0.29289865598E+01  0.24438516199E+02  0.67589059338E+02  0.47000000000E+01 0. -1.
        -11    1    6    6    0    0 -0.17847141058E+01 -0.20556307696E+02  0.85130190805E+01  0.22320808327E+02  0.00000000000E+00 0.  1.
         12    1    6    6    0    0  0.81605787586E+02  0.40309075321E+02  0.61439196918E+02  0.10981393827E+03  0.00000000000E+00 0. -1.
         -5    1    3    3    0  503  0.24180792464E+02  0.43241572274E+02 -0.44117472188E+03  0.44397271259E+03  0.47000000000E+01 0.  1.
         11    1    4    4    0    0 -0.15587468209E+01 -0.34388433902E+02 -0.47801963164E+02  0.58906890600E+02  0.00000000000E+00 0. -1.
        -12    1    4    4    0    0 -0.39670745375E+02 -0.31534892556E+02 -0.37336379321E+03  0.37678739305E+03  0.00000000000E+00 0.  1.
</event>
<event>
12    1  0.8113184E-002  0.2054350E+03  0.7818608E-02  0.1145413E+00
         21   -1    0    0  503  502  0.00000000000E+00  0.00000000000E+00  0.83296868270E+02  0.83296868270E+02  0.00000000000E+00 0.  1.
         21   -1    0    0  501  503 -0.00000000000E+00 -0.00000000000E+00 -0.56776987152E+03  0.56776987152E+03  0.00000000000E+00 0.  1.
          6    2    1    2  501    0  0.98253708789E+02  0.48091750381E+02 -0.35045117809E+03  0.40578038607E+03  0.17284410824E+03 0.  0.
         24    2    3    3    0    0  0.10928276996E+03 -0.18231872185E+02 -0.23453548102E+03  0.27169458545E+03  0.80845104582E+02 0.  0.
         -6    2    1    2    0  502 -0.98253708789E+02 -0.48091750381E+02 -0.13402182516E+03  0.24528635371E+03  0.17388771651E+03 0.  0.
        -24    2    5    5    0    0 -0.88141509195E+01 -0.52200391054E+01 -0.12091880955E+03  0.14513048939E+03  0.79602527498E+02 0.  0.
          5    1    3    3  501    0 -0.11029061171E+02  0.66323622566E+02 -0.11591569707E+03  0.13408580062E+03  0.47000000000E+01 0. -1.
        -13    1    4    4    0    0  0.51224920540E+02 -0.25885049092E+01 -0.32074439804E+02  0.60493491639E+02  0.00000000000E+00 0.  1.
         14    1    4    4    0    0  0.58057849420E+02 -0.15643367276E+02 -0.20246104121E+03  0.21120109381E+03  0.00000000000E+00 0. -1.
         -5    1    5    5    0  502 -0.89439557870E+02 -0.42871711275E+02 -0.13103015609E+02  0.10015586432E+03  0.47000000000E+01 0.  1.
         11    1    6    6    0    0 -0.10746399739E+02  0.19982932793E+02 -0.11744425561E+03  0.11961586803E+03  0.00000000000E+00 0. -1.
        -12    1    6    6    0    0  0.19322488198E+01 -0.25202971898E+02 -0.34745539413E+01  0.25514621359E+02  0.00000000000E+00 0.  1.
</event>
<event>
12    1  0.8113184E-002  0.2204169E+03  0.7818608E-02  0.1133584E+00
         21   -1    0    0  501  502  0.00000000000E+00  0.00000000000E+00  0.11115521605E+03  0.11115521605E+03  0.00000000000E+00 0. -1.
         21   -1    0    0  502  503 -0.00000000000E+00 -0.00000000000E+00 -0.14609036576E+04  0.14609036576E+04  0.00000000000E+00 0. -1.
         -6    2    1    2    0  503  0.13249555224E+03 -0.35189115546E+02 -0.13329076048E+04  0.13509995767E+04  0.17252196343E+03 0.  0.
        -24    2    3    3    0    0  0.94139206184E+02 -0.46814098261E+02 -0.49598983741E+03  0.51310949499E+03  0.78877659080E+02 0.  0.
          6    2    1    2  501    0 -0.13249555224E+03  0.35189115546E+02 -0.16840836666E+02  0.22105929696E+03  0.17259853353E+03 0.  0.
         24    2    5    5    0    0 -0.12936839698E+03 -0.30382379688E+02 -0.15604769922E+02  0.15523363366E+03  0.78706423135E+02 0.  0.
          5    1    5    5  501    0 -0.31271552566E+01  0.65571495234E+02 -0.12360667444E+01  0.65825663295E+02  0.47000000000E+01 0. -1.
        -11    1    6    6    0    0  0.46765969691E+01  0.39016740861E+01 -0.15736193737E+02  0.16873689971E+02  0.00000000000E+00 0.  1.
         12    1    6    6    0    0 -0.13404499395E+03 -0.34284053774E+02  0.13142381550E+00  0.13835994369E+03  0.00000000000E+00 0. -1.
         -5    1    3    3    0  503  0.38356346051E+02  0.11624982715E+02 -0.83691776744E+03  0.83789008167E+03  0.47000000000E+01 0.  1.
         11    1    4    4    0    0  0.48929989619E+02 -0.33959582142E+02 -0.41670604414E+03  0.42094099863E+03  0.00000000000E+00 0. -1.
        -12    1    4    4    0    0  0.45209216565E+02 -0.12854516119E+02 -0.79283793273E+02  0.92168496368E+02  0.00000000000E+00 0.  1.
</event>
<event>
12    1  0.8113184E-002  0.1771419E+03  0.7818608E-02  0.1170670E+00
         21   -1    0    0  503  502  0.00000000000E+00  0.00000000000E+00  0.28492957705E+03  0.28492957705E+03  0.00000000000E+00 0.  1.
         21   -1    0    0  501  503 -0.00000000000E+00 -0.00000000000E+00 -0.11909537106E+03  0.11909537106E+03  0.00000000000E+00 0. -1.
          6    2    1    2  501    0  0.43435590043E+02 -0.83402730628E+01  0.26874223714E+02  0.17888250870E+03  0.17123234911E+03 0.  0.
         24    2    3    3    0    0 -0.29933868074E+02 -0.38245414666E+02 -0.58968638147E+01  0.93013835387E+02  0.79107852769E+02 0.  0.
         -6    2    1    2    0  502 -0.43435590043E+02  0.83402730628E+01  0.13895998228E+03  0.22514243941E+03  0.17153142776E+03 0.  0.
        -24    2    5    5    0    0 -0.49790145816E+02  0.69240510572E+02  0.94901420950E+02  0.14956158116E+03  0.78032556890E+02 0.  0.
          5    1    3    3  501    0  0.73369458117E+02  0.29905141603E+02  0.32771087529E+02  0.85868673313E+02  0.47000000000E+01 0. -1.
        -11    1    4    4    0    0  0.15856480277E+02 -0.13877971332E+02  0.24955196702E+02  0.32661719145E+02  0.00000000000E+00 0.  1.
         12    1    4    4    0    0 -0.45790348351E+02 -0.24367443334E+02 -0.30852060517E+02  0.60352116242E+02  0.00000000000E+00 0. -1.
         -5    1    5    5    0  502  0.63545557731E+01 -0.60900237510E+02  0.44058561327E+02  0.75580858251E+02  0.47000000000E+01 0.  1.
         11    1    6    6    0    0 -0.58439614197E+02  0.14711987799E+02  0.52961301164E+02  0.80227990835E+02  0.00000000000E+00 0. -1.
        -12    1    6    6    0    0  0.86494683804E+01  0.54528522774E+02  0.41940119787E+02  0.69333590321E+02  0.00000000000E+00 0.  1.
</event>
<event>
12    1  0.8113184E-002  0.2066276E+03  0.7818608E-02  0.1144615E+00
         21   -1    0    0  501  502  0.00000000000E+00  0.00000000000E+00  0.71242908640E+03  0.71242908640E+03  0.00000000000E+00 0.  1.
         21   -1    0    0  502  503 -0.00000000000E+00 -0.00000000000E+00 -0.15905731096E+03  0.15905731096E+03  0.00000000000E+00 0. -1.
         -6    2    1    2    0  503 -0.11134909237E+03  0.27056511709E+02 -0.68605434348E+02  0.21608528641E+03  0.16986897946E+03 0.  0.
        -24    2    3    3    0    0 -0.56840333794E+02  0.85045963255E+02 -0.52410025687E+02  0.13473196740E+03  0.70301158137E+02 0.  0.
          6    2    1    2  501    0  0.11134909237E+03 -0.27056511709E+02  0.62197720978E+03  0.65540111095E+03  0.17194269846E+03 0.  0.
         24    2    5    5    0    0  0.12045810160E+03  0.75187364415E-01  0.60413514716E+03  0.62134920436E+03  0.81150464141E+02 0.  0.
          5    1    5    5  501    0 -0.91090092351E+01 -0.27131699074E+02  0.17842062619E+02  0.34051906590E+02  0.47000000000E+01 0. -1.
        -11    1    6    6    0    0  0.50776917905E+02 -0.13415339206E+02  0.43163417018E+03  0.43481757507E+03  0.00000000000E+00 0.  1.
         12    1    6    6    0    0  0.69681183699E+02  0.13490526571E+02  0.17250097698E+03  0.18653162930E+03  0.00000000000E+00 0. -1.
         -5    1    3    3    0  503 -0.54508758575E+02 -0.57989451546E+02 -0.16195408661E+02  0.81353319008E+02  0.47000000000E+01 0.  1.
         13    1    4    4    0    0 -0.62177581989E+01 -0.92232260112E+00 -0.32368471999E+02  0.32973158410E+02  0.00000000000E+00 0. -1.
        -14    1    4    4    0    0 -0.50622575595E+02  0.85968285856E+02 -0.20041553688E+02  0.10175880899E+03  0.00000000000E+00 0.  1.
</event>
<event>
12    1  0.8113184E-002  0.3593332E+03  0.7818608E-02  0.1059084E+00
         21   -1    0    0  501  502  0.00000000000E+00  0.00000000000E+00  0.81191557316E+02  0.81191557316E+02  0.00000000000E+00 0.  1.
         21   -1    0    0  502  503 -0.00000000000E+00 -0.00000000000E+00 -0.16496593794E+04  0.16496593794E+04  0.00000000000E+00 0. -1.
         -6    2    1    2    0  503  0.30462970672E+03  0.69438923638E+02 -0.60869799862E+03  0.70684765647E+03  0.17748051611E+03 0.  0.
        -24    2    3    3    0    0  0.14717565722E+03  0.52889878925E+02 -0.44714707423E+03  0.48060345266E+03  0.81124344954E+02 0.  0.
          6    2    1    2  501    0 -0.30462970672E+03 -0.69438923638E+02 -0.95976982342E+03  0.10240032802E+04  0.17263713848E+03 0.  0.
         24    2    5    5    0    0 -0.29268108904E+03 -0.27656259410E+02 -0.74462386232E+03  0.80446186026E+03  0.79165015665E+02 0.  0.
          5    1    5    5  501    0 -0.11948617688E+02 -0.41782664228E+02 -0.21514596110E+03  0.21954141994E+03  0.47000000000E+01 0. -1.
        -11    1    6    6    0    0 -0.10881264670E+03 -0.20483860059E+02 -0.18767212292E+03  0.21790045050E+03  0.00000000000E+00 0.  1.
         12    1    6    6    0    0 -0.18386844234E+03 -0.71723993509E+01 -0.55695173940E+03  0.58656140976E+03  0.00000000000E+00 0. -1.
         -5    1    3    3    0  503  0.15745404951E+03  0.16549044713E+02 -0.16155092439E+03  0.22624420381E+03  0.47000000000E+01 0.  1.
         13    1    4    4    0    0  0.35630563972E+02  0.53564617393E+02 -0.17725271691E+03  0.18856625090E+03  0.00000000000E+00 0. -1.
        -14    1    4    4    0    0  0.11154509325E+03 -0.67473846759E+00 -0.26989435732E+03  0.29203720176E+03  0.00000000000E+00 0.  1.
</event>
<event>
12    1  0.8113184E-002  0.3495599E+03  0.7818608E-02  0.1062865E+00
         21   -1    0    0  503  502  0.00000000000E+00  0.00000000000E+00  0.30560539815E+03  0.30560539815E+03  0.00000000000E+00 0.  1.
         21   -1    0    0  501  503 -0.00000000000E+00 -0.00000000000E+00 -0.10104051567E+04  0.10104051567E+04  0.00000000000E+00 0. -1.
          6    2    1    2  501    0  0.47014255001E+02 -0.29988849393E+03  0.15956243480E+03  0.38364039036E+03  0.17197770075E+03 0.  0.
         24    2    3    3    0    0  0.36357740950E+01 -0.19139398865E+03  0.16771578640E+03  0.26641702484E+03  0.78769082592E+02 0.  0.
         -6    2    1    2    0  502 -0.47014255001E+02  0.29988849393E+03 -0.86436219339E+03  0.93237016452E+03  0.17334553171E+03 0.  0.
        -24    2    5    5    0    0  0.40503399904E+02  0.16926688256E+03 -0.44659126821E+03  0.48596678057E+03  0.80175732248E+02 0.  0.
          5    1    3    3  501    0  0.43378480906E+02 -0.10849450528E+03 -0.81533516041E+01  0.11722336552E+03  0.47000000000E+01 0. -1.
        -11    1    4    4    0    0  0.10851093310E+02 -0.23563902892E+02  0.63839737176E+02  0.68909475316E+02  0.00000000000E+00 0.  1.
         12    1    4    4    0    0 -0.72153192155E+01 -0.16783008576E+03  0.10387604923E+03  0.19750754953E+03  0.00000000000E+00 0. -1.
         -5    1    5    5    0  502 -0.87517654905E+02  0.13062161137E+03 -0.41777092518E+03  0.44640338395E+03  0.47000000000E+01 0.  1.
         11    1    6    6    0    0  0.70285115977E+01  0.14028111103E+03 -0.38717779201E+03  0.41186749412E+03  0.00000000000E+00 0. -1.
        -12    1    6    6    0    0  0.33474888307E+02  0.28985771532E+02 -0.59413476202E+02  0.74099286453E+02  0.00000000000E+00 0.  1.
</event>
<event>
12    1  0.8113184E-002  0.2788944E+03  0.7818608E-02  0.1096787E+00
         21   -1    0    0  503  502  0.00000000000E+00  0.00000000000E+00  0.16565717821E+03  0.16565717821E+03  0.00000000000E+00 0. -1.
         21   -1    0    0  501  503 -0.00000000000E+00 -0.00000000000E+00 -0.46378121673E+03  0.46378121673E+03  0.00000000000E+00 0.  1.
          6    2    1    2  501    0 -0.15262466096E+03  0.15639065170E+03 -0.14312452741E+03  0.31347523525E+03  0.17329099715E+03 0.  0.
         24    2    3    3    0    0 -0.16991800879E+03  0.17114993723E+03 -0.13992159707E+03  0.29003925541E+03  0.79876690127E+02 0.  0.
         -6    2    1    2    0  502  0.15262466096E+03 -0.15639065170E+03 -0.15499951111E+03  0.31596315970E+03  0.16749790078E+03 0.  0.
        -24    2    5    5    0    0  0.88111383970E+02 -0.41050156109E+02 -0.21834498203E+02  0.12829216169E+03  0.80829463296E+02 0.  0.
          5    1    3    3  501    0  0.17293347829E+02 -0.14759285528E+02 -0.32029303425E+01  0.23435979843E+02  0.47000000000E+01 0. -1.
        -11    1    4    4    0    0 -0.95379839832E+02  0.51351840618E+02 -0.33750314713E+02  0.11346104673E+03  0.00000000000E+00 0.  1.
         12    1    4    4    0    0 -0.74538168961E+02  0.11979809661E+03 -0.10617128236E+03  0.17657820868E+03  0.00000000000E+00 0. -1.
         -5    1    5    5    0  502  0.64513276994E+02 -0.11534049559E+03 -0.13316501290E+03  0.18767099801E+03  0.47000000000E+01 0.  1.
         13    1    6    6    0    0  0.51959368217E+02 -0.22733409781E+02  0.28660103408E+02  0.63545144528E+02  0.00000000000E+00 0. -1.
        -14    1    6    6    0    0  0.36152015753E+02 -0.18316746328E+02 -0.50494601611E+02  0.64747017159E+02  0.00000000000E+00 0.  1.
</event>
<event>
12    1  0.8113184E-002  0.2239909E+03  0.7818608E-02  0.1131978E+00
         21   -1    0    0  503  502  0.00000000000E+00  0.00000000000E+00  0.21099454508E+03  0.21099454508E+03  0.00000000000E+00 0.  1.
         21   -1    0    0  501  503 -0.00000000000E+00 -0.00000000000E+00 -0.39253507527E+03  0.39253507527E+03  0.00000000000E+00 0.  1.
          6    2    1    2  501    0  0.12815899904E+03  0.57885042518E+02 -0.28314133945E+03  0.35757298575E+03  0.16707487798E+03 0.  0.
         24    2    3    3    0    0  0.80518571417E+02  0.14738980118E+02 -0.26811209088E+03  0.29139775355E+03  0.79549227631E+02 0.  0.
         -6    2    1    2    0  502 -0.12815899904E+03 -0.57885042518E+02  0.10160080927E+03  0.24595663460E+03  0.17434601940E+03 0.  0.
        -24    2    5    5    0    0 -0.14900069591E+03 -0.70583073861E+02  0.51582053228E+02  0.19010341371E+03  0.79343695345E+02 0.  0.
          5    1    3    3  501    0  0.47640427620E+02  0.43146062400E+02 -0.15029248566E+02  0.66175232201E+02  0.47000000000E+01 0. -1.
        -11    1    4    4    0    0  0.44594718640E+02  0.36338265339E+02 -0.79173537812E+02  0.97865251995E+02  0.00000000000E+00 0.  1.
         12    1    4    4    0    0  0.35923852777E+02 -0.21599285221E+02 -0.18893855307E+03  0.19353250155E+03  0.00000000000E+00 0. -1.
         -5    1    5    5    0  502  0.20841696874E+02  0.12698031343E+02  0.50018756038E+02  0.55853220894E+02  0.47000000000E+01 0.  1.
         11    1    6    6    0    0 -0.69450829542E+02 -0.53173808248E+02 -0.99557244595E+01  0.88034016477E+02  0.00000000000E+00 0. -1.
        -12    1    6    6    0    0 -0.79549866369E+02 -0.17409265613E+02  0.61537777687E+02  0.10206939723E+03  0.00000000000E+00 0.  1.
</event>
<event>
12    1  0.8113184E-002  0.1848613E+03  0.7818608E-02  0.1163276E+00
         21   -1    0    0  503  502  0.00000000000E+00  0.00000000000E+00  0.75362650378E+02  0.75362650378E+02  0.00000000000E+00 0.  1.
         21   -1    0    0  501  503 -0.00000000000E+00 -0.00000000000E+00 -0.45583508353E+03  0.45583508353E+03  0.00000000000E+00 0.  1.
          6    2    1    2  501    0  0.48699858567E+02 -0.46358389627E+02 -0.21291397415E+03  0.28169917626E+03  0.17175939276E+03 0.  0.
         24    2    3    3    0    0 -0.24883335657E+02  0.13140664392E+02 -0.66106142639E+02  0.10697295242E+03  0.79254861061E+02 0.  0.
         -6    2    1    2    0  502 -0.48699858567E+02  0.46358389627E+02 -0.16755845900E+03  0.24949855765E+03  0.17220022234E+03 0.  0.
        -24    2    5    5    0    0 -0.68871304333E+02  0.32598787533E+02 -0.36219738325E+02  0.11582670787E+03  0.79360061133E+02 0.  0.
          5    1    3    3  501    0  0.73583194224E+02 -0.59499054019E+02 -0.14680783151E+03  0.17472622383E+03  0.47000000000E+01 0. -1.
        -11    1    4    4    0    0 -0.22986193388E+02  0.40001557303E+02 -0.13821438454E+02  0.48161414370E+02  0.00000000000E+00 0.  1.
         12    1    4    4    0    0 -0.18971422687E+01 -0.26860892911E+02 -0.52284704184E+02  0.58811538055E+02  0.00000000000E+00 0. -1.
         -5    1    5    5    0  502  0.20171445766E+02  0.13759602094E+02 -0.13133872068E+03  0.13367184978E+03  0.47000000000E+01 0.  1.
         11    1    6    6    0    0 -0.45175338364E+02  0.48838677379E+02  0.37161614896E+01  0.66632105329E+02  0.00000000000E+00 0. -1.
        -12    1    6    6    0    0 -0.23695965969E+02 -0.16239889845E+02 -0.39935899814E+02  0.49194602543E+02  0.00000000000E+00 0.  1.
</event>
<event>
12    1  0.8113184E-002  0.3572000E+03  0.7818608E-02  0.1059851E+00
         21   -1    0    0  503  502  0.00000000000E+00  0.00000000000E+00  0.74906227547E+02  0.74906227547E+02  0.00000000000E+00 0.  1.
         21   -1    0    0  501  503 -0.00000000000E+00 -0.00000000000E+00 -0.18258018641E+04  0.18258018641E+04  0.00000000000E+00 0.  1.
          6    2    1    2  501    0  0.26718239453E+03  0.16316482895E+03 -0.11305282416E+04  0.11856162763E+04  0.17199609332E+03 0.  0.
         24    2    3    3    0    0  0.25378185110E+03  0.17619561025E+03 -0.11180363502E+04  0.11626486213E+04  0.79349953707E+02 0.  0.
         -6    2    1    2    0  502 -0.26718239453E+03 -0.16316482895E+03 -0.62036739493E+03  0.71509181537E+03  0.16879397606E+03 0.  0.
        -24    2    5    5    0    0 -0.10044945830E+03 -0.13076181299E+03 -0.28215385681E+03  0.33659437173E+03  0.80599173453E+02 0.  0.
          5    1    3    3  501    0  0.13400543431E+02 -0.13030781298E+02 -0.12491891433E+02  0.22967655019E+02  0.47000000000E+01 0. -1.
        -11    1    4    4    0    0  0.11862157199E+03  0.11583730484E+03 -0.69357308345E+03  0.71311498415E+03  0.00000000000E+00 0.  1.
         12    1    4    4    0    0  0.13516027911E+03  0.60358305417E+02 -0.42446326673E+03  0.44953363710E+03  0.00000000000E+00 0. -1.
         -5    1    5    5    0  502 -0.16673293623E+03 -0.32403015966E+02 -0.33821353812E+03  0.37849744364E+03  0.47000000000E+01 0.  1.
         11    1    6    6    0    0 -0.31092720731E+01 -0.41428526487E+02 -0.27844240859E+02  0.50012919618E+02  0.00000000000E+00 0. -1.
        -12    1    6    6    0    0 -0.97340186230E+02 -0.89333286502E+02 -0.25430961595E+03  0.28658145212E+03  0.00000000000E+00 0.  1.
</event>
<event>
12    1  0.8113184E-002  0.1750519E+03  0.7818608E-02  0.1172811E+00
         21   -1    0    0  503  502  0.00000000000E+00  0.00000000000E+00  0.78189475090E+03  0.78189475090E+03  0.00000000000E+00 0. -1.
         21   -1    0    0  501  503 -0.00000000000E+00 -0.00000000000E+00 -0.39360681027E+02  0.39360681027E+02  0.00000000000E+00 0. -1.
          6    2    1    2  501    0 -0.21824010496E+02 -0.21688195398E+02  0.40684309497E+03  0.44290457299E+03  0.17232670016E+03 0.  0.
         24    2    3    3    0    0 -0.15406756495E+02 -0.76534062276E+02  0.34009317756E+03  0.35614691202E+03  0.71291112205E+02 0.  0.
         -6    2    1    2    0  502  0.21824010496E+02  0.21688195398E+02  0.33569097490E+03  0.37835085895E+03  0.17179719608E+03 0.  0.
        -24    2    5    5    0    0  0.67955004501E+02  0.42415378105E+02  0.28531569998E+03  0.30681455324E+03  0.79455487451E+02 0.  0.
          5    1    3    3  501    0 -0.64172540011E+01  0.54845866878E+02  0.66749917411E+02  0.86757660969E+02  0.47000000000E+01 0. -1.
        -13    1    4    4    0    0  0.24030746830E+02 -0.50577492652E+02  0.14537212816E+03  0.15578387337E+03  0.00000000000E+00 0.  1.
         14    1    4    4    0    0 -0.39437503324E+02 -0.25956569624E+02  0.19472104941E+03  0.20036303865E+03  0.00000000000E+00 0. -1.
         -5    1    5    5    0  502 -0.46130994006E+02 -0.20727182707E+02  0.50375274921E+02  0.71536305708E+02  0.47000000000E+01 0.  1.
         11    1    6    6    0    0  0.44986638761E+02 -0.18978570412E+00  0.22512955122E+03  0.22958037485E+03  0.00000000000E+00 0. -1.
        -12    1    6    6    0    0  0.22968365741E+02  0.42605163809E+02  0.60186148766E+02  0.77234178388E+02  0.00000000000E+00 0.  1.
</event>
<event>
12    1  0.8113184E-002  0.2534810E+03  0.7818608E-02  0.1111676E+00
         21   -1    0    0  501  502  0.00000000000E+00  0.00000000000E+00  0.17798591031E+03  0.17798591031E+03  0.00000000000E+00 0.  1.
         21   -1    0    0  502  503 -0.00000000000E+00 -0.00000000000E+00 -0.48797037787E+03  0.48797037787E+03  0.00000000000E+00 0.  1.
         -6    2    1    2    0  503 -0.17388714623E+03  0.65191037669E+02 -0.32895210564E+03  0.41528558105E+03  0.17252830205E+03 0.  0.
        -24    2    3    3    0    0 -0.57866588640E+02  0.85946247902E+02 -0.21177540092E+03  0.24902067596E+03  0.80169676394E+02 0.  0.
          6    2    1    2  501    0  0.17388714623E+03 -0.65191037669E+02  0.18967638073E+02  0.25067070714E+03  0.16730039184E+03 0.  0.
         24    2    5    5    0    0  0.74859080621E+02 -0.81675554545E+02  0.51766309542E+02  0.14495344306E+03  0.77826548747E+02 0.  0.
          5    1    5    5  501    0  0.99028065605E+02  0.16484516876E+02 -0.32798671469E+02  0.10571726408E+03  0.47000000000E+01 0. -1.
        -11    1    6    6    0    0  0.79656396717E+02 -0.52823927346E+02  0.62044972432E+02  0.11395212785E+03  0.00000000000E+00 0.  1.
         12    1    6    6    0    0 -0.47973160964E+01 -0.28851627199E+02 -0.10278662890E+02  0.31001315207E+02  0.00000000000E+00 0. -1.
         -5    1    3    3    0  503 -0.11602055759E+03 -0.20755210233E+02 -0.11717670472E+03  0.16626490508E+03  0.47000000000E+01 0.  1.
         13    1    4    4    0    0 -0.28116308159E+02  0.33189722000E+02 -0.19939008840E+02  0.47850271728E+02  0.00000000000E+00 0. -1.
        -14    1    4    4    0    0 -0.29750280481E+02  0.52756525902E+02 -0.19183639208E+03  0.20117040424E+03  0.00000000000E+00 0.  1.
</event>
<event>
12    1  0.8113184E-002  0.2327874E+03  0.7818608E-02  0.1124740E+00
         21   -1    0    0  503  502  0.00000000000E+00  0.00000000000E+00  0.89148436507E+02  0.89148436507E+02  0.00000000000E+00 0. -1.
         21   -1    0    0  501  503 -0.00000000000E+00 -0.00000000000E+00 -0.71528178017E+03  0.71528178017E+03  0.00000000000E+00 0.  1.
          6    2    1    2  501    0 -0.84692313117E+02 -0.13301215203E+03 -0.46929223909E+03  0.52373621219E+03  0.17087830113E+03 0.  0.
         24    2    3    3    0    0 -0.57548347375E+02 -0.15741147035E+03 -0.31834524355E+03  0.36836823906E+03  0.79128264079E+02 0.  0.
         -6    2    1    2    0  502  0.84692313117E+02  0.13301215203E+03 -0.15684110458E+03  0.28069400450E+03  0.17124535493E+03 0.  0.
        -24    2    5    5    0    0  0.29288267604E+02  0.12980977816E+03 -0.16325431843E+03  0.22463080115E+03  0.78093810334E+02 0.  0.
          5    1    3    3  501    0 -0.27143965742E+02  0.24399318318E+02 -0.15094699554E+03  0.15536797313E+03  0.47000000000E+01 0. -1.
        -11    1    4    4    0    0 -0.68598410159E+01 -0.70124561839E+02 -0.20410416909E+03  0.21592365186E+03  0.00000000000E+00 0.  1.
         12    1    4    4    0    0 -0.50688506359E+02 -0.87286908506E+02 -0.11424107446E+03  0.15244458720E+03  0.00000000000E+00 0. -1.
         -5    1    5    5    0  502  0.55404045514E+02  0.32023738710E+01  0.64132138548E+01  0.56063203348E+02  0.47000000000E+01 0.  1.
         11    1    6    6    0    0  0.21592738135E+02  0.84142157532E+02 -0.45427950515E+02  0.98029830676E+02  0.00000000000E+00 0. -1.
        -12    1    6    6    0    0  0.76955294691E+01  0.45667620625E+02 -0.11782636792E+03  0.12660097047E+03  0.00000000000E+00 0.  1.
</event>
<event>
12    1  0.8113184E-002  0.2139880E+03  0.7818608E-02  0.1140930E+00
         21   -1    0    0  503  502  0.00000000000E+00  0.00000000000E+00  0.45816048661E+03  0.45816048661E+03  0.00000000000E+00 0. -1.
         21   -1    0    0  501  503 -0.00000000000E+00 -0.00000000000E+00 -0.20185061902E+03  0.20185061902E+03  0.00000000000E+00 0.  1.
          6    2    1    2  501    0 -0.57592726857E+02 -0.89590400885E+02 -0.11456995381E+03  0.23182575225E+03  0.17109512843E+03 0.  0.
         24    2    3    3    0    0  0.32504649855E+02 -0.67186510839E+02 -0.63127946012E+02  0.12558149713E+03  0.78835241819E+02 0.  0.
         -6    2    1    2    0  502  0.57592726857E+02  0.89590400885E+02  0.37087982140E+03  0.42818535339E+03  0.18560035780E+03 0.  0.
        -24    2    5    5    0    0  0.60690947517E+02  0.13037674416E+03  0.33678940300E+03  0.37473096727E+03  0.79465145363E+02 0.  0.
          5    1    3    3  501    0 -0.90097376712E+02 -0.22403890046E+02 -0.51442007802E+02  0.10624425512E+03  0.47000000000E+01 0. -1.
        -11    1    4    4    0    0  0.21516130952E+02  0.12193596930E+02 -0.20382943852E+01  0.24814962044E+02  0.00000000000E+00 0.  1.
         12    1    4    4    0    0  0.10988518903E+02 -0.79380107769E+02 -0.61089651626E+02  0.10076653508E+03  0.00000000000E+00 0. -1.
         -5    1    5    5    0  502 -0.30982206603E+01 -0.40786343271E+02  0.34090418401E+02  0.53454386120E+02  0.47000000000E+01 0.  1.
         13    1    6    6    0    0 -0.15016425572E+02  0.17633730589E+02  0.91195468417E+02  0.94090674093E+02  0.00000000000E+00 0. -1.
        -14    1    6    6    0    0  0.75707373089E+02  0.11274301357E+03  0.24559393458E+03  0.28064029317E+03  0.00000000000E+00 0.  1.
</event>
<event>
12    1  0.8113184E-002  0.1736371E+03  0.7818608E-02  0.1174815E+00
         21   -1    0    0  503  502  0.00000000000E+00  0.00000000000E+00  0.52731998868E+03  0.52731998868E+03  0.00000000000E+00 0. -1.
         21   -1    0    0  501  503 -0.00000000000E+00 -0.00000000000E+00 -0.62935247848E+02  0.62935247848E+02  0.00000000000E+00 0. -1.
          6    2    1    2  501    0  0.21209794388E+02 -0.47484150294E+01  0.13780299703E+03  0.22167432653E+03  0.17227140862E+03 0.  0.
         24    2    3    3    0    0  0.25399000629E+02  0.13863641043E+02  0.16626208599E+03  0.18709155878E+03  0.80764226943E+02 0.  0.
         -6    2    1    2    0  502 -0.21209794388E+02  0.47484150294E+01  0.32658174380E+03  0.36858091000E+03  0.16948111696E+03 0.  0.
        -24    2    5    5    0    0 -0.68326087853E+02 -0.10704801382E+02  0.28326882529E+03  0.30257450184E+03  0.80790189568E+02 0.  0.
          5    1    3    3  501    0 -0.41892062412E+01 -0.18612056072E+02 -0.28459088966E+02  0.34582767745E+02  0.47000000000E+01 0. -1.
        -11    1    4    4    0    0  0.18144105499E+02 -0.31939443745E+02  0.97150428185E+02  0.10386309416E+03  0.00000000000E+00 0.  1.
         12    1    4    4    0    0  0.72548951302E+01  0.45803084788E+02  0.69111657807E+02  0.83228464628E+02  0.00000000000E+00 0. -1.
         -5    1    5    5    0  502  0.47116293465E+02  0.15453216411E+02  0.43312918518E+02  0.66006408158E+02  0.47000000000E+01 0.  1.
         11    1    6    6    0    0 -0.34003722068E+02 -0.23228206951E+02  0.24932933741E+03  0.25270718471E+03  0.00000000000E+00 0. -1.
        -12    1    6    6    0    0 -0.34322365785E+02  0.12523405568E+02  0.33939487879E+02  0.49867317128E+02  0.00000000000E+00 0.  1.
</event>
<event>
12    1  0.8113184E-002  0.2626398E+03  0.7818608E-02  0.1105652E+00
         21   -1    0    0  503  502  0.00000000000E+00  0.00000000000E+00  0.80448948424E+02  0.80448948424E+02  0.00000000000E+00 0.  1.
         21   -1    0    0  501  503 -0.00000000000E+00 -0.00000000000E+00 -0.90163633900E+03  0.90163633900E+03  0.00000000000E+00 0. -1.
          6    2    1    2  501    0 -0.19790207246E+03 -0.16598546084E+02 -0.30002275876E+03  0.39873965921E+03  0.17186889782E+03 0.  0.
         24    2    3    3    0    0 -0.70859392098E+02  0.38722197072E+02 -0.82702717687E+02  0.14096006826E+03  0.80681716253E+02 0.  0.
         -6    2    1    2    0  502  0.19790207246E+03  0.16598546084E+02 -0.52116463181E+03  0.58334562821E+03  0.17099358609E+03 0.  0.
        -24    2    5    5    0    0  0.85095620223E+02  0.20102883616E+02 -0.40177955369E+03  0.41899094185E+03  0.80505956830E+02 0.  0.
          5    1    3    3  501    0 -0.12704268036E+03 -0.55320743156E+02 -0.21732004107E+03  0.25777959095E+03  0.47000000000E+01 0. -1.
        -13    1    4    4    0    0 -0.75769767609E+02  0.85457651050E+01 -0.34070024447E+02  0.83515593457E+02  0.00000000000E+00 0.  1.
         14    1    4    4    0    0  0.49103755114E+01  0.30176431967E+02 -0.48632693241E+02  0.57444474806E+02  0.00000000000E+00 0. -1.
         -5    1    5    5    0  502  0.11280645224E+03 -0.35043375321E+01 -0.11938507813E+03  0.16435468636E+03  0.47000000000E+01 0.  1.
         11    1    6    6    0    0  0.77208750823E+02  0.47289556682E+02 -0.30402313515E+03  0.31721847374E+03  0.00000000000E+00 0. -1.
        -12    1    6    6    0    0  0.78868694003E+01 -0.27186673066E+02 -0.97756418535E+02  0.10177246811E+03  0.00000000000E+00 0.  1.
</event>
<event>
12    1  0.8113184E-002  0.1836093E+03  0.7818608E-02  0.1164420E+00
         21   -1    0    0  503  502  0.00000000000E+00  0.00000000000E+00  0.17374228661E+03  0.17374228661E+03  0.00000000000E+00 0. -1.
         21   -1    0    0  501  503 -0.00000000000E+00 -0.00000000000E+00 -0.39143237276E+03  0.39143237276E+03  0.00000000000E+00 0. -1.
          6    2    1    2  501    0 -0.62157678176E+02 -0.10565736669E+02 -0.30962717390E+03  0.35983397666E+03  0.17215194509E+03 0.  0.
         24    2    3    3    0    0 -0.60512840586E+01 -0.60920091559E+02 -0.21814988211E+03  0.24120146245E+03  0.82709726304E+02 0.  0.
         -6    2    1    2    0  502  0.62157678176E+02  0.10565736669E+02  0.91937087741E+02  0.20534068271E+03  0.17244464656E+03 0.  0.
        -24    2    5    5    0    0  0.84788418351E+02  0.58767645785E+02  0.70456359215E+02  0.14772917222E+03  0.78848574451E+02 0.  0.
          5    1    3    3  501    0 -0.56106394117E+02  0.50354354889E+02 -0.91477291784E+02  0.11863251422E+03  0.47000000000E+01 0. -1.
        -11    1    4    4    0    0  0.17880016383E+02 -0.24072658881E+02 -0.15331340217E+02  0.33678448365E+02  0.00000000000E+00 0.  1.
         12    1    4    4    0    0 -0.23931300441E+02 -0.36847432678E+02 -0.20281854190E+03  0.20752301408E+03  0.00000000000E+00 0. -1.
         -5    1    5    5    0  502 -0.22630740175E+02 -0.48201909116E+02  0.21480728525E+02  0.57611510492E+02  0.47000000000E+01 0.  1.
         11    1    6    6    0    0  0.24439766508E+02 -0.10088535073E+02  0.45839404712E+02  0.52918160882E+02  0.00000000000E+00 0. -1.
        -12    1    6    6    0    0  0.60348651843E+02  0.68856180858E+02  0.24616954504E+02  0.94811011336E+02  0.00000000000E+00 0.  1.
</event>
<event>
12    1  0.8113184E-002  0.2405673E+03  0.7818608E-02  0.1119761E+00
         21   -1    0    0  503  502  0.00000000000E+00  0.00000000000E+00  0.23808958990E+03  0.23808958990E+03  0.00000000000E+00 0. -1.
         21   -1    0    0  501  503 -0.00000000000E+00 -0.00000000000E+00 -0.26180796240E+03  0.26180796240E+03  0.00000000000E+00 0.  1.
          6    2    1    2  501    0 -0.13513704091E+03  0.91504662662E+02 -0.82402449080E+02  0.25428875701E+03  0.17674129459E+03 0.  0.
         24    2    3    3    0    0  0.71566535338E+01  0.24198413138E+02 -0.32321329761E+02  0.89037931853E+02  0.79033562889E+02 0.  0.
         -6    2    1    2    0  502  0.13513704091E+03 -0.91504662662E+02  0.58684076582E+02  0.24560879529E+03  0.17391013877E+03 0.  0.
        -24    2    5    5    0    0  0.21930441372E+02 -0.94793500968E+01  0.64617219152E+02  0.10560458728E+03  0.80038375214E+02 0.  0.
          5    1    3    3  501    0 -0.14229369444E+03  0.67306249524E+02 -0.50081119319E+02  0.16525082516E+03  0.47000000000E+01 0. -1.
        -11    1    4    4    0    0  0.25415665692E+02  0.40963721288E+02 -0.40471703920E+02  0.62943953979E+02  0.00000000000E+00 0.  1.
         12    1    4    4    0    0 -0.18259012158E+02 -0.16765308150E+02  0.81503741591E+01  0.26093977874E+02  0.00000000000E+00 0. -1.
         -5    1    5    5    0  502  0.11320659954E+03 -0.82025312565E+02 -0.59331425702E+01  0.14000420801E+03  0.47000000000E+01 0.  1.
         13    1    6    6    0    0 -0.94867992068E+01  0.28915224433E+02  0.39891818867E+02  0.50174164424E+02  0.00000000000E+00 0. -1.
        -14    1    6    6    0    0  0.31417240578E+02 -0.38394574529E+02  0.24725400286E+02  0.55430422857E+02  0.00000000000E+00 0.  1.
</event>
<event>
12    1  0.8113184E-002  0.1752926E+03  0.7818608E-02  0.1172521E+00
         21   -1    0    0  501  502  0.00000000000E+00  0.00000000000E+00  0.15600502117E+03  0.15600502117E+03  0.00000000000E+00 0.  1.
         21   -1    0    0  502  503 -0.00000000000E+00 -0.00000000000E+00 -0.20098098206E+03  0.20098098206E+03  0.00000000000E+00 0.  1.
         -6    2    1    2    0  503 -0.49097769342E+01 -0.32419083041E+02  0.39023426778E+01  0.17500633842E+03  0.17186299007E+03 0.  0.
        -24    2    3    3    0    0 -0.21424393324E+02 -0.13585113975E+02 -0.61623203641E+02  0.10469888387E+03  0.80751947997E+02 0.  0.
          6    2    1    2  501    0  0.49097769342E+01  0.32419083041E+02 -0.48878303572E+02  0.18197966481E+03  0.17219874270E+03 0.  0.
         24    2    5    5    0    0  0.34980730249E+01  0.62928219225E+02 -0.86842652965E+02  0.13302885150E+03  0.78630984144E+02 0.  0.
          5    1    5    5  501    0  0.14117039093E+01 -0.30509136184E+02  0.37964349393E+02  0.48950813307E+02  0.47000000000E+01 0. -1.
        -13    1    6    6    0    0  0.45361968637E+01  0.22392562056E+02  0.12276129067E+02  0.25936600824E+02  0.00000000000E+00 0.  1.
         14    1    6    6    0    0 -0.10381238387E+01  0.40535657169E+02 -0.99118782032E+02  0.10709225068E+03  0.00000000000E+00 0. -1.
         -5    1    3    3    0  503  0.16514616390E+02 -0.18833969066E+02  0.65525546319E+02  0.70307454553E+02  0.47000000000E+01 0.  1.
         11    1    4    4    0    0  0.14833545852E+02  0.13812544545E+02 -0.55197980829E+02  0.58801679882E+02  0.00000000000E+00 0. -1.
        -12    1    4    4    0    0 -0.36257939176E+02 -0.27397658520E+02 -0.64252228123E+01  0.45897203987E+02  0.00000000000E+00 0.  1.
</event>
<event>
12    1  0.8113184E-002  0.2998296E+03  0.7818608E-02  0.1085393E+00
         21   -1    0    0  501  502  0.00000000000E+00  0.00000000000E+00  0.71043485135E+03  0.71043485135E+03  0.00000000000E+00 0. -1.
         21   -1    0    0  502  503 -0.00000000000E+00 -0.00000000000E+00 -0.56336954901E+03  0.56336954901E+03  0.00000000000E+00 0.  1.
         -6    2    1    2    0  503 -0.16687111272E+03 -0.18015998888E+03 -0.48743019549E+03  0.57226392730E+03  0.17202969848E+03 0.  0.
        -24    2    3    3    0    0 -0.86687926003E+02 -0.81404991441E+02 -0.37680074993E+03  0.40361382449E+03  0.82363493288E+02 0.  0.
          6    2    1    2  501    0  0.16687111272E+03  0.18015998888E+03  0.63449549783E+03  0.70154047306E+03  0.17108743005E+03 0.  0.
         24    2    5    5    0    0  0.18895676674E+03  0.15017619757E+03  0.49561294078E+03  0.55767505502E+03  0.84331073233E+02 0.  0.
          5    1    5    5  501    0 -0.22085654015E+02  0.29983791314E+02  0.13888255705E+03  0.14386541804E+03  0.47000000000E+01 0. -1.
        -13    1    6    6    0    0  0.30705245189E+02  0.12150231548E+02  0.22227296114E+02  0.39805689309E+02  0.00000000000E+00 0.  1.
         14    1    6    6    0    0  0.15825152155E+03  0.13802596602E+03  0.47338564466E+03  0.51786936571E+03  0.00000000000E+00 0. -1.
         -5    1    3    3    0  503 -0.80183186721E+02 -0.98754997439E+02 -0.11062944555E+03  0.16865010280E+03  0.47000000000E+01 0.  1.
         13    1    4    4    0    0 -0.19083028012E+02 -0.54162431713E+02 -0.83151387435E+02  0.10105386781E+03  0.00000000000E+00 0. -1.
        -14    1    4    4    0    0 -0.67604897990E+02 -0.27242559728E+02 -0.29364936250E+03  0.30255995668E+03  0.00000000000E+00 0.  1.
</event>
<event>
12    1  0.8113184E-002  0.1789775E+03  0.7818608E-02  0.1168806E+00
         21   -1    0    0  501  502  0.00000000000E+00  0.00000000000E+00  0.13066955473E+04  0.13066955473E+04  0.00000000000E+00 0.  1.
         21   -1    0    0  502  503 -0.00000000000E+00 -0.00000000000E+00 -0.27568829818E+02  0.27568829818E+02  0.00000000000E+00 0.  1.
         -6    2    1    2    0  503  0.21229015220E+02 -0.46505827006E+02  0.41737053725E+03  0.45412674074E+03  0.17152104319E+03 0.  0.
        -24    2    3    3    0    0  0.97146176392E+01 -0.66007946239E+02  0.41804126902E+03  0.43098686417E+03  0.80868731454E+02 0.  0.
          6    2    1    2  501    0 -0.21229015220E+02  0.46505827006E+02  0.86175618025E+03  0.88013763639E+03  0.17147910010E+03 0.  0.
         24    2    5    5    0    0 -0.65113872971E+02  0.51840164464E+02  0.39224517462E+03  0.40852655690E+03  0.78169377480E+02 0.  0.
          5    1    5    5  501    0  0.43884857751E+02 -0.53343374581E+01  0.46951100562E+03  0.47161107949E+03  0.47000000000E+01 0. -1.
        -13    1    6    6    0    0 -0.52385144858E+02  0.92654657475E+01  0.10339228145E+03  0.11627560415E+03  0.00000000000E+00 0.  1.
         14    1    6    6    0    0 -0.12728728113E+02  0.42574698717E+02  0.28885289318E+03  0.29225095275E+03  0.00000000000E+00 0. -1.
         -5    1    3    3    0  503  0.11514397581E+02  0.19502119233E+02 -0.67073176997E+00  0.23139876562E+02  0.47000000000E+01 0.  1.
         11    1    4    4    0    0 -0.33064030975E+02 -0.34647424920E+02  0.14094595299E+03  0.14886045769E+03  0.00000000000E+00 0. -1.
        -12    1    4    4    0    0  0.42778648614E+02 -0.31360521319E+02  0.27709531602E+03  0.28212640648E+03  0.00000000000E+00 0.  1.
</event>
<event>
12    1  0.8113184E-002  0.2049031E+03  0.7818608E-02  0.1145744E+00
         21   -1    0    0  501  502  0.00000000000E+00  0.00000000000E+00  0.13838111223E+04  0.13838111223E+04  0.00000000000E+00 0. -1.
         21   -1    0    0  502  503 -0.00000000000E+00 -0.00000000000E+00 -0.42885815379E+02  0.42885815379E+02  0.00000000000E+00 0. -1.
         -6    2    1    2    0  503  0.14876470892E+02  0.11087484987E+03  0.28421911205E+03  0.35037948475E+03  0.17167043415E+03 0.  0.
        -24    2    3    3    0    0  0.18373190100E+02  0.12917590445E+03  0.14842259466E+03  0.21323015089E+03  0.80086467250E+02 0.  0.
          6    2    1    2  501    0 -0.14876470892E+02 -0.11087484987E+03  0.10567061949E+04  0.10763174530E+04  0.17122130556E+03 0.  0.
         24    2    5    5    0    0 -0.12188358005E+01 -0.77708567606E+02  0.10149591459E+04  0.10210776179E+04  0.80108220089E+02 0.  0.
          5    1    5    5  501    0 -0.13657635091E+02 -0.33166282266E+02  0.41747049028E+02  0.55239835067E+02  0.47000000000E+01 0. -1.
        -13    1    6    6    0    0 -0.21668050941E+02 -0.23678028247E+01  0.81654887478E+02  0.84514090960E+02  0.00000000000E+00 0.  1.
         14    1    6    6    0    0  0.20449215141E+02 -0.75340764781E+02  0.93330425840E+03  0.93656352694E+03  0.00000000000E+00 0. -1.
         -5    1    3    3    0  503 -0.34967192084E+01 -0.18301054581E+02  0.13579651739E+03  0.13714933386E+03  0.47000000000E+01 0.  1.
         13    1    4    4    0    0  0.21549022292E+02  0.33473045887E+02  0.96308133187E+02  0.10421161970E+03  0.00000000000E+00 0. -1.
        -14    1    4    4    0    0 -0.31758321915E+01  0.95702858566E+02  0.52114461475E+02  0.10901853119E+03  0.00000000000E+00 0.  1.
</event>
<event>
12    1  0.8113184E-002  0.2124775E+03  0.7818608E-02  0.1139966E+00
         21   -1    0    0  503  502  0.00000000000E+00  0.00000000000E+00  0.21818029580E+03  0.21818029580E+03  0.00000000000E+00 0. -1.
         21   -1    0    0  501  503 -0.00000000000E+00 -0.00000000000E+00 -0.22464973606E+03  0.22464973606E+03  0.00000000000E+00 0.  1.
          6    2    1    2  501    0  0.10154801672E+03 -0.68593376083E+02 -0.68364701508E+02  0.22152098609E+03  0.17140817928E+03 0.  0.
         24    2    3    3    0    0  0.12716303184E+03 -0.87445347218E+02 -0.75802418479E+02  0.18852196415E+03  0.77313639807E+02 0.  0.
         -6    2    1    2    0  502 -0.10154801672E+03  0.68593376083E+02  0.61895261249E+02  0.22130904577E+03  0.17357885653E+03 0.  0.
        -24    2    5    5    0    0 -0.99969397017E+02  0.10690946356E+03  0.21884141746E+02  0.16568895692E+03  0.74501013745E+02 0.  0.
          5    1    3    3  501    0 -0.25615015125E+02  0.18851971135E+02  0.74377169706E+01  0.32999021944E+02  0.47000000000E+01 0. -1.
        -13    1    4    4    0    0  0.53224301465E+02 -0.31309518925E+02  0.94649966465E+01  0.62471580765E+02  0.00000000000E+00 0.  1.
         14    1    4    4    0    0  0.73938730380E+02 -0.56135828293E+02 -0.85267415125E+02  0.12605038338E+03  0.00000000000E+00 0. -1.
         -5    1    5    5    0  502 -0.15786197026E+01 -0.38316087473E+02  0.40011119503E+02  0.55620088846E+02  0.47000000000E+01 0.  1.
         13    1    6    6    0    0  0.23287363391E+01  0.24313235929E+02  0.23928947668E+02  0.34192849995E+02  0.00000000000E+00 0. -1.
        -14    1    6    6    0    0 -0.10229813336E+03  0.82596227627E+02 -0.20448059223E+01  0.13149610693E+03  0.00000000000E+00 0.  1.
</event>
<event>
12    1  0.8113184E-002  0.2105363E+03  0.7818608E-02  0.1141172E+00
         21   -1    0    0  501  502  0.00000000000E+00  0.00000000000E+00  0.74016583305E+03  0.74016583305E+03  0.00000000000E+00 0.  1.
         21   -1    0    0  502  503 -0.00000000000E+00 -0.00000000000E+00 -0.99000419832E+02  0.99000419832E+02  0.00000000000E+00 0.  1.
         -6    2    1    2    0  503  0.11995519372E+03  0.16093991523E+02  0.56772358435E+02  0.21805646771E+03  0.17227088368E+03 0.  0.
        -24    2    3    3    0    0  0.63915805850E+02 -0.55752293176E+02  0.17061879799E+02  0.11855112247E+03  0.81053762802E+02 0.  0.
          6    2    1    2  501    0 -0.11995519372E+03 -0.16093991523E+02  0.58439305479E+03  0.62110978518E+03  0.17208677375E+03 0.  0.
         24    2    5    5    0    0 -0.14404167002E+03  0.12180214752E+02  0.52792999582E+03  0.55336204640E+03  0.81259544537E+02 0.  0.
          5    1    5    5  501    0  0.24086476305E+02 -0.28274206275E+02  0.56463058969E+02  0.67747738777E+02  0.47000000000E+01 0. -1.
        -11    1    6    6    0    0 -0.12670549650E+03  0.33684767574E+02  0.48422354580E+03  0.50165863764E+03  0.00000000000E+00 0.  1.
         12    1    6    6    0    0 -0.17336173526E+02 -0.21504552822E+02  0.43706450017E+02  0.51703408763E+02  0.00000000000E+00 0. -1.
         -5    1    3    3    0  503  0.56039387868E+02  0.71846284699E+02  0.39710478636E+02  0.99505345239E+02  0.47000000000E+01 0.  1.
         11    1    4    4    0    0  0.25662772135E+02 -0.58452886663E+01  0.43093021418E+02  0.50495086575E+02  0.00000000000E+00 0. -1.
        -12    1    4    4    0    0  0.38253033715E+02 -0.49907004510E+02 -0.26031141619E+02  0.68056035894E+02  0.00000000000E+00 0.  1.
</event>
<event>
12    1  0.8113184E-002  0.2527577E+03  0.7818608E-02  0.1111673E+00
         21   -1    0    0  503  502  0.00000000000E+00  0.00000000000E+00  0.69705087944E+02  0.69705087944E+02  0.00000000000E+00 0.  1.
         21   -1    0    0  501  503 -0.00000000000E+00 -0.00000000000E+00 -0.98242739323E+03  0.98242739323E+03  0.00000000000E+00 0.  1.
          6    2    1    2  501    0 -0.18330882601E+03  0.21624798372E+02 -0.59443796282E+03  0.64569507286E+03  0.17174363997E+03 0.  0.
         24    2    3    3    0    0 -0.72571558840E+02  0.65957253357E+02 -0.37593253788E+03  0.39670748354E+03  0.80215734347E+02 0.  0.
         -6    2    1    2    0  502  0.18330882601E+03 -0.21624798372E+02 -0.31828434246E+03  0.40643740831E+03  0.17267508975E+03 0.  0.
        -24    2    5    5    0    0  0.29080839616E+02 -0.35568298085E+02 -0.86377290644E+02  0.12754018055E+03  0.81820915747E+02 0.  0.
          5    1    3    3  501    0 -0.11073726717E+03 -0.44332454985E+02 -0.21850542495E+03  0.24898758932E+03  0.47000000000E+01 0. -1.
        -13    1    4    4    0    0 -0.59096838222E+02  0.81291670110E-02 -0.18910461389E+03  0.19812367690E+03  0.00000000000E+00 0.  1.
         14    1    4    4    0    0 -0.13474720618E+02  0.65949124190E+02 -0.18682792399E+03  0.19858380664E+03  0.00000000000E+00 0. -1.
         -5    1    5    5    0  502  0.15422798640E+03  0.13943499713E+02 -0.23190705182E+03  0.27889722777E+03  0.47000000000E+01 0.  1.
         11    1    6    6    0    0 -0.31979832837E+01  0.18915132086E+02 -0.52125118545E+02  0.55543112104E+02  0.00000000000E+00 0. -1.
        -12    1    6    6    0    0  0.32278822899E+02 -0.54483430170E+02 -0.34252172099E+02  0.71997068443E+02  0.00000000000E+00 0.  1.
</event>
<event>
12    1  0.8113184E-002  0.2113716E+03  0.7818608E-02  0.1140581E+00
         21   -1    0    0  503  502  0.00000000000E+00  0.00000000000E+00  0.22491080930E+03  0.22491080930E+03  0.00000000000E+00 0. -1.
         21   -1    0    0  501  503 -0.00000000000E+00 -0.00000000000E+00 -0.25865525990E+03  0.25865525990E+03  0.00000000000E+00 0. -1.
          6    2    1    2  501    0 -0.12203673722E+03 -0.19694561681E+02 -0.13379069292E+03  0.25015572999E+03  0.17145582155E+03 0.  0.
         24    2    3    3    0    0 -0.22789828743E+02 -0.53097126753E+02 -0.34778843163E+02  0.10596447995E+03  0.81732624552E+02 0.  0.
         -6    2    1    2    0  502  0.12203673722E+03  0.19694561681E+02  0.10004624232E+03  0.23341033921E+03  0.17085167502E+03 0.  0.
        -24    2    5    5    0    0  0.36770611862E+02 -0.33332179555E+02  0.59809391023E+01  0.95742192243E+02  0.81655885595E+02 0.  0.
          5    1    3    3  501    0 -0.99246908476E+02  0.33402565072E+02 -0.99011849755E+02  0.14419125004E+03  0.47000000000E+01 0. -1.
        -11    1    4    4    0    0 -0.22244425350E+02 -0.43185794122E+02  0.18341008172E+02  0.51925137014E+02  0.00000000000E+00 0.  1.
         12    1    4    4    0    0 -0.54540339290E+00 -0.99113326305E+01 -0.53119851334E+02  0.54039342938E+02  0.00000000000E+00 0. -1.
         -5    1    5    5    0  502  0.85266125357E+02  0.53026741236E+02  0.94065303220E+02  0.13766814697E+03  0.47000000000E+01 0.  1.
         13    1    6    6    0    0  0.24015920379E+02 -0.50045622369E+01  0.41713820836E+02  0.48392694940E+02  0.00000000000E+00 0. -1.
        -14    1    6    6    0    0  0.12754691483E+02 -0.28327617318E+02 -0.35732881734E+02  0.47349497302E+02  0.00000000000E+00 0.  1.
</event>
<event>
12    1  0.8113184E-002  0.2071809E+03  0.7818608E-02  0.1144304E+00
         21   -1    0    0  501  502  0.00000000000E+00  0.00000000000E+00  0.42150857913E+03  0.42150857913E+03  0.00000000000E+00 0.  1.
         21   -1    0    0  502  503 -0.00000000000E+00 -0.00000000000E+00 -0.10337298947E+03  0.10337298947E+03  0.00000000000E+00 0. -1.
         -6    2    1    2    0  503 -0.18014065445E+02  0.11043036058E+03  0.20248484781E+03  0.28969649539E+03  0.17436907628E+03 0.  0.
        -24    2    3    3    0    0 -0.57885011297E+02  0.15825249914E+02  0.69624562419E+02  0.12172696030E+03  0.79804511801E+02 0.  0.
          6    2    1    2  501    0  0.18014065445E+02 -0.11043036058E+03  0.11565074185E+03  0.23518507320E+03  0.17151546133E+03 0.  0.
         24    2    5    5    0    0  0.54828888264E+01  0.13094694624E+02  0.59794932906E+02  0.98959410997E+02  0.77562864353E+02 0.  0.
          5    1    5    5  501    0  0.12531176619E+02 -0.12352505520E+03  0.55855808944E+02  0.13622566221E+03  0.47000000000E+01 0. -1.
        -11    1    6    6    0    0 -0.27454961465E+02 -0.17797472085E+02  0.32897817618E+02  0.46398182353E+02  0.00000000000E+00 0.  1.
         12    1    6    6    0    0  0.32937850291E+02  0.30892166709E+02  0.26897115287E+02  0.52561228644E+02  0.00000000000E+00 0. -1.
         -5    1    3    3    0  503  0.39870945852E+02  0.94605110666E+02  0.13286028539E+03  0.16796953510E+03  0.47000000000E+01 0.  1.
         13    1    4    4    0    0 -0.24761524657E+02  0.38041211742E+02  0.48370614329E+01  0.45647169216E+02  0.00000000000E+00 0. -1.
        -14    1    4    4    0    0 -0.33123486640E+02 -0.22215961828E+02  0.64787500986E+02  0.76079791083E+02  0.00000000000E+00 0.  1.
</event>
<event>
12    1  0.8113184E-002  0.2004566E+03  0.7818608E-02  0.1149897E+00
         21   -1    0    0  501  502  0.00000000000E+00  0.00000000000E+00  0.42738690122E+03  0.42738690122E+03  0.00000000000E+00 0.  1.
         21   -1    0    0  502  503 -0.00000000000E+00 -0.00000000000E+00 -0.10598135750E+03  0.10598135750E+03  0.00000000000E+00 0. -1.
         -6    2    1    2    0  503 -0.19573847707E+02 -0.96872109464E+02  0.65821366738E+02  0.20855120176E+03  0.17144623160E+03 0.  0.
        -24    2    3    3    0    0 -0.48034885774E+02 -0.11840002148E+03  0.21869938566E+02  0.15174187398E+03  0.78875767949E+02 0.  0.
          6    2    1    2  501    0  0.19573847707E+02  0.96872109464E+02  0.25558417698E+03  0.32481705696E+03  0.17440042392E+03 0.  0.
         24    2    5    5    0    0  0.65749496032E+02  0.25138491485E+02  0.98664539808E+02  0.14614482919E+03  0.81661984428E+02 0.  0.
          5    1    5    5  501    0 -0.46175648326E+02  0.71733617979E+02  0.15691963717E+03  0.17867222777E+03  0.47000000000E+01 0. -1.
        -11    1    6    6    0    0 -0.24188020781E+01  0.37014780589E+02  0.46539033988E+02  0.59513244492E+02  0.00000000000E+00 0.  1.
         12    1    6    6    0    0  0.68168298111E+02 -0.11876289104E+02  0.52125505821E+02  0.86631584698E+02  0.00000000000E+00 0. -1.
         -5    1    3    3    0  503  0.28461038067E+02  0.21527912015E+02  0.43951428172E+02  0.56809327772E+02  0.47000000000E+01 0.  1.
         13    1    4    4    0    0 -0.21583019551E+02 -0.47372427371E+02 -0.29826759946E+02  0.59996743385E+02  0.00000000000E+00 0. -1.
        -14    1    4    4    0    0 -0.26451866223E+02 -0.71027594108E+02  0.51696698512E+02  0.91745130598E+02  0.00000000000E+00 0.  1.
</event>
<event>
12    1  0.8113184E-002  0.1860010E+03  0.7818608E-02  0.1162380E+00
         21   -1    0    0  503  502  0.00000000000E+00  0.00000000000E+00  0.96383017529E+03  0.96383017529E+03  0.00000000000E+00 0.  1.
         21   -1    0    0  501  503 -0.00000000000E+00 -0.00000000000E+00 -0.69810949144E+02  0.69810949144E+02  0.00000000000E+00 0.  1.
          6    2    1    2  501    0 -0.68187313892E+02 -0.14665459595E+02  0.84935214240E+02  0.20345239550E+03  0.17121419666E+03 0.  0.
         24    2    3    3    0    0  0.26531876775E+02 -0.29236100444E+02  0.45705515195E+02  0.99793879486E+02  0.79442647295E+02 0.  0.
         -6    2    1    2    0  502  0.68187313892E+02  0.14665459595E+02  0.80908401191E+03  0.83018872893E+03  0.17242912122E+03 0.  0.
        -24    2    5    5    0    0  0.72903129823E+02  0.70942133249E+02  0.50204318625E+03  0.51796211005E+03  0.76744602301E+02 0.  0.
          5    1    3    3  501    0 -0.94719190666E+02  0.14570640850E+02  0.39229699045E+02  0.10365851602E+03  0.47000000000E+01 0. -1.
        -11    1    4    4    0    0  0.14306623828E+02  0.27325337995E+02  0.16044690551E+02  0.34767595212E+02  0.00000000000E+00 0.  1.
         12    1    4    4    0    0  0.12225252947E+02 -0.56561438440E+02  0.29660824643E+02  0.65026284274E+02  0.00000000000E+00 0. -1.
         -5    1    5    5    0  502 -0.47158159314E+01 -0.56276673654E+02  0.30704082566E+03  0.31222661888E+03  0.47000000000E+01 0.  1.
         13    1    6    6    0    0  0.13809062433E+02  0.24367845730E+02  0.34664671079E+02  0.44565923437E+02  0.00000000000E+00 0. -1.
        -14    1    6    6    0    0  0.59094067390E+02  0.46574287519E+02  0.46737851517E+03  0.47339618662E+03  0.00000000000E+00 0.  1.
</event>
<event>
12    1  0.8113184E-002  0.2101533E+03  0.7818608E-02  0.1141734E+00
         21   -1    0    0  503  502  0.00000000000E+00  0.00000000000E+00  0.21427186251E+03  0.21427186251E+03  0.00000000000E+00 0. -1.
         21   -1    0    0  501  503 -0.00000000000E+00 -0.00000000000E+00 -0.23032279492E+03  0.23032279492E+03  0.00000000000E+00 0.  1.
          6    2    1    2  501    0  0.10654997864E+03  0.51510996652E+02 -0.82166443989E+02  0.22428657069E+03  0.17189200258E+03 0.  0.
         24    2    3    3    0    0  0.28532296593E+02  0.26461114943E+02 -0.10662448223E+03  0.13864463634E+03  0.79619547992E+02 0.  0.
         -6    2    1    2    0  502 -0.10654997864E+03 -0.51510996652E+02  0.66115511575E+02  0.22030808673E+03  0.17366090949E+03 0.  0.
        -24    2    5    5    0    0 -0.90325482522E+02  0.25864854272E+02  0.10299498450E+02  0.12341756139E+03  0.79360766829E+02 0.  0.
          5    1    3    3  501    0  0.78017682042E+02  0.25049881709E+02  0.24458038242E+02  0.85641934352E+02  0.47000000000E+01 0. -1.
        -13    1    4    4    0    0 -0.23055388396E+02  0.33811367079E+01 -0.73905675449E+01  0.24445930299E+02  0.00000000000E+00 0.  1.
         14    1    4    4    0    0  0.51587684989E+02  0.23079978235E+02 -0.99233914687E+02  0.11419870604E+03  0.00000000000E+00 0. -1.
         -5    1    5    5    0  502 -0.16224496113E+02 -0.77375850924E+02  0.55816013125E+02  0.96890525345E+02  0.47000000000E+01 0.  1.
         11    1    6    6    0    0 -0.38650801826E+00 -0.72804576903E+01  0.25362042588E+02  0.26389157941E+02  0.00000000000E+00 0. -1.
        -12    1    6    6    0    0 -0.89938974504E+02  0.33145311962E+02 -0.15062544138E+02  0.97028403448E+02  0.00000000000E+00 0.  1.
</event>
<event>
12    1  0.8113184E-002  0.2081484E+03  0.7818608E-02  0.1143226E+00
         21   -1    0    0  501  502  0.00000000000E+00  0.00000000000E+00  0.55508384209E+02  0.55508384209E+02  0.00000000000E+00 0. -1.
         21   -1    0    0  502  503 -0.00000000000E+00 -0.00000000000E+00 -0.93158317362E+03  0.93158317362E+03  0.00000000000E+00 0. -1.
         -6    2    1    2    0  503  0.60308841387E+02 -0.99292103387E+02 -0.63822728039E+03  0.67102640942E+03  0.17159924991E+03 0.  0.
        -24    2    3    3    0    0  0.20402364396E+02 -0.68907612416E+02 -0.59474800007E+03  0.60448107139E+03  0.80670109446E+02 0.  0.
          6    2    1    2  501    0 -0.60308841387E+02  0.99292103387E+02 -0.23784750903E+03  0.31606514841E+03  0.17271265832E+03 0.  0.
         24    2    5    5    0    0 -0.74302836991E+02  0.13193161823E+03 -0.20411914716E+03  0.26686288997E+03  0.81389878538E+02 0.  0.
          5    1    5    5  501    0  0.13993995604E+02 -0.32639514839E+02 -0.33728361864E+02  0.49202258443E+02  0.47000000000E+01 0. -1.
        -11    1    6    6    0    0  0.87526865213E+01  0.35378946093E+02 -0.16277204877E+02  0.39915244539E+02  0.00000000000E+00 0.  1.
         12    1    6    6    0    0 -0.83055523512E+02  0.96552672134E+02 -0.18784194229E+03  0.22694764543E+03  0.00000000000E+00 0. -1.
         -5    1    3    3    0  503  0.39906476992E+02 -0.30384490971E+02 -0.43479280317E+02  0.66545338036E+02  0.47000000000E+01 0.  1.
         11    1    4    4    0    0  0.22411908881E+02 -0.11640112796E+02 -0.43784453635E+02  0.50545665153E+02  0.00000000000E+00 0. -1.
        -12    1    4    4    0    0 -0.20095444854E+01 -0.57267499620E+02 -0.55096354643E+03  0.55393540624E+03  0.00000000000E+00 0.  1.
</event>
<event>
12    1  0.8113184E-002  0.6174971E+03  0.7818608E-02  0.9871138E-01
         21   -1    0    0  501  502  0.00000000000E+00  0.00000000000E+00  0.60560389165E+03  0.60560389165E+03  0.00000000000E+00 0. -1.
         21   -1    0    0  502  503 -0.00000000000E+00 -0.00000000000E+00 -0.84050564902E+03  0.84050564902E+03  0.00000000000E+00 0.  1.
         -6    2    1    2    0  503 -0.39687846026E+03  0.43689504562E+03  0.24732474102E+03  0.66262686780E+03  0.17179943336E+03 0.  0.
        -24    2    3    3    0    0 -0.27018914965E+03  0.36523259117E+03  0.14030669431E+03  0.48190431491E+03  0.78414144263E+02 0.  0.
          6    2    1    2  501    0  0.39687846026E+03 -0.43689504562E+03 -0.48222649840E+03  0.78348267288E+03  0.18141915511E+03 0.  0.
         24    2    5    5    0    0  0.24584552102E+03 -0.19456031457E+03 -0.31950552928E+03  0.45479243208E+03  0.80365644557E+02 0.  0.
          5    1    5    5  501    0  0.15103293923E+03 -0.24233473104E+03 -0.16272096912E+03  0.32869024080E+03  0.47000000000E+01 0. -1.
        -13    1    6    6    0    0  0.16672036927E+03 -0.15411064919E+03 -0.18158087613E+03  0.29071874432E+03  0.00000000000E+00 0.  1.
         14    1    6    6    0    0  0.79125151755E+02 -0.40449665384E+02 -0.13792465314E+03  0.16407368776E+03  0.00000000000E+00 0. -1.
         -5    1    3    3    0  503 -0.12668931061E+03  0.71662454449E+02  0.10701804671E+03  0.18072255289E+03  0.47000000000E+01 0.  1.
         13    1    4    4    0    0 -0.14853059878E+02 -0.63510701070E+00  0.48660747485E+01  0.15642743752E+02  0.00000000000E+00 0. -1.
        -14    1    4    4    0    0 -0.25533608977E+03  0.36586769818E+03  0.13544061956E+03  0.46626157116E+03  0.00000000000E+00 0.  1.
</event>
<event>
12    1  0.8113184E-002  0.1888035E+03  0.7818608E-02  0.1162341E+00
         21   -1    0    0  501  502  0.00000000000E+00  0.00000000000E+00  0.13647756280E+03  0.13647756280E+03  0.00000000000E+00 0.  1.
         21   -1    0    0  502  503 -0.00000000000E+00 -0.00000000000E+00 -0.26204645143E+03  0.26204645143E+03  0.00000000000E+00 0.  1.
         -6    2    1    2    0  503  0.18903427508E+02  0.38620967149E+02 -0.11164931151E+03  0.20920805772E+03  0.17162029012E+03 0.  0.
        -24    2    3    3    0    0  0.26306635936E+02 -0.36226704022E+02 -0.96277256832E+02  0.13229660578E+03  0.78921914189E+02 0.  0.
          6    2    1    2  501    0 -0.18903427508E+02 -0.38620967149E+02 -0.13919577124E+02  0.18931595651E+03  0.18384193778E+03 0.  0.
         24    2    5    5    0    0  0.44858307256E+02 -0.43345599963E+02 -0.52713592603E+02  0.11438300906E+03  0.80085211814E+02 0.  0.
          5    1    5    5  501    0 -0.63761734764E+02  0.47246328141E+01  0.38794015479E+02  0.74932947442E+02  0.47000000000E+01 0. -1.
        -13    1    6    6    0    0  0.45488442970E+02 -0.51689951754E+02 -0.84923972050E+01  0.69377016126E+02  0.00000000000E+00 0.  1.
         14    1    6    6    0    0 -0.63013571451E+00  0.83443517916E+01 -0.44221195398E+02  0.45005992938E+02  0.00000000000E+00 0. -1.
         -5    1    3    3    0  503 -0.74032084276E+01  0.74847671170E+02 -0.15372054677E+02  0.76911451941E+02  0.47000000000E+01 0.  1.
         11    1    4    4    0    0  0.24155513008E+02  0.17477465222E+02 -0.11579932103E+02  0.31985081316E+02  0.00000000000E+00 0. -1.
        -12    1    4    4    0    0  0.21511229277E+01 -0.53704169244E+02 -0.84697324729E+02  0.10031152446E+03  0.00000000000E+00 0.  1.
</event>
<event>
12    1  0.8113184E-002  0.1814366E+03  0.7818608E-02  0.1166601E+00
         21   -1    0    0  503  502  0.00000000000E+00  0.00000000000E+00  0.85629195388E+02  0.85629195388E+02  0.00000000000E+00 0. -1.
         21   -1    0    0  501  503 -0.00000000000E+00 -0.00000000000E+00 -0.51209196680E+03  0.51209196680E+03  0.00000000000E+00 0. -1.
          6    2    1    2  501    0  0.48101386279E+02 -0.30734598914E+02 -0.62751518810E+02  0.19126683530E+03  0.17142604890E+03 0.  0.
         24    2    3    3    0    0  0.55107757989E+02  0.43043878819E+02 -0.32507719251E+02  0.11108497680E+03  0.79959238144E+02 0.  0.
         -6    2    1    2    0  502 -0.48101386279E+02  0.30734598914E+02 -0.36371125261E+03  0.40645432689E+03  0.17222335975E+03 0.  0.
        -24    2    5    5    0    0 -0.13523363931E+02  0.68693546666E+02 -0.32610023289E+03  0.34263269930E+03  0.78448199579E+02 0.  0.
          5    1    3    3  501    0 -0.70063717105E+01 -0.73778477734E+02 -0.30243799559E+02  0.80181858503E+02  0.47000000000E+01 0. -1.
        -13    1    4    4    0    0  0.52637593985E+01 -0.57219062860E+01 -0.40186472891E+02  0.40931650076E+02  0.00000000000E+00 0.  1.
         14    1    4    4    0    0  0.49843998591E+02  0.48765785105E+02  0.76787536395E+01  0.70153326720E+02  0.00000000000E+00 0. -1.
         -5    1    5    5    0  502 -0.34578022347E+02 -0.37958947751E+02 -0.37611019718E+02  0.63821627589E+02  0.47000000000E+01 0.  1.
         11    1    6    6    0    0 -0.14939355570E+02  0.61674168240E+02 -0.32888381555E+03  0.33494992388E+03  0.00000000000E+00 0. -1.
        -12    1    6    6    0    0  0.14159916382E+01  0.70193784260E+01  0.27835826647E+01  0.76827754267E+01  0.00000000000E+00 0.  1.
</event>
<event>
12    1  0.8113184E-002  0.3094572E+03  0.7818608E-02  0.1080792E+00
         21   -1    0    0  503  502  0.00000000000E+00  0.00000000000E+00  0.10176936277E+04  0.10176936277E+04  0.00000000000E+00 0. -1.
         21   -1    0    0  501  503 -0.00000000000E+00 -0.00000000000E+00 -0.98999825046E+02  0.98999825046E+02  0.00000000000E+00 0.  1.
          6    2    1    2  501    0 -0.19795906181E+03  0.16330429862E+03  0.32822421180E+03  0.45004653747E+03  0.17016071396E+03 0.  0.
         24    2    3    3    0    0 -0.77583491462E+02  0.15074477969E+03  0.20019160333E+03  0.27380108849E+03  0.78403898290E+02 0.  0.
         -6    2    1    2    0  502  0.19795906181E+03 -0.16330429862E+03  0.59046959082E+03  0.66664691525E+03  0.17293839314E+03 0.  0.
        -24    2    5    5    0    0  0.16057739081E+03 -0.12835912118E+03  0.57062036831E+03  0.61155938138E+03  0.78333324921E+02 0.  0.
          5    1    3    3  501    0 -0.12037557034E+03  0.12559518935E+02  0.12803260847E+03  0.17624544897E+03  0.47000000000E+01 0. -1.
        -13    1    4    4    0    0 -0.48654430511E+02  0.84172259655E+02  0.55563669891E+02  0.11198010678E+03  0.00000000000E+00 0.  1.
         14    1    4    4    0    0 -0.28929060951E+02  0.66572520032E+02  0.14462793344E+03  0.16182098171E+03  0.00000000000E+00 0. -1.
         -5    1    5    5    0  502  0.37381670995E+02 -0.34945177446E+02  0.19849222509E+02  0.55087533865E+02  0.47000000000E+01 0.  1.
         13    1    6    6    0    0  0.34403200947E+02 -0.26358952300E+02  0.49630051883E+02  0.65890186307E+02  0.00000000000E+00 0. -1.
        -14    1    6    6    0    0  0.12617418986E+03 -0.10200016888E+03  0.52099031643E+03  0.54566919508E+03  0.00000000000E+00 0.  1.
</event>
<event>
12    1  0.8113184E-002  0.2214141E+03  0.7818608E-02  0.1133014E+00
         21   -1    0    0  501  502  0.00000000000E+00  0.00000000000E+00  0.10846619959E+03  0.10846619959E+03  0.00000000000E+00 0. -1.
         21   -1    0    0  502  503 -0.00000000000E+00 -0.00000000000E+00 -0.48944591143E+03  0.48944591143E+03  0.00000000000E+00 0. -1.
         -6    2    1    2    0  503 -0.19830277285E+02 -0.13696605896E+03 -0.27498550837E+03  0.35243511337E+03  0.17158245284E+03 0.  0.
        -24    2    3    3    0    0 -0.69267563516E+02 -0.93641238649E+02 -0.24303170457E+03  0.27919427161E+03  0.72927052196E+02 0.  0.
          6    2    1    2  501    0  0.19830277285E+02  0.13696605896E+03 -0.10599420347E+03  0.24547699765E+03  0.17283299454E+03 0.  0.
         24    2    5    5    0    0  0.25732812261E+02  0.29523561588E+01 -0.18317214399E+02  0.85152773435E+02  0.79022657805E+02 0.  0.
          5    1    5    5  501    0 -0.59025349757E+01  0.13401370280E+03 -0.87676989068E+02  0.16032422421E+03  0.47000000000E+01 0. -1.
        -11    1    6    6    0    0  0.39202680276E+02 -0.92016783417E+01  0.18342792483E+02  0.44249057179E+02  0.00000000000E+00 0.  1.
         12    1    6    6    0    0 -0.13469868015E+02  0.12154034500E+02 -0.36660006882E+02  0.40903716256E+02  0.00000000000E+00 0. -1.
         -5    1    3    3    0  503  0.49437286231E+02 -0.43324820311E+02 -0.31953803793E+02  0.73240841759E+02  0.47000000000E+01 0.  1.
         11    1    4    4    0    0 -0.54650808810E+02 -0.19052441855E+02 -0.74696427950E+02  0.94494776537E+02  0.00000000000E+00 0. -1.
        -12    1    4    4    0    0 -0.14616754706E+02 -0.74588796793E+02 -0.16833527662E+03  0.18469949508E+03  0.00000000000E+00 0.  1.
</event>
<event>
12    1  0.8113184E-002  0.2181621E+03  0.7818608E-02  0.1135521E+00
         21   -1    0    0  501  502  0.00000000000E+00  0.00000000000E+00  0.20301254955E+04  0.20301254955E+04  0.00000000000E+00 0. -1.
         21   -1    0    0  502  503 -0.00000000000E+00 -0.00000000000E+00 -0.24185697919E+02  0.24185697919E+02  0.00000000000E+00 0. -1.
         -6    2    1    2    0  503 -0.94413153525E+02  0.95180815537E+02  0.80295296098E+03  0.83170249754E+03  0.17035948949E+03 0.  0.
        -24    2    3    3    0    0 -0.13265902531E+03  0.70990288272E+02  0.59590161624E+03  0.61971127678E+03  0.79405870764E+02 0.  0.
          6    2    1    2  501    0  0.94413153525E+02 -0.95180815537E+02  0.12029868366E+04  0.12226086959E+04  0.17210886963E+03 0.  0.
         24    2    5    5    0    0  0.44308568220E+02 -0.78933112739E+02  0.11021287294E+04  0.11087275951E+04  0.79971611178E+02 0.  0.
          5    1    5    5  501    0  0.50104585305E+02 -0.16247702797E+02  0.10085810726E+03  0.11388110078E+03  0.47000000000E+01 0. -1.
        -11    1    6    6    0    0 -0.11200156897E+01  0.42936776915E+01  0.26510179634E+01  0.51689456861E+01  0.00000000000E+00 0.  1.
         12    1    6    6    0    0  0.45428583910E+02 -0.83226790431E+02  0.10994777114E+04  0.11035586494E+04  0.00000000000E+00 0. -1.
         -5    1    3    3    0  503  0.38245871782E+02  0.24190527264E+02  0.20705134474E+03  0.21199122075E+03  0.47000000000E+01 0.  1.
         11    1    4    4    0    0 -0.40950310054E+02  0.49066628537E+02  0.36060090690E+03  0.36622052917E+03  0.00000000000E+00 0. -1.
        -12    1    4    4    0    0 -0.91708715253E+02  0.21923659736E+02  0.23530070934E+03  0.25349074762E+03  0.00000000000E+00 0.  1.
</event>
<event>
12    1  0.8113184E-002  0.1852492E+03  0.7818608E-02  0.1164099E+00
         21   -1    0    0  501  502  0.00000000000E+00  0.00000000000E+00  0.11180880994E+03  0.11180880994E+03  0.00000000000E+00 0.  1.
         21   -1    0    0  502  503 -0.00000000000E+00 -0.00000000000E+00 -0.30341391996E+03  0.30341391996E+03  0.00000000000E+00 0. -1.
         -6    2    1    2    0  503 -0.59042907741E+02  0.13949414509E+02 -0.12207793691E+03  0.21735586193E+03  0.16929234157E+03 0.  0.
        -24    2    3    3    0    0 -0.54968124012E+02  0.64096842542E+02 -0.12639188272E+03  0.16664029697E+03  0.68294807085E+02 0.  0.
          6    2    1    2  501    0  0.59042907741E+02 -0.13949414509E+02 -0.69527173107E+02  0.19786686797E+03  0.17503319263E+03 0.  0.
         24    2    5    5    0    0  0.22750372548E+02  0.55531577457E+02 -0.63011877223E+02  0.11906778526E+03  0.81273029171E+02 0.  0.
          5    1    5    5  501    0  0.36292535193E+02 -0.69480991966E+02 -0.65152958840E+01  0.78799082709E+02  0.47000000000E+01 0. -1.
        -13    1    6    6    0    0  0.66024045900E+01  0.39819547262E+02  0.10891063456E+02  0.41806738138E+02  0.00000000000E+00 0.  1.
         14    1    6    6    0    0  0.16147967958E+02  0.15712030195E+02 -0.73902940679E+02  0.77261047126E+02  0.00000000000E+00 0. -1.
         -5    1    3    3    0  503 -0.40747837282E+01 -0.50147428033E+02  0.43139458086E+01  0.50715564960E+02  0.47000000000E+01 0.  1.
         11    1    4    4    0    0 -0.32015026444E+02  0.32524709750E+02 -0.14113650133E+02  0.47770427909E+02  0.00000000000E+00 0. -1.
        -12    1    4    4    0    0 -0.22953097568E+02  0.31572132792E+02 -0.11227823259E+03  0.11886986906E+03  0.00000000000E+00 0.  1.
</event>
<event>
12    1  0.8113184E-002  0.1970954E+03  0.7818608E-02  0.1152414E+00
         21   -1    0    0  501  502  0.00000000000E+00  0.00000000000E+00  0.56041199753E+03  0.56041199753E+03  0.00000000000E+00 0.  1.
         21   -1    0    0  502  503 -0.00000000000E+00 -0.00000000000E+00 -0.16545225058E+03  0.16545225058E+03  0.00000000000E+00 0.  1.
         -6    2    1    2    0  503  0.81137365744E+02  0.51102651809E+02 -0.79834241371E+02  0.21178650467E+03  0.17112937890E+03 0.  0.
        -24    2    3    3    0    0  0.60957612075E+02 -0.35932872489E+02 -0.25277203785E+02  0.10699640352E+03  0.76172774275E+02 0.  0.
          6    2    1    2  501    0 -0.81137365744E+02 -0.51102651809E+02  0.47479398832E+03  0.51407774345E+03  0.17219710166E+03 0.  0.
         24    2    5    5    0    0 -0.65746094496E+01 -0.87635456078E+02  0.28707596107E+03  0.30876238073E+03  0.72099942273E+02 0.  0.
          5    1    5    5  501    0 -0.74562756294E+02  0.36532804269E+02  0.18771802725E+03  0.20531536272E+03  0.47000000000E+01 0. -1.
        -13    1    6    6    0    0 -0.28449782321E+02 -0.73705070207E+02  0.15292398141E+03  0.17212661496E+03  0.00000000000E+00 0.  1.
         14    1    6    6    0    0  0.21875172872E+02 -0.13930385871E+02  0.13415197967E+03  0.13663576577E+03  0.00000000000E+00 0. -1.
         -5    1    3    3    0  503  0.20179753669E+02  0.87035524298E+02 -0.54557037585E+02  0.10479010115E+03  0.47000000000E+01 0.  1.
         13    1    4    4    0    0  0.51755966129E+02 -0.44205227119E+02 -0.46498595227E+02  0.82431192474E+02  0.00000000000E+00 0. -1.
        -14    1    4    4    0    0  0.92016459453E+01  0.82723546298E+01  0.21221391442E+02  0.24565211050E+02  0.00000000000E+00 0.  1.
</event>
<event>
12    1  0.8113184E-002  0.1888486E+03  0.7818608E-02  0.1159602E+00
         21   -1    0    0  503  502  0.00000000000E+00  0.00000000000E+00  0.29668606816E+03  0.29668606816E+03  0.00000000000E+00 0. -1.
         21   -1    0    0  501  503 -0.00000000000E+00 -0.00000000000E+00 -0.17260386441E+03  0.17260386441E+03  0.00000000000E+00 0. -1.
          6    2    1    2  501    0  0.13718995164E+02 -0.75515295000E+02 -0.67529574183E+02  0.20055927647E+03  0.17254857108E+03 0.  0.
         24    2    3    3    0    0 -0.96675926080E+01 -0.84894304089E+02  0.91255228680E+01  0.11973234901E+03  0.83378984265E+02 0.  0.
         -6    2    1    2    0  502 -0.13718995164E+02  0.75515295000E+02  0.19161177793E+03  0.26873065610E+03  0.17207649891E+03 0.  0.
        -24    2    5    5    0    0 -0.34102092337E+02  0.16694899457E+02  0.18602485956E+03  0.20605200551E+03  0.80065649505E+02 0.  0.
          5    1    3    3  501    0  0.23386587772E+02  0.93790090895E+01 -0.76655097051E+02  0.80826927463E+02  0.47000000000E+01 0. -1.
        -11    1    4    4    0    0  0.26058684181E+02 -0.70590207595E+00  0.10911372829E+02  0.28259712950E+02  0.00000000000E+00 0.  1.
         12    1    4    4    0    0 -0.35726276789E+02 -0.84188402013E+02 -0.17858499612E+01  0.91472636055E+02  0.00000000000E+00 0. -1.
         -5    1    5    5    0  502  0.20383097173E+02  0.58820395543E+02  0.55869183661E+01  0.62678650584E+02  0.47000000000E+01 0.  1.
         13    1    6    6    0    0 -0.55169385543E+02  0.24235257634E+02  0.96461476391E+02  0.11373576940E+03  0.00000000000E+00 0. -1.
        -14    1    6    6    0    0  0.21067293207E+02 -0.75403581776E+01  0.89563383172E+02  0.92316236111E+02  0.00000000000E+00 0.  1.
</event>
<event>
12    1  0.8113184E-002  0.2301665E+03  0.7818608E-02  0.1126556E+00
         21   -1    0    0  503  502  0.00000000000E+00  0.00000000000E+00  0.11699645935E+04  0.11699645935E+04  0.00000000000E+00 0. -1.
         21   -1    0    0  501  503 -0.00000000000E+00 -0.00000000000E+00 -0.92055796625E+02  0.92055796625E+02  0.00000000000E+00 0.  1.
          6    2    1    2  501    0 -0.13862369261E+03 -0.62344041916E+02  0.88870039070E+02  0.24655287309E+03  0.17258947727E+03 0.  0.
         24    2    3    3    0    0 -0.15417610758E+03 -0.78692303103E+02  0.43435814173E+02  0.19560680310E+03  0.80078715951E+02 0.  0.
         -6    2    1    2    0  502  0.13862369261E+03  0.62344041916E+02  0.98903875783E+03  0.10154675171E+04  0.17283895975E+03 0.  0.
        -24    2    5    5    0    0  0.12219052142E+03 -0.12557586809E+02  0.54158349078E+03  0.56146464360E+03  0.82714279412E+02 0.  0.
          5    1    3    3  501    0  0.15552414968E+02  0.16348261187E+02  0.45434224898E+02  0.50946069988E+02  0.47000000000E+01 0. -1.
        -11    1    4    4    0    0 -0.92819991075E+02 -0.88196801182E+02  0.36450059227E+02  0.13312713209E+03  0.00000000000E+00 0.  1.
         12    1    4    4    0    0 -0.61356116507E+02  0.95044980789E+01  0.69857549457E+01  0.62479671004E+02  0.00000000000E+00 0. -1.
         -5    1    5    5    0  502  0.16433171194E+02  0.74901628725E+02  0.44745526706E+03  0.45400287347E+03  0.47000000000E+01 0.  1.
         11    1    6    6    0    0  0.37664143935E+02 -0.14395521451E+02  0.34663531799E+03  0.34897258124E+03  0.00000000000E+00 0. -1.
        -12    1    6    6    0    0  0.84526377485E+02  0.18379346424E+01  0.19494817278E+03  0.21249206236E+03  0.00000000000E+00 0.  1.
</event>
<event>
12    1  0.8113184E-002  0.2837021E+03  0.7818608E-02  0.1093956E+00
         21   -1    0    0  501  502  0.00000000000E+00  0.00000000000E+00  0.17730459339E+04  0.17730459339E+04  0.00000000000E+00 0.  1.
         21   -1    0    0  502  503 -0.00000000000E+00 -0.00000000000E+00 -0.61266384923E+02  0.61266384923E+02  0.00000000000E+00 0. -1.
         -6    2    1    2    0  503  0.21978245566E+03  0.37282324561E+02  0.38211546827E+03  0.47471918952E+03  0.17219691712E+03 0.  0.
        -24    2    3    3    0    0  0.19466192030E+03  0.50266577959E+02  0.21404771810E+03  0.30422434860E+03  0.79473496084E+02 0.  0.
          6    2    1    2  501    0 -0.21978245566E+03 -0.37282324561E+02  0.13296640807E+04  0.13595931293E+04  0.17547823284E+03 0.  0.
         24    2    5    5    0    0 -0.71312275089E+02  0.30268212940E+02  0.66619329446E+03  0.67634936326E+03  0.87369046646E+02 0.  0.
          5    1    5    5  501    0 -0.14847018057E+03 -0.67550537500E+02  0.66347078628E+03  0.68324376608E+03  0.47000000000E+01 0. -1.
        -11    1    6    6    0    0 -0.73875587772E+02  0.49791074971E+02  0.41864222670E+03  0.42801643379E+03  0.00000000000E+00 0.  1.
         12    1    6    6    0    0  0.25633126830E+01 -0.19522862031E+02  0.24755106776E+03  0.24833292948E+03  0.00000000000E+00 0. -1.
         -5    1    3    3    0  503  0.25120535352E+02 -0.12984253398E+02  0.16806775017E+03  0.17049484092E+03  0.47000000000E+01 0.  1.
         13    1    4    4    0    0  0.10001338148E+03 -0.14761206086E+02  0.10758543241E+03  0.14763195775E+03  0.00000000000E+00 0. -1.
        -14    1    4    4    0    0  0.94648538823E+02  0.65027784044E+02  0.10646228569E+03  0.15659239085E+03  0.00000000000E+00 0.  1.
</event>
<event>
12    1  0.8113184E-002  0.1908965E+03  0.7818608E-02  0.1158785E+00
         21   -1    0    0  501  502  0.00000000000E+00  0.00000000000E+00  0.93569972010E+02  0.93569972010E+02  0.00000000000E+00 0. -1.
         21   -1    0    0  502  503 -0.00000000000E+00 -0.00000000000E+00 -0.68295849517E+03  0.68295849517E+03  0.00000000000E+00 0. -1.
         -6    2    1    2    0  503  0.95669318165E+01  0.82870070365E+02 -0.55138168791E+03  0.58188524451E+03  0.16616166004E+03 0.  0.
        -24    2    3    3    0    0  0.70365953695E+01  0.88104261542E+02 -0.55970816067E+03  0.57069509221E+03  0.67880693617E+02 0.  0.
          6    2    1    2  501    0 -0.95669318165E+01 -0.82870070365E+02 -0.38006835252E+02  0.19464322268E+03  0.17170465882E+03 0.  0.
         24    2    5    5    0    0 -0.36695767022E+02  0.13101536007E+01 -0.57122697705E+02  0.10403533117E+03  0.78816570072E+02 0.  0.
          5    1    5    5  501    0  0.27128835205E+02 -0.84180223966E+02  0.19115862453E+02  0.90607891510E+02  0.47000000000E+01 0. -1.
        -13    1    6    6    0    0 -0.96600805376E+00  0.25845713654E+02 -0.54839228849E+02  0.60632294255E+02  0.00000000000E+00 0.  1.
         14    1    6    6    0    0 -0.35729758968E+02 -0.24535560053E+02 -0.22834688559E+01  0.43403036911E+02  0.00000000000E+00 0. -1.
         -5    1    3    3    0  503  0.25303364470E+01 -0.52341911770E+01  0.83264727648E+01  0.11190152301E+02  0.47000000000E+01 0.  1.
         11    1    4    4    0    0  0.61303804056E+01 -0.24832427389E+01 -0.18765423693E+03  0.18777076635E+03  0.00000000000E+00 0. -1.
        -12    1    4    4    0    0  0.90621496381E+00  0.90587504281E+02 -0.37205392375E+03  0.38292432586E+03  0.00000000000E+00 0.  1.
</event>
<event>
12    1  0.8113184E-002  0.1799148E+03  0.7818608E-02  0.1167920E+00
         21   -1    0    0  501  502  0.00000000000E+00  0.00000000000E+00  0.29281520679E+03  0.29281520679E+03  0.00000000000E+00 0. -1.
         21   -1    0    0  502  503 -0.00000000000E+00 -0.00000000000E+00 -0.11374365473E+03  0.11374365473E+03  0.00000000000E+00 0. -1.
         -6    2    1    2    0  503  0.22448951997E+02 -0.47638828341E+02  0.55023012838E+02  0.18814055984E+03  0.17203466193E+03 0.  0.
        -24    2    3    3    0    0  0.53991063061E+02 -0.76279989846E+02  0.71420928979E+02  0.14224717735E+03  0.79997741382E+02 0.  0.
          6    2    1    2  501    0 -0.22448951997E+02  0.47638828341E+02  0.12404853922E+03  0.21841830167E+03  0.17188688435E+03 0.  0.
         24    2    5    5    0    0  0.36956562947E+02  0.32703607957E+02  0.12429841564E+03  0.15698355213E+03  0.82209646573E+02 0.  0.
          5    1    5    5  501    0 -0.59405514943E+02  0.14935220384E+02 -0.24987641553E+00  0.61434749546E+02  0.47000000000E+01 0. -1.
        -11    1    6    6    0    0  0.43499604347E+02 -0.88763498615E+01  0.97373962024E+02  0.10701725863E+03  0.00000000000E+00 0.  1.
         12    1    6    6    0    0 -0.65430413998E+01  0.41579957819E+02  0.26924453613E+02  0.49966293492E+02  0.00000000000E+00 0. -1.
         -5    1    3    3    0  503 -0.31542111065E+02  0.28641161506E+02 -0.16397916141E+02  0.45893382492E+02  0.47000000000E+01 0.  1.
         13    1    4    4    0    0  0.47151999517E+02 -0.36409590565E+02 -0.67572116328E+00  0.59577058862E+02  0.00000000000E+00 0. -1.
        -14    1    4    4    0    0  0.68390635447E+01 -0.39870399282E+02  0.72096650142E+02  0.82670118488E+02  0.00000000000E+00 0.  1.
</event>
<event>
12    1  0.8113184E-002  0.1778046E+03  0.7818608E-02  0.1170040E+00
         21   -1    0    0  503  502  0.00000000000E+00  0.00000000000E+00  0.12071361880E+04  0.12071361880E+04  0.00000000000E+00 0. -1.
         21   -1    0    0  501  503 -0.00000000000E+00 -0.00000000000E+00 -0.34754150089E+02  0.34754150089E+02  0.00000000000E+00 0. -1.
          6    2    1    2  501    0 -0.16534746777E+02 -0.41903175067E+02  0.27739957209E+03  0.32949200878E+03  0.17200345149E+03 0.  0.
         24    2    3    3    0    0  0.49448009046E+01 -0.67076569827E+02  0.27722073384E+03  0.29606757527E+03  0.79252486269E+02 0.  0.
         -6    2    1    2    0  502  0.16534746777E+02  0.41903175067E+02  0.89498246583E+03  0.91239832932E+03  0.17160368080E+03 0.  0.
        -24    2    5    5    0    0  0.58225442144E+02  0.73655150647E+02  0.67922717881E+03  0.69032010906E+03  0.79856178313E+02 0.  0.
          5    1    3    3  501    0 -0.21479547682E+02  0.25173394760E+02  0.17883824896E+00  0.33424433510E+02  0.47000000000E+01 0. -1.
        -11    1    4    4    0    0 -0.34509903134E+02 -0.26208161254E+02  0.16066019830E+03  0.16640162394E+03  0.00000000000E+00 0.  1.
         12    1    4    4    0    0  0.39454704038E+02 -0.40868408574E+02  0.11656053554E+03  0.12966595133E+03  0.00000000000E+00 0. -1.
         -5    1    5    5    0  502 -0.41690695367E+02 -0.31751975580E+02  0.21575528702E+03  0.22207822025E+03  0.47000000000E+01 0.  1.
         11    1    6    6    0    0  0.25680043407E+02  0.48183499340E+02  0.58354790645E+03  0.58609664166E+03  0.00000000000E+00 0. -1.
        -12    1    6    6    0    0  0.32545398737E+02  0.25471651307E+02  0.95679272356E+02  0.10422346740E+03  0.00000000000E+00 0.  1.
</event>
<event>
12    1  0.8113184E-002  0.2959506E+03  0.7818608E-02  0.1087346E+00
         21   -1    0    0  503  502  0.00000000000E+00  0.00000000000E+00  0.11524007599E+04  0.11524007599E+04  0.00000000000E+00 0.  1.
         21   -1    0    0  501  503 -0.00000000000E+00 -0.00000000000E+00 -0.91471357158E+02  0.91471357158E+02  0.00000000000E+00 0.  1.
          6    2    1    2  501    0  0.23988760704E+03  0.35393275404E+00  0.78764140381E+03  0.84140699216E+03  0.17332211682E+03 0.  0.
         24    2    3    3    0    0  0.15096259827E+03  0.62230040645E+02  0.56853946009E+03  0.59694009940E+03  0.80237650512E+02 0.  0.
         -6    2    1    2    0  502 -0.23988760704E+03 -0.35393275404E+00  0.27328799893E+03  0.40246512490E+03  0.17246929327E+03 0.  0.
        -24    2    5    5    0    0 -0.11076311543E+03  0.53409974836E+02  0.91045541370E+02  0.17268676336E+03  0.80064564476E+02 0.  0.
          5    1    3    3  501    0  0.88925008774E+02 -0.61876107891E+02  0.21910194372E+03  0.24446689276E+03  0.47000000000E+01 0. -1.
        -11    1    4    4    0    0  0.12582640920E+03  0.68982685768E+02  0.37254630608E+03  0.39922630970E+03  0.00000000000E+00 0.  1.
         12    1    4    4    0    0  0.25136189070E+02 -0.67526451223E+01  0.19599315401E+03  0.19771378970E+03  0.00000000000E+00 0. -1.
         -5    1    5    5    0  502 -0.12912449161E+03 -0.53763907590E+02  0.18224245756E+03  0.22977836154E+03  0.47000000000E+01 0.  1.
         13    1    6    6    0    0 -0.11416590227E+03  0.23911044575E+02  0.77545654066E+02  0.14006755427E+03  0.00000000000E+00 0. -1.
        -14    1    6    6    0    0  0.34027868366E+01  0.29498930261E+02  0.13499887303E+02  0.32619209095E+02  0.00000000000E+00 0.  1.
</event>
<event>
12    1  0.8113184E-002  0.2292785E+03  0.7818608E-02  0.1127251E+00
         21   -1    0    0  503  502  0.00000000000E+00  0.00000000000E+00  0.21533472861E+03  0.21533472861E+03  0.00000000000E+00 0. -1.
         21   -1    0    0  501  503 -0.00000000000E+00 -0.00000000000E+00 -0.51216245954E+03  0.51216245954E+03  0.00000000000E+00 0. -1.
          6    2    1    2  501    0  0.94012855043E+02  0.11851860693E+03 -0.41177100001E+03  0.47101990970E+03  0.17152061620E+03 0.  0.
         24    2    3    3    0    0 -0.10781334511E+02  0.67817381242E+02 -0.24864156162E+03  0.27055609721E+03  0.81624390940E+02 0.  0.
         -6    2    1    2    0  502 -0.94012855043E+02 -0.11851860693E+03  0.11494326908E+03  0.25647727845E+03  0.17228918176E+03 0.  0.
        -24    2    5    5    0    0 -0.10425602081E+03 -0.12247891309E+03  0.42270216431E+02  0.18282899910E+03  0.75955708735E+02 0.  0.
          5    1    3    3  501    0  0.10479418955E+03  0.50701225688E+02 -0.16312943838E+03  0.20046381249E+03  0.47000000000E+01 0. -1.
        -11    1    4    4    0    0  0.14712543610E+02  0.54449477226E+02 -0.22866297015E+03  0.23551636552E+03  0.00000000000E+00 0.  1.
         12    1    4    4    0    0 -0.25493878121E+02  0.13367904016E+02 -0.19978591475E+02  0.35039731688E+02  0.00000000000E+00 0. -1.
         -5    1    5    5    0  502  0.10243165765E+02  0.39603061594E+01  0.72673052647E+02  0.73648279347E+02  0.47000000000E+01 0.  1.
         11    1    6    6    0    0 -0.54909999184E+02 -0.12403842078E+02  0.22337674996E+02  0.60563479366E+02  0.00000000000E+00 0. -1.
        -12    1    6    6    0    0 -0.49346021624E+02 -0.11007507101E+03  0.19932541435E+02  0.12226551974E+03  0.00000000000E+00 0.  1.
</event>
<event>
12    1  0.8113184E-002  0.1848701E+03  0.7818608E-02  0.1164310E+00
         21   -1    0    0  503  502  0.00000000000E+00  0.00000000000E+00  0.12981236306E+04  0.12981236306E+04  0.00000000000E+00 0. -1.
         21   -1    0    0  501  503 -0.00000000000E+00 -0.00000000000E+00 -0.40804991011E+02  0.40804991011E+02  0.00000000000E+00 0. -1.
          6    2    1    2  501    0 -0.28393122331E+02 -0.79826783356E+01  0.21546241729E+03  0.28079755405E+03  0.17763254359E+03 0.  0.
         24    2    3    3    0    0 -0.41867758487E+02  0.33834630360E+02  0.21568822927E+03  0.23661164999E+03  0.81030668597E+02 0.  0.
         -6    2    1    2    0  502  0.28393122331E+02  0.79826783356E+01  0.10418562223E+04  0.10581310676E+04  0.18250226208E+03 0.  0.
        -24    2    5    5    0    0 -0.38175210036E+02 -0.40393958931E+02  0.48094128668E+03  0.49119253748E+03  0.82925080984E+02 0.  0.
          5    1    3    3  501    0  0.13474636156E+02 -0.41817308696E+02 -0.22581197645E+00  0.44185904055E+02  0.47000000000E+01 0. -1.
        -11    1    4    4    0    0  0.57248644165E+01  0.31213504396E+02  0.16086451504E+03  0.16396478015E+03  0.00000000000E+00 0.  1.
         12    1    4    4    0    0 -0.47592622904E+02  0.26211259648E+01  0.54823714228E+02  0.72646869843E+02  0.00000000000E+00 0. -1.
         -5    1    5    5    0  502  0.66568332367E+02  0.48376637267E+02  0.56091493565E+03  0.56693853013E+03  0.47000000000E+01 0.  1.
         11    1    6    6    0    0 -0.34418546739E+02 -0.15078700458E+02  0.44753529508E+03  0.44911005768E+03  0.00000000000E+00 0. -1.
        -12    1    6    6    0    0 -0.37566632968E+01 -0.25315258473E+02  0.33405991599E+02  0.42082479791E+02  0.00000000000E+00 0.  1.
</event>
<event>
12    1  0.8113184E-002  0.2360824E+03  0.7818608E-02  0.1122493E+00
         21   -1    0    0  503  502  0.00000000000E+00  0.00000000000E+00  0.55625188540E+02  0.55625188540E+02  0.00000000000E+00 0. -1.
         21   -1    0    0  501  503 -0.00000000000E+00 -0.00000000000E+00 -0.11678777464E+04  0.11678777464E+04  0.00000000000E+00 0. -1.
          6    2    1    2  501    0  0.22448543867E+02  0.16063001751E+03 -0.78814806805E+03  0.82274679460E+03  0.17154874294E+03 0.  0.
         24    2    3    3    0    0  0.63914245405E+02  0.57267869941E+02 -0.50682585524E+03  0.52014571170E+03  0.79463665660E+02 0.  0.
         -6    2    1    2    0  502 -0.22448543867E+02 -0.16063001751E+03 -0.32410448978E+03  0.40075614031E+03  0.17104333970E+03 0.  0.
        -24    2    5    5    0    0 -0.19248155973E+01 -0.16144875951E+03 -0.33209856184E+03  0.37821974866E+03  0.81800468434E+02 0.  0.
          5    1    3    3  501    0 -0.41465701538E+02  0.10336214757E+03 -0.28132221281E+03  0.30260108290E+03  0.47000000000E+01 0. -1.
        -13    1    4    4    0    0  0.27161460867E+02  0.46417329931E+02 -0.12090111368E+03  0.13232306210E+03  0.00000000000E+00 0.  1.
         14    1    4    4    0    0  0.36752784538E+02  0.10850540009E+02 -0.38592474156E+03  0.38782264959E+03  0.00000000000E+00 0. -1.
         -5    1    5    5    0  502 -0.20523728270E+02  0.81874199462E+00  0.79940720634E+01  0.22536391653E+02  0.47000000000E+01 0.  1.
         13    1    6    6    0    0 -0.38807563600E+02 -0.11452297626E+03 -0.23384065965E+03  0.26325461665E+03  0.00000000000E+00 0. -1.
        -14    1    6    6    0    0  0.36882748003E+02 -0.46925783249E+02 -0.98257902197E+02  0.11496513201E+03  0.00000000000E+00 0.  1.
</event>
<event>
12    1  0.8113184E-002  0.2003351E+03  0.7818608E-02  0.1151842E+00
         21   -1    0    0  501  502  0.00000000000E+00  0.00000000000E+00  0.47398479351E+03  0.47398479351E+03  0.00000000000E+00 0.  1.
         21   -1    0    0  502  503 -0.00000000000E+00 -0.00000000000E+00 -0.16893684039E+03  0.16893684039E+03  0.00000000000E+00 0.  1.
         -6    2    1    2    0  503 -0.10394920078E+03 -0.86714327340E+01 -0.78514780973E+02  0.21517135847E+03  0.17103658260E+03 0.  0.
        -24    2    3    3    0    0 -0.88888667969E+02 -0.27748190769E+02  0.10946881762E+02  0.12234775455E+03  0.78600136380E+02 0.  0.
          6    2    1    2  501    0  0.10394920078E+03  0.86714327340E+01  0.38356273409E+03  0.42775027543E+03  0.15801676197E+03 0.  0.
         24    2    5    5    0    0  0.10064660184E+03  0.31379172575E+02  0.38215145158E+03  0.40428476187E+03  0.79322416750E+02 0.  0.
          5    1    5    5  501    0  0.33025989432E+01 -0.22707739841E+02  0.14112825046E+01  0.23465513563E+02  0.47000000000E+01 0. -1.
        -13    1    6    6    0    0  0.56584070658E+02 -0.38698492789E+01  0.87462471058E+02  0.10424210584E+03  0.00000000000E+00 0.  1.
         14    1    6    6    0    0  0.44062531178E+02  0.35249021854E+02  0.29468898052E+03  0.30004265603E+03  0.00000000000E+00 0. -1.
         -5    1    3    3    0  503 -0.15060532811E+02  0.19076758035E+02 -0.89461662735E+02  0.92823603921E+02  0.47000000000E+01 0.  1.
         11    1    4    4    0    0 -0.18317219214E+02  0.13498570162E+02  0.30739326283E+02  0.38244451840E+02  0.00000000000E+00 0. -1.
        -12    1    4    4    0    0 -0.70571448755E+02 -0.41246760931E+02 -0.19792444521E+02  0.84103302711E+02  0.00000000000E+00 0.  1.
</event>
<event>
12    1  0.8113184E-002  0.1889548E+03  0.7818608E-02  0.1160884E+00
         21   -1    0    0  503  502  0.00000000000E+00  0.00000000000E+00  0.23121499231E+02  0.23121499231E+02  0.00000000000E+00 0.  1.
         21   -1    0    0  501  503 -0.00000000000E+00 -0.00000000000E+00 -0.15433304836E+04  0.15433304836E+04  0.00000000000E+00 0. -1.
          6    2    1    2  501    0  0.35046124071E+02 -0.69822394656E+02 -0.91490901534E+03  0.93421754079E+03  0.17204798623E+03 0.  0.
         24    2    3    3    0    0  0.71052269388E+01 -0.37044836522E+02 -0.21058039971E+03  0.22855760084E+03  0.80446677990E+02 0.  0.
         -6    2    1    2    0  502 -0.35046124071E+02  0.69822394656E+02 -0.60529996901E+03  0.63223444202E+03  0.16501193771E+03 0.  0.
        -24    2    5    5    0    0  0.78170639048E+01  0.31071039701E+02 -0.53219154309E+03  0.53892928496E+03  0.78679219937E+02 0.  0.
          5    1    3    3  501    0  0.27940897132E+02 -0.32777558134E+02 -0.70432861563E+03  0.70565993994E+03  0.47000000000E+01 0. -1.
        -11    1    4    4    0    0 -0.56078199949E+01  0.24536093227E+02 -0.47129487660E+02  0.53428982051E+02  0.00000000000E+00 0.  1.
         12    1    4    4    0    0  0.12713046934E+02 -0.61580929749E+02 -0.16345091205E+03  0.17512861879E+03  0.00000000000E+00 0. -1.
         -5    1    5    5    0  502 -0.42863187976E+02  0.38751354954E+02 -0.73108425917E+02  0.93305157062E+02  0.47000000000E+01 0.  1.
         13    1    6    6    0    0 -0.26727550081E+01  0.52578978345E+02 -0.45698219918E+03  0.46000480753E+03  0.00000000000E+00 0. -1.
        -14    1    6    6    0    0  0.10489818913E+02 -0.21507938644E+02 -0.75209343908E+02  0.78924477424E+02  0.00000000000E+00 0.  1.
</event>
<event>
12    1  0.8113184E-002  0.1892434E+03  0.7818608E-02  0.1160198E+00
         21   -1    0    0  501  502  0.00000000000E+00  0.00000000000E+00  0.53449560247E+03  0.53449560247E+03  0.00000000000E+00 0.  1.
         21   -1    0    0  502  503 -0.00000000000E+00 -0.00000000000E+00 -0.83063604567E+02  0.83063604567E+02  0.00000000000E+00 0.  1.
         -6    2    1    2    0  503 -0.12593377619E+02 -0.76475413563E+02  0.85474677904E+02  0.20765110375E+03  0.17264407979E+03 0.  0.
        -24    2    3    3    0    0 -0.55031318068E+02 -0.31433976096E+02  0.10163937598E+03  0.14351766986E+03  0.79058320185E+02 0.  0.
          6    2    1    2  501    0  0.12593377619E+02  0.76475413563E+02  0.36595732000E+03  0.40990810329E+03  0.16760910190E+03 0.  0.
         24    2    5    5    0    0  0.43106671153E+01  0.11496763991E+03  0.32009851664E+03  0.34928323522E+03  0.79369880762E+02 0.  0.
          5    1    5    5  501    0  0.82827105034E+01 -0.38492226350E+02  0.45858803361E+02  0.60624868068E+02  0.47000000000E+01 0. -1.
        -13    1    6    6    0    0 -0.24992069824E+02  0.66593787249E+02  0.10464530989E+03  0.12653053756E+03  0.00000000000E+00 0.  1.
         14    1    6    6    0    0  0.29302736940E+02  0.48373852663E+02  0.21545320675E+03  0.22275269766E+03  0.00000000000E+00 0. -1.
         -5    1    3    3    0  503  0.42437940449E+02 -0.45041437467E+02 -0.16164698078E+02  0.64133433891E+02  0.47000000000E+01 0.  1.
         11    1    4    4    0    0 -0.44961648285E+02  0.15692137934E+02  0.27201572945E+02  0.54842671162E+02  0.00000000000E+00 0. -1.
        -12    1    4    4    0    0 -0.10069669783E+02 -0.47126114030E+02  0.74437803037E+02  0.88674998698E+02  0.00000000000E+00 0.  1.
</event>
<event>
12    1  0.8113184E-002  0.1822297E+03  0.7818608E-02  0.1165968E+00
         21   -1    0    0  503  502  0.00000000000E+00  0.00000000000E+00  0.21066234799E+03  0.21066234799E+03  0.00000000000E+00 0. -1.
         21   -1    0    0  501  503 -0.00000000000E+00 -0.00000000000E+00 -0.37089243240E+03  0.37089243240E+03  0.00000000000E+00 0.  1.
          6    2    1    2  501    0  0.47062639463E+02  0.32946360307E+02 -0.30129438985E+03  0.35211642024E+03  0.17293729891E+03 0.  0.
         24    2    3    3    0    0  0.59343059832E+02  0.80480139046E+02 -0.17661384470E+03  0.21803585795E+03  0.79677686201E+02 0.  0.
         -6    2    1    2    0  502 -0.47062639463E+02 -0.32946360307E+02  0.14106430544E+03  0.22943836015E+03  0.17158807695E+03 0.  0.
        -24    2    5    5    0    0 -0.39034740736E+02 -0.73900120510E+02  0.39149527431E+02  0.11920964516E+03  0.75454060232E+02 0.  0.
          5    1    3    3  501    0 -0.12280420369E+02 -0.47533778738E+02 -0.12468054515E+03  0.13408056229E+03  0.47000000000E+01 0. -1.
        -13    1    4    4    0    0  0.13297908770E+02  0.65380656062E+02 -0.14651551134E+03  0.16099148930E+03  0.00000000000E+00 0.  1.
         14    1    4    4    0    0  0.46045151062E+02  0.15099482984E+02 -0.30098333364E+02  0.57044368644E+02  0.00000000000E+00 0. -1.
         -5    1    5    5    0  502 -0.80278987265E+01  0.40953760203E+02  0.10191477801E+03  0.11022871499E+03  0.47000000000E+01 0.  1.
         11    1    6    6    0    0 -0.24999562807E+02 -0.11479998379E+02  0.47295973500E+02  0.54714510074E+02  0.00000000000E+00 0. -1.
        -12    1    6    6    0    0 -0.14035177929E+02 -0.62420122130E+02 -0.81464460683E+01  0.64495135087E+02  0.00000000000E+00 0.  1.
</event>
<event>
12    1  0.8113184E-002  0.1877765E+03  0.7818608E-02  0.1160586E+00
         21   -1    0    0  501  502  0.00000000000E+00  0.00000000000E+00  0.17219852677E+03  0.17219852677E+03  0.00000000000E+00 0. -1.
         21   -1    0    0  502  503 -0.00000000000E+00 -0.00000000000E+00 -0.21298356402E+03  0.21298356402E+03  0.00000000000E+00 0. -1.
         -6    2    1    2    0  503 -0.59471160800E+02  0.47430295682E+02  0.18535102904E+02  0.18868910869E+03  0.17167870510E+03 0.  0.
        -24    2    3    3    0    0 -0.30267393094E+02  0.61118696964E+02  0.73999643315E+02  0.12435686467E+03  0.73055269329E+02 0.  0.
          6    2    1    2  501    0  0.59471160800E+02 -0.47430295682E+02 -0.59320140159E+02  0.19649298210E+03  0.17118458187E+03 0.  0.
         24    2    5    5    0    0  0.76510229684E+02 -0.45579599929E+01  0.12603189519E+02  0.11091598526E+03  0.79176544224E+02 0.  0.
          5    1    5    5  501    0 -0.17039068884E+02 -0.42872335689E+02 -0.71923329678E+02  0.85576996838E+02  0.47000000000E+01 0. -1.
        -13    1    6    6    0    0 -0.11715662050E+02  0.15474677880E+02 -0.96138622771E+00  0.19433132949E+02  0.00000000000E+00 0.  1.
         14    1    6    6    0    0  0.88225891734E+02 -0.20032637872E+02  0.13564575746E+02  0.91482852314E+02  0.00000000000E+00 0. -1.
         -5    1    3    3    0  503 -0.29203767706E+02 -0.13688401282E+02 -0.55464540411E+02  0.64332244022E+02  0.47000000000E+01 0.  1.
         11    1    4    4    0    0 -0.91963044729E+01  0.14513356171E+02  0.71079079325E+02  0.73126226766E+02  0.00000000000E+00 0. -1.
        -12    1    4    4    0    0 -0.21071088621E+02  0.46605340793E+02  0.29205639897E+01  0.51230637905E+02  0.00000000000E+00 0.  1.
</event>
<event>
12    1  0.8113184E-002  0.2845685E+03  0.7818608E-02  0.1093358E+00
         21   -1    0    0  501  502  0.00000000000E+00  0.00000000000E+00  0.20335560032E+03  0.20335560032E+03  0.00000000000E+00 0.  1.
         21   -1    0    0  502  503 -0.00000000000E+00 -0.00000000000E+00 -0.42097446608E+03  0.42097446608E+03  0.00000000000E+00 0.  1.
         -6    2    1    2    0  503 -0.19783713572E+03 -0.11146472928E+03 -0.18384607245E+03  0.33878989851E+03  0.17150888849E+03 0.  0.
        -24    2    3    3    0    0 -0.18266753399E+03 -0.12799660841E+03 -0.10920570421E+03  0.26070856645E+03  0.79325349353E+02 0.  0.
          6    2    1    2  501    0  0.19783713572E+03  0.11146472928E+03 -0.33772793314E+02  0.28554016789E+03  0.16979006970E+03 0.  0.
         24    2    5    5    0    0  0.84001242979E+02  0.37114007704E+02  0.42616861628E+02  0.12951417757E+03  0.80771696192E+02 0.  0.
          5    1    5    5  501    0  0.11383589274E+03  0.74350721581E+02 -0.76389654943E+02  0.15602599033E+03  0.47000000000E+01 0. -1.
        -13    1    6    6    0    0  0.28031055398E+02  0.36521390600E+02 -0.15738141139E+02  0.48654302221E+02  0.00000000000E+00 0.  1.
         14    1    6    6    0    0  0.55970187580E+02  0.59261710359E+00  0.58355002767E+02  0.80859875345E+02  0.00000000000E+00 0. -1.
         -5    1    3    3    0  503 -0.15169601725E+02  0.16531879122E+02 -0.74640368247E+02  0.78081332057E+02  0.47000000000E+01 0.  1.
         13    1    4    4    0    0 -0.25637614565E+02 -0.17454874708E+02  0.12405529432E+02  0.33404447191E+02  0.00000000000E+00 0. -1.
        -14    1    4    4    0    0 -0.15702991943E+03 -0.11054173370E+03 -0.12161123364E+03  0.22730411926E+03  0.00000000000E+00 0.  1.
</event>
<event>
12    1  0.8113184E-002  0.1776054E+03  0.7818608E-02  0.1171804E+00
         21   -1    0    0  501  502  0.00000000000E+00  0.00000000000E+00  0.87993284642E+02  0.87993284642E+02  0.00000000000E+00 0. -1.
         21   -1    0    0  502  503 -0.00000000000E+00 -0.00000000000E+00 -0.60034029902E+03  0.60034029902E+03  0.00000000000E+00 0. -1.
         -6    2    1    2    0  503 -0.17651470163E+02 -0.30934247087E+02 -0.48329476129E+03  0.51489562717E+03  0.17399763947E+03 0.  0.
        -24    2    3    3    0    0  0.20936396524E+02 -0.54605248475E+02 -0.16454015868E+03  0.19290816398E+03  0.81975789423E+02 0.  0.
          6    2    1    2  501    0  0.17651470163E+02  0.30934247087E+02 -0.29052253082E+02  0.17343795649E+03  0.16723692565E+03 0.  0.
         24    2    5    5    0    0  0.34517772512E+02 -0.20317547941E+02 -0.62563319542E+02  0.10974886619E+03  0.80785922683E+02 0.  0.
          5    1    5    5  501    0 -0.16866302349E+02  0.51251795028E+02  0.33511066460E+02  0.63689090304E+02  0.47000000000E+01 0. -1.
        -11    1    6    6    0    0  0.10404751025E+02 -0.50297903817E+02 -0.40400712714E+02  0.65347957581E+02  0.00000000000E+00 0.  1.
         12    1    6    6    0    0  0.24113021487E+02  0.29980355876E+02 -0.22162606828E+02  0.44400908606E+02  0.00000000000E+00 0. -1.
         -5    1    3    3    0  503 -0.38587866686E+02  0.23671001388E+02 -0.31875460261E+03  0.32198746319E+03  0.47000000000E+01 0.  1.
         13    1    4    4    0    0 -0.17047975296E+02  0.43485065522E+01 -0.85278496465E+02  0.87074479213E+02  0.00000000000E+00 0. -1.
        -14    1    4    4    0    0  0.37984371819E+02 -0.58953755027E+02 -0.79261662214E+02  0.10583368477E+03  0.00000000000E+00 0.  1.
</event>
<event>
12    1  0.8113184E-002  0.2521324E+03  0.7818608E-02  0.1111970E+00
         21   -1    0    0  501  502  0.00000000000E+00  0.00000000000E+00  0.56193343505E+03  0.56193343505E+03  0.00000000000E+00 0. -1.
         21   -1    0    0  502  503 -0.00000000000E+00 -0.00000000000E+00 -0.15253779869E+03  0.15253779869E+03  0.00000000000E+00 0.  1.
         -6    2    1    2    0  503 -0.23583846511E+02  0.18348104223E+03  0.23091429778E+02  0.25318763234E+03  0.17131629335E+03 0.  0.
        -24    2    3    3    0    0 -0.21226980335E+02  0.20836645640E+03  0.81843163303E+01  0.22370627064E+03  0.78168712662E+02 0.  0.
          6    2    1    2  501    0  0.23583846511E+02 -0.18348104223E+03  0.38630420658E+03  0.46128360140E+03  0.17126041638E+03 0.  0.
         24    2    5    5    0    0  0.52528187576E+02 -0.91439043037E+02  0.31767947853E+03  0.34278909606E+03  0.73917550107E+02 0.  0.
          5    1    5    5  501    0 -0.28944341065E+02 -0.92041999196E+02  0.68624728052E+02  0.11849450534E+03  0.47000000000E+01 0. -1.
        -11    1    6    6    0    0  0.54514922222E+02 -0.21279511759E+02  0.13879927342E+03  0.15063177841E+03  0.00000000000E+00 0.  1.
         12    1    6    6    0    0 -0.19867346466E+01 -0.70159531278E+02  0.17888020512E+03  0.19215731765E+03  0.00000000000E+00 0. -1.
         -5    1    3    3    0  503 -0.23568661757E+01 -0.24885414172E+02  0.14907113448E+02  0.29481361706E+02  0.47000000000E+01 0.  1.
         13    1    4    4    0    0  0.27974697365E+02  0.47339262997E+02 -0.19871869272E+01  0.55023071758E+02  0.00000000000E+00 0. -1.
        -14    1    4    4    0    0 -0.49201677700E+02  0.16102719341E+03  0.10171503257E+02  0.16868319888E+03  0.00000000000E+00 0.  1.
</event>
<event>
12    1  0.8113184E-002  0.1935410E+03  0.7818608E-02  0.1155363E+00
         21   -1    0    0  503  502  0.00000000000E+00  0.00000000000E+00  0.16972381430E+04  0.16972381430E+04  0.00000000000E+00 0. -1.
         21   -1    0    0  501  503 -0.00000000000E+00 -0.00000000000E+00 -0.31215144714E+02  0.31215144714E+02  0.00000000000E+00 0. -1.
          6    2    1    2  501    0 -0.87433463394E+02  0.14408391914E+02  0.36408340423E+03  0.41220680368E+03  0.17177168420E+03 0.  0.
         24    2    3    3    0    0 -0.24359575475E+02  0.57374590384E+02  0.28440771785E+03  0.30177712222E+03  0.79350166891E+02 0.  0.
         -6    2    1    2    0  502  0.87433463394E+02 -0.14408391914E+02  0.13019395940E+04  0.13162464840E+04  0.17206361573E+03 0.  0.
        -24    2    5    5    0    0  0.11993892654E+03  0.21612709121E+02  0.96424204940E+03  0.97504881914E+03  0.78134592751E+02 0.  0.
          5    1    3    3  501    0 -0.63073887919E+02 -0.42966198470E+02  0.79675686374E+02  0.11042968146E+03  0.47000000000E+01 0. -1.
        -13    1    4    4    0    0  0.15906107972E+02  0.40720732973E+02  0.66689242236E+02  0.79741064670E+02  0.00000000000E+00 0.  1.
         14    1    4    4    0    0 -0.40265683447E+02  0.16653857411E+02  0.21771847561E+03  0.22203605755E+03  0.00000000000E+00 0. -1.
         -5    1    5    5    0  502 -0.32505463147E+02 -0.36021101036E+02  0.33769754463E+03  0.34119766486E+03  0.47000000000E+01 0.  1.
         11    1    6    6    0    0  0.23878212537E+02 -0.12737816223E+02  0.70716006849E+02  0.75717729897E+02  0.00000000000E+00 0. -1.
        -12    1    6    6    0    0  0.96060714005E+02  0.34350525344E+02  0.89352604255E+03  0.89933108924E+03  0.00000000000E+00 0.  1.
</event>
<event>
12    1  0.8113184E-002  0.2236633E+03  0.7818608E-02  0.1131309E+00
         21   -1    0    0  503  502  0.00000000000E+00  0.00000000000E+00  0.33591468236E+03  0.33591468236E+03  0.00000000000E+00 0.  1.
         21   -1    0    0  501  503 -0.00000000000E+00 -0.00000000000E+00 -0.28976177044E+03  0.28976177044E+03  0.00000000000E+00 0.  1.
          6    2    1    2  501    0  0.69330826323E+02 -0.12306914590E+03 -0.19540400442E+03  0.29647287668E+03  0.17251279231E+03 0.  0.
         24    2    3    3    0    0  0.94869872458E+02 -0.12464411585E+03 -0.10985413211E+03  0.20705479092E+03  0.79166329873E+02 0.  0.
         -6    2    1    2    0  502 -0.69330826323E+02  0.12306914590E+03  0.24155691635E+03  0.32920357611E+03  0.17341416476E+03 0.  0.
        -24    2    5    5    0    0 -0.12592824869E+02  0.71555661208E+02  0.42053290237E+02  0.11543588271E+03  0.79234915961E+02 0.  0.
          5    1    3    3  501    0 -0.25539046135E+02  0.15749699508E+01 -0.85549872312E+02  0.89418085756E+02  0.47000000000E+01 0. -1.
        -11    1    4    4    0    0  0.11746072397E+02 -0.42057013138E+02 -0.71466716283E+02  0.83751143915E+02  0.00000000000E+00 0.  1.
         12    1    4    4    0    0  0.83123800061E+02 -0.82587102717E+02 -0.38387415826E+02  0.12330364701E+03  0.00000000000E+00 0. -1.
         -5    1    5    5    0  502 -0.56738001455E+02  0.51513484696E+02  0.19950362611E+03  0.21376769341E+03  0.47000000000E+01 0.  1.
         11    1    6    6    0    0  0.84724376446E+00 -0.68945404324E+01  0.34829670099E+02  0.35515608244E+02  0.00000000000E+00 0. -1.
        -12    1    6    6    0    0 -0.13440068633E+02  0.78450201641E+02  0.72236201388E+01  0.79920274463E+02  0.00000000000E+00 0.  1.
</event>
<event>
12    1  0.8113184E-002  0.2003228E+03  0.7818608E-02  0.1149620E+00
         21   -1    0    0  503  502  0.00000000000E+00  0.00000000000E+00  0.66152179552E+03  0.66152179552E+03  0.00000000000E+00 0.  1.
         21   -1    0    0  501  503 -0.00000000000E+00 -0.00000000000E+00 -0.62363480047E+02  0.62363480047E+02  0.00000000000E+00 0.  1.
          6    2    1    2  501    0 -0.90960780665E+02  0.46324157598E+02  0.23658114984E+03  0.30999976688E+03  0.17236421846E+03 0.  0.
         24    2    3    3    0    0  0.12134516016E+02  0.28135909438E+02  0.72881512845E+02  0.11563126706E+03  0.84380087270E+02 0.  0.
         -6    2    1    2    0  502  0.90960780665E+02 -0.46324157598E+02  0.36257716562E+03  0.41388550869E+03  0.17152032553E+03 0.  0.
        -24    2    5    5    0    0  0.76371808827E+02 -0.94489110638E+02  0.23356848056E+03  0.27532854703E+03  0.80565057482E+02 0.  0.
          5    1    3    3  501    0 -0.10309529668E+03  0.18188248160E+02  0.16369963700E+03  0.19436849982E+03  0.47000000000E+01 0. -1.
        -13    1    4    4    0    0  0.54091945789E+01  0.55301031193E+02  0.66985413667E+02  0.87031655627E+02  0.00000000000E+00 0.  1.
         14    1    4    4    0    0  0.67253214367E+01 -0.27165121755E+02  0.58960991782E+01  0.28599611429E+02  0.00000000000E+00 0. -1.
         -5    1    5    5    0  502  0.14588971838E+02  0.48164953040E+02  0.12900868506E+03  0.13855696165E+03  0.47000000000E+01 0.  1.
         13    1    6    6    0    0 -0.25857613749E+01 -0.74222256375E+01  0.87455774768E+02  0.87808246399E+02  0.00000000000E+00 0. -1.
        -14    1    6    6    0    0  0.78957570202E+02 -0.87066885001E+02  0.14611270579E+03  0.18752030063E+03  0.00000000000E+00 0.  1.
</event>
<event>
12    1  0.8113184E-002  0.2230745E+03  0.7818608E-02  0.1131851E+00
         21   -1    0    0  501  502  0.00000000000E+00  0.00000000000E+00  0.26114886681E+03  0.26114886681E+03  0.00000000000E+00 0. -1.
         21   -1    0    0  502  503 -0.00000000000E+00 -0.00000000000E+00 -0.19419493450E+03  0.19419493450E+03  0.00000000000E+00 0.  1.
         -6    2    1    2    0  503 -0.11682362647E+03  0.77909998778E+02 -0.22505550358E+01  0.22178121340E+03  0.17165114042E+03 0.  0.
        -24    2    3    3    0    0 -0.10130487589E+01  0.94321040269E+01  0.11747951604E+02  0.86432182494E+02  0.85102978500E+02 0.  0.
          6    2    1    2  501    0  0.11682362647E+03 -0.77909998778E+02  0.69204487348E+02  0.23356258791E+03  0.17333347568E+03 0.  0.
         24    2    5    5    0    0  0.14981434128E+03 -0.80299680010E+02  0.47751321085E+02  0.19385835410E+03  0.80053090663E+02 0.  0.
          5    1    5    5  501    0 -0.32990714811E+02  0.23896812319E+01  0.21453166263E+02  0.39704233815E+02  0.47000000000E+01 0. -1.
        -11    1    6    6    0    0  0.17060458785E+02  0.84695264158E+01 -0.12928515300E+02  0.23020396163E+02  0.00000000000E+00 0.  1.
         12    1    6    6    0    0  0.13275388250E+03 -0.88769206426E+02  0.60679836384E+02  0.17083795793E+03  0.00000000000E+00 0. -1.
         -5    1    3    3    0  503 -0.11581057771E+03  0.68477894751E+02 -0.13998506640E+02  0.13534903091E+03  0.47000000000E+01 0.  1.
         13    1    4    4    0    0 -0.20398636645E+02 -0.11264017348E+02  0.40070662540E+02  0.46353429864E+02  0.00000000000E+00 0. -1.
        -14    1    4    4    0    0  0.19385587886E+02  0.20696121375E+02 -0.28322710936E+02  0.40078752630E+02  0.00000000000E+00 0.  1.
</event>
<event>
12    1  0.8113184E-002  0.1896772E+03  0.7818608E-02  0.1159253E+00
         21   -1    0    0  501  502  0.00000000000E+00  0.00000000000E+00  0.14610859868E+02  0.14610859868E+02  0.00000000000E+00 0. -1.
         21   -1    0    0  502  503 -0.00000000000E+00 -0.00000000000E+00 -0.28700720369E+04  0.28700720369E+04  0.00000000000E+00 0. -1.
         -6    2    1    2    0  503  0.35139713730E+02  0.67770788968E+02 -0.19970681409E+04  0.20060554789E+04  0.17363682132E+03 0.  0.
        -24    2    3    3    0    0 -0.69884594758E+01  0.47111111995E+01 -0.15745081896E+04  0.15767184221E+04  0.83029574273E+02 0.  0.
          6    2    1    2  501    0 -0.35139713730E+02 -0.67770788968E+02 -0.85839303610E+03  0.87862741783E+03  0.17123041676E+03 0.  0.
         24    2    5    5    0    0  0.12225815964E+02  0.19740725028E+02 -0.29294170308E+03  0.30446798135E+03  0.79666451313E+02 0.  0.
          5    1    5    5  501    0 -0.47365529694E+02 -0.87511513996E+02 -0.56545133302E+03  0.57415943648E+03  0.47000000000E+01 0. -1.
        -11    1    6    6    0    0 -0.84125612860E+01  0.41824224101E+02 -0.93807109205E+02  0.10305246550E+03  0.00000000000E+00 0.  1.
         12    1    6    6    0    0  0.20638377250E+02 -0.22083499073E+02 -0.19913459387E+03  0.20141551584E+03  0.00000000000E+00 0. -1.
         -5    1    3    3    0  503  0.42128173206E+02  0.63059677768E+02 -0.42255995132E+03  0.42933705686E+03  0.47000000000E+01 0.  1.
         13    1    4    4    0    0  0.51368405972E+01  0.38389404882E+02 -0.45740244124E+03  0.45903935211E+03  0.00000000000E+00 0. -1.
        -14    1    4    4    0    0 -0.12125300073E+02 -0.33678293683E+02 -0.11171057484E+04  0.11176790700E+04  0.00000000000E+00 0.  1.
</event>
<event>
12    1  0.8113184E-002  0.2209446E+03  0.7818608E-02  0.1133204E+00
         21   -1    0    0  503  502  0.00000000000E+00  0.00000000000E+00  0.39512294490E+02  0.39512294490E+02  0.00000000000E+00 0. -1.
         21   -1    0    0  501  503 -0.00000000000E+00 -0.00000000000E+00 -0.12655015573E+04  0.12655015573E+04  0.00000000000E+00 0. -1.
          6    2    1    2  501    0  0.10735381100E+03  0.87646318300E+02 -0.71486222936E+03  0.74822759784E+03  0.17207502248E+03 0.  0.
         24    2    3    3    0    0  0.61288388685E+01  0.54691469972E+02 -0.19683113517E+03  0.21935065416E+03  0.79646055491E+02 0.  0.
         -6    2    1    2    0  502 -0.10735381100E+03 -0.87646318300E+02 -0.51112703349E+03  0.55678625399E+03  0.17191093745E+03 0.  0.
        -24    2    5    5    0    0 -0.37069943071E+02 -0.11311267525E+02 -0.10281591723E+03  0.13547055320E+03  0.79240346389E+02 0.  0.
          5    1    3    3  501    0  0.10122497213E+03  0.32954848328E+02 -0.51803109419E+03  0.52887694368E+03  0.47000000000E+01 0. -1.
        -13    1    4    4    0    0  0.95968644392E+01  0.11965146806E+02  0.24309593330E+01  0.15529781339E+02  0.00000000000E+00 0.  1.
         14    1    4    4    0    0 -0.34680255707E+01  0.42726323166E+02 -0.19926209450E+03  0.20382087282E+03  0.00000000000E+00 0. -1.
         -5    1    5    5    0  502 -0.70283867928E+02 -0.76335050775E+02 -0.40831111626E+03  0.42131570079E+03  0.47000000000E+01 0.  1.
         13    1    6    6    0    0 -0.20616382902E+02 -0.44394544413E+02 -0.73486736815E+02  0.88296156798E+02  0.00000000000E+00 0. -1.
        -14    1    6    6    0    0 -0.16453560170E+02  0.33083276889E+02 -0.29329180414E+02  0.47174396400E+02  0.00000000000E+00 0.  1.
</event>
<event>
12    1  0.8113184E-002  0.2515828E+03  0.7818608E-02  0.1112483E+00
         21   -1    0    0  501  502  0.00000000000E+00  0.00000000000E+00  0.32707703398E+03  0.32707703398E+03  0.00000000000E+00 0.  1.
         21   -1    0    0  502  503 -0.00000000000E+00 -0.00000000000E+00 -0.49852229400E+03  0.49852229400E+03  0.00000000000E+00 0.  1.
         -6    2    1    2    0  503  0.85713889036E+02 -0.16070976727E+03 -0.40913555950E+03  0.48029762531E+03  0.17354942455E+03 0.  0.
        -24    2    3    3    0    0 -0.21617296249E+02 -0.92402531590E+02 -0.23183597852E+03  0.26202464669E+03  0.76833971613E+02 0.  0.
          6    2    1    2  501    0 -0.85713889036E+02  0.16070976727E+03  0.23769029948E+03  0.34530170266E+03  0.17193628856E+03 0.  0.
         24    2    5    5    0    0 -0.10899430634E+03  0.12960135155E+03  0.12357458296E+03  0.22466092135E+03  0.80781080022E+02 0.  0.
          5    1    5    5  501    0  0.23280417307E+02  0.31108415724E+02  0.11411571652E+03  0.12064078131E+03  0.47000000000E+01 0. -1.
        -13    1    6    6    0    0 -0.10253252375E+03  0.78170697789E+02  0.58822145610E+02  0.14171669356E+03  0.00000000000E+00 0.  1.
         14    1    6    6    0    0 -0.64617825900E+01  0.51430653762E+02  0.64752437354E+02  0.82944227791E+02  0.00000000000E+00 0. -1.
         -5    1    3    3    0  503  0.10733118529E+03 -0.68307235684E+02 -0.17729958098E+03  0.21827297862E+03  0.47000000000E+01 0.  1.
         11    1    4    4    0    0 -0.39572964089E+02 -0.35305403520E+02 -0.60077856167E+02  0.80136382537E+02  0.00000000000E+00 0. -1.
        -12    1    4    4    0    0  0.17955667839E+02 -0.57097128070E+02 -0.17175812235E+03  0.18188826415E+03  0.00000000000E+00 0.  1.
</event>
<event>
12    1  0.8113184E-002  0.2032861E+03  0.7818608E-02  0.1147156E+00
         21   -1    0    0  503  502  0.00000000000E+00  0.00000000000E+00  0.36222775596E+03  0.36222775596E+03  0.00000000000E+00 0. -1.
         21   -1    0    0  501  503 -0.00000000000E+00 -0.00000000000E+00 -0.14688865603E+03  0.14688865603E+03  0.00000000000E+00 0. -1.
          6    2    1    2  501    0 -0.64114942253E+02  0.86971999077E+02 -0.13575420404E+02  0.20296759764E+03  0.17127959367E+03 0.  0.
         24    2    3    3    0    0  0.25435123628E+02  0.53801018418E+02 -0.30387311754E+02  0.10588898028E+03  0.82143729723E+02 0.  0.
         -6    2    1    2    0  502  0.64114942253E+02 -0.86971999077E+02  0.22891452034E+03  0.30614881435E+03  0.17219286995E+03 0.  0.
        -24    2    5    5    0    0  0.52912914149E+02 -0.72764978828E+02  0.56393276353E+02  0.13261785318E+03  0.79452971850E+02 0.  0.
          5    1    3    3  501    0 -0.89550065881E+02  0.33170980660E+02  0.16811891350E+02  0.97078617357E+02  0.47000000000E+01 0. -1.
        -13    1    4    4    0    0 -0.12836658309E+02 -0.55478606359E+01 -0.32349697515E+02  0.35242892666E+02  0.00000000000E+00 0.  1.
         14    1    4    4    0    0  0.38271781937E+02  0.59348879054E+02  0.19623857613E+01  0.70646087616E+02  0.00000000000E+00 0. -1.
         -5    1    5    5    0  502  0.11202028104E+02 -0.14207020250E+02  0.17252124398E+03  0.17353096117E+03  0.47000000000E+01 0.  1.
         11    1    6    6    0    0 -0.12771220330E+02 -0.43298619981E+02  0.79289716280E+01  0.45833864686E+02  0.00000000000E+00 0. -1.
        -12    1    6    6    0    0  0.65684134479E+02 -0.29466358847E+02  0.48464304725E+02  0.86783988491E+02  0.00000000000E+00 0.  1.
</event>
<event>
12    1  0.8113184E-002  0.2118322E+03  0.7818608E-02  0.1140152E+00
         21   -1    0    0  501  502  0.00000000000E+00  0.00000000000E+00  0.33756523048E+02  0.33756523048E+02  0.00000000000E+00 0.  1.
         21   -1    0    0  502  503 -0.00000000000E+00 -0.00000000000E+00 -0.15522754155E+04  0.15522754155E+04  0.00000000000E+00 0.  1.
         -6    2    1    2    0  503 -0.34771224621E+02 -0.11806796414E+03 -0.10606659406E+04  0.10816122716E+04  0.17240587662E+03 0.  0.
        -24    2    3    3    0    0 -0.70536479033E+02 -0.10879306807E+03 -0.99016679820E+03  0.10018789900E+04  0.80745871281E+02 0.  0.
          6    2    1    2  501    0  0.34771224621E+02  0.11806796414E+03 -0.45785295194E+03  0.50441966704E+03  0.17222308986E+03 0.  0.
         24    2    5    5    0    0 -0.54573425305E+01  0.59230100600E+02 -0.10681586508E+03  0.14618879434E+03  0.80147034596E+02 0.  0.
          5    1    5    5  501    0  0.40228567152E+02  0.58837863545E+02 -0.35103708686E+03  0.35823087270E+03  0.47000000000E+01 0. -1.
        -11    1    6    6    0    0 -0.37335824737E+02  0.38415974893E+02 -0.89627648230E+02  0.10441679110E+03  0.00000000000E+00 0.  1.
         12    1    6    6    0    0  0.31878482207E+02  0.20814125707E+02 -0.17188216848E+02  0.41772003246E+02  0.00000000000E+00 0. -1.
         -5    1    3    3    0  503  0.35765254412E+02 -0.92748960753E+01 -0.70499142355E+02  0.79733281590E+02  0.47000000000E+01 0.  1.
         13    1    4    4    0    0 -0.50341977224E+02 -0.25015472225E+02 -0.22678131148E+03  0.23364471267E+03  0.00000000000E+00 0. -1.
        -14    1    4    4    0    0 -0.20194501810E+02 -0.83777595844E+02 -0.76338548672E+03  0.76823427729E+03  0.00000000000E+00 0.  1.
</event>
<event>
12    1  0.8113184E-002  0.2124700E+03  0.7818608E-02  0.1139857E+00
         21   -1    0    0  501  502  0.00000000000E+00  0.00000000000E+00  0.10011891830E+03  0.10011891830E+03  0.00000000000E+00 0. -1.
         21   -1    0    0  502  503 -0.00000000000E+00 -0.00000000000E+00 -0.56367295672E+03  0.56367295672E+03  0.00000000000E+00 0. -1.
         -6    2    1    2    0  503  0.24254778184E+02 -0.11928116702E+03 -0.38239235357E+03  0.43745561276E+03  0.17414709298E+03 0.  0.
        -24    2    3    3    0    0  0.43872720444E+02 -0.68569616388E+00 -0.18435743441E+03  0.20574530100E+03  0.80113541201E+02 0.  0.
          6    2    1    2  501    0 -0.24254778184E+02  0.11928116702E+03 -0.81161684850E+02  0.22633626226E+03  0.17269798335E+03 0.  0.
         24    2    5    5    0    0 -0.20514798367E+02  0.13073292626E+02  0.12858153345E+02  0.84364715786E+02  0.79751521804E+02 0.  0.
          5    1    5    5  501    0 -0.37399798164E+01  0.10620787440E+03 -0.94019838195E+02  0.14197154647E+03  0.47000000000E+01 0. -1.
        -13    1    6    6    0    0  0.28744058212E+02 -0.58249707947E+01  0.11746929070E+02  0.31593377626E+02  0.00000000000E+00 0.  1.
         14    1    6    6    0    0 -0.49258856579E+02  0.18898263421E+02  0.11112242755E+01  0.52771338160E+02  0.00000000000E+00 0. -1.
         -5    1    3    3    0  503 -0.19617942260E+02 -0.11859547086E+03 -0.19803491916E+03  0.23171031176E+03  0.47000000000E+01 0.  1.
         13    1    4    4    0    0  0.64122727304E+02  0.14202755410E+01 -0.16734017254E+03  0.17921069913E+03  0.00000000000E+00 0. -1.
        -14    1    4    4    0    0 -0.20250006860E+02 -0.21059717049E+01 -0.17017261876E+02  0.26534601870E+02  0.00000000000E+00 0.  1.
</event>
<event>
12    1  0.8113184E-002  0.2468151E+03  0.7818608E-02  0.1115699E+00
         21   -1    0    0  503  502  0.00000000000E+00  0.00000000000E+00  0.33713599535E+03  0.33713599535E+03  0.00000000000E+00 0. -1.
         21   -1    0    0  501  503 -0.00000000000E+00 -0.00000000000E+00 -0.18282392863E+03  0.18282392863E+03  0.00000000000E+00 0.  1.
          6    2    1    2  501    0 -0.11325871294E+03  0.13073125270E+03  0.11489442018E+03  0.27224694462E+03  0.17606667651E+03 0.  0.
         24    2    3    3    0    0 -0.96759865077E+01  0.95564893897E+02  0.10434216637E+03  0.16224924434E+03  0.78811521655E+02 0.  0.
         -6    2    1    2    0  502  0.11325871294E+03 -0.13073125270E+03  0.39417646537E+02  0.24771297936E+03  0.17288658941E+03 0.  0.
        -24    2    5    5    0    0  0.68972150050E+02 -0.46679540875E+02  0.83365340886E+02  0.14292996666E+03  0.80889172883E+02 0.  0.
          5    1    3    3  501    0 -0.10358272643E+03  0.35166358801E+02  0.10552253805E+02  0.10999770028E+03  0.47000000000E+01 0. -1.
        -11    1    4    4    0    0  0.23444139981E+02  0.17050016120E+01  0.11626691106E+02  0.26224314596E+02  0.00000000000E+00 0.  1.
         12    1    4    4    0    0 -0.33120126489E+02  0.93859892285E+02  0.92715475268E+02  0.13602492975E+03  0.00000000000E+00 0. -1.
         -5    1    5    5    0  502  0.44286562887E+02 -0.84051711823E+02 -0.43947694349E+02  0.10478301270E+03  0.47000000000E+01 0.  1.
         13    1    6    6    0    0  0.45509210761E+02  0.45198188600E+01  0.44085118704E+01  0.45945097709E+02  0.00000000000E+00 0. -1.
        -14    1    6    6    0    0  0.23462939290E+02 -0.51199359735E+02  0.78956829016E+02  0.96984868952E+02  0.00000000000E+00 0.  1.
</event>
<event>
12    1  0.8113184E-002  0.1751925E+03  0.7818608E-02  0.1172896E+00
         21   -1    0    0  501  502  0.00000000000E+00  0.00000000000E+00  0.65798818588E+02  0.65798818588E+02  0.00000000000E+00 0.  1.
         21   -1    0    0  502  503 -0.00000000000E+00 -0.00000000000E+00 -0.79036549022E+03  0.79036549022E+03  0.00000000000E+00 0.  1.
         -6    2    1    2    0  503  0.36509694891E+02  0.80650982632E+00 -0.63877972229E+03  0.66236842336E+03  0.17134405847E+03 0.  0.
        -24    2    3    3    0    0  0.87210719772E+01 -0.34230781481E+02 -0.19896140270E+03  0.22025750561E+03  0.87635184230E+02 0.  0.
          6    2    1    2  501    0 -0.36509694891E+02 -0.80650982632E+00 -0.85786949344E+02  0.19379588545E+03  0.16989360277E+03 0.  0.
         24    2    5    5    0    0  0.58286687442E+01  0.14765043815E+02  0.16508551064E+02  0.81896512256E+02  0.78629044018E+02 0.  0.
          5    1    5    5  501    0 -0.42338363635E+02 -0.15571553641E+02 -0.10229550041E+03  0.11189937320E+03  0.47000000000E+01 0. -1.
        -11    1    6    6    0    0  0.24438747071E+02  0.31400632974E+02  0.33239052160E+02  0.51846761693E+02  0.00000000000E+00 0.  1.
         12    1    6    6    0    0 -0.18610078327E+02 -0.16635589159E+02 -0.16730501095E+02  0.30049750563E+02  0.00000000000E+00 0. -1.
         -5    1    3    3    0  503  0.27788622914E+02  0.35037291308E+02 -0.43981831959E+03  0.44211091775E+03  0.47000000000E+01 0.  1.
         11    1    4    4    0    0  0.45201806983E+02 -0.10745059142E+02 -0.68495432279E+02  0.82766441832E+02  0.00000000000E+00 0. -1.
        -12    1    4    4    0    0 -0.36480735006E+02 -0.23485722339E+02 -0.13046597042E+03  0.13749106378E+03  0.00000000000E+00 0.  1.
</event>
<event>
12    1  0.8113184E-002  0.2350205E+03  0.7818608E-02  0.1123450E+00
         21   -1    0    0  503  502  0.00000000000E+00  0.00000000000E+00  0.68536328872E+02  0.68536328872E+02  0.00000000000E+00 0. -1.
         21   -1    0    0  501  503 -0.00000000000E+00 -0.00000000000E+00 -0.84097231347E+03  0.84097231347E+03  0.00000000000E+00 0.  1.
          6    2    1    2  501    0 -0.95515413674E+02  0.12930237388E+03 -0.48520050981E+03  0.53837677380E+03  0.16907902801E+03 0.  0.
         24    2    3    3    0    0  0.20528908119E+01  0.22500970828E+02 -0.23926660905E+03  0.25301439493E+03  0.79102881023E+02 0.  0.
         -6    2    1    2    0  502  0.95515413674E+02 -0.12930237388E+03 -0.28723547480E+03  0.37113186854E+03  0.17144196606E+03 0.  0.
        -24    2    5    5    0    0  0.21459791841E+02 -0.13505757729E+03 -0.21855620956E+03  0.26985853067E+03  0.79722882460E+02 0.  0.
          5    1    3    3  501    0 -0.97568304486E+02  0.10680140306E+03 -0.24593390076E+03  0.28536237888E+03  0.47000000000E+01 0. -1.
        -13    1    4    4    0    0 -0.12397483407E+02 -0.14975391907E+02 -0.18217467533E+03  0.18320909445E+03  0.00000000000E+00 0.  1.
         14    1    4    4    0    0  0.14450374219E+02  0.37476362735E+02 -0.57091933712E+02  0.69805300471E+02  0.00000000000E+00 0. -1.
         -5    1    5    5    0  502  0.74055621833E+02  0.57552034005E+01 -0.68679265231E+02  0.10127333787E+03  0.47000000000E+01 0.  1.
         11    1    6    6    0    0 -0.13779771581E+02  0.43216974889E+01 -0.17472938795E+02  0.22668541288E+02  0.00000000000E+00 0. -1.
        -12    1    6    6    0    0  0.35239563422E+02 -0.13937927477E+03 -0.20108327077E+03  0.24718998938E+03  0.00000000000E+00 0.  1.
</event>
<event>
12    1  0.8113184E-002  0.1776099E+03  0.7818608E-02  0.1170289E+00
         21   -1    0    0  501  502  0.00000000000E+00  0.00000000000E+00  0.82642956860E+03  0.82642956860E+03  0.00000000000E+00 0.  1.
         21   -1    0    0  502  503 -0.00000000000E+00 -0.00000000000E+00 -0.10938017213E+03  0.10938017213E+03  0.00000000000E+00 0.  1.
         -6    2    1    2    0  503  0.37658934057E+02 -0.11504754611E+02 -0.19144794479E+02  0.17863876267E+03  0.17318986598E+03 0.  0.
        -24    2    3    3    0    0  0.72469560222E+02  0.47413485437E+01 -0.60038534201E+02  0.12233509041E+03  0.78018787555E+02 0.  0.
          6    2    1    2  501    0 -0.37658934057E+02  0.11504754611E+02  0.73619419095E+03  0.75717097805E+03  0.17255563892E+03 0.  0.
         24    2    5    5    0    0  0.19086890982E+02 -0.46781337558E+02  0.44374598946E+03  0.45358343260E+03  0.79212525621E+02 0.  0.
          5    1    5    5  501    0 -0.56745825039E+02  0.58286092169E+02  0.29244820149E+03  0.30358754545E+03  0.47000000000E+01 0. -1.
        -11    1    6    6    0    0 -0.10174461470E+01 -0.86021280702E+01  0.35294799108E+03  0.35305426808E+03  0.00000000000E+00 0.  1.
         12    1    6    6    0    0  0.20104337129E+02 -0.38179209488E+02  0.90797998383E+02  0.10052916452E+03  0.00000000000E+00 0. -1.
         -5    1    3    3    0  503 -0.34810626165E+02 -0.16246103154E+02  0.40893739722E+02  0.56303672261E+02  0.47000000000E+01 0.  1.
         13    1    4    4    0    0 -0.12878366360E+02  0.82160263187E+01  0.37467925932E+01  0.15728759116E+02  0.00000000000E+00 0. -1.
        -14    1    4    4    0    0  0.85347926582E+02 -0.34746777750E+01 -0.63785326794E+02  0.10660633129E+03  0.00000000000E+00 0.  1.
</event>
<event>
12    1  0.8113184E-002  0.2093525E+03  0.7818608E-02  0.1142254E+00
         21   -1    0    0  503  502  0.00000000000E+00  0.00000000000E+00  0.54638695461E+02  0.54638695461E+02  0.00000000000E+00 0.  1.
         21   -1    0    0  501  503 -0.00000000000E+00 -0.00000000000E+00 -0.79881447203E+03  0.79881447203E+03  0.00000000000E+00 0.  1.
          6    2    1    2  501    0 -0.66535542516E+01  0.11652641980E+03 -0.37212898959E+03  0.42654886740E+03  0.17274627373E+03 0.  0.
         24    2    3    3    0    0  0.93920220931E+01  0.47239331924E+02 -0.33000532818E+03  0.34375603004E+03  0.83336228633E+02 0.  0.
         -6    2    1    2    0  502  0.66535542516E+01 -0.11652641980E+03 -0.37204678698E+03  0.42690430010E+03  0.17379813993E+03 0.  0.
        -24    2    5    5    0    0  0.48421258593E+01  0.90198706461E+01 -0.17003967661E+03  0.18900912369E+03  0.81891104320E+02 0.  0.
          5    1    3    3  501    0 -0.16045576345E+02  0.69287087876E+02 -0.42123661407E+02  0.82792837353E+02  0.47000000000E+01 0. -1.
        -11    1    4    4    0    0 -0.42710628447E+01  0.48062401581E+02 -0.80344047787E+02  0.93719808143E+02  0.00000000000E+00 0.  1.
         12    1    4    4    0    0  0.13663084938E+02 -0.82306965677E+00 -0.24966128039E+03  0.25003622190E+03  0.00000000000E+00 0. -1.
         -5    1    5    5    0  502  0.18114283923E+01 -0.12554629045E+03 -0.20200711037E+03  0.23789517641E+03  0.47000000000E+01 0.  1.
         11    1    6    6    0    0  0.13513950218E+02  0.41563988104E+02 -0.62108009586E+02  0.75944695749E+02  0.00000000000E+00 0. -1.
        -12    1    6    6    0    0 -0.86718243592E+01 -0.32544117458E+02 -0.10793166702E+03  0.11306442794E+03  0.00000000000E+00 0.  1.
</event>
<event>
12    1  0.8113184E-002  0.2549441E+03  0.7818608E-02  0.1111051E+00
         21   -1    0    0  503  502  0.00000000000E+00  0.00000000000E+00  0.47177172576E+03  0.47177172576E+03  0.00000000000E+00 0.  1.
         21   -1    0    0  501  503 -0.00000000000E+00 -0.00000000000E+00 -0.13815589973E+03  0.13815589973E+03  0.00000000000E+00 0.  1.
          6    2    1    2  501    0 -0.18823356196E+03  0.12032350500E+02  0.12173575460E+03  0.28251741132E+03  0.17152213397E+03 0.  0.
         24    2    3    3    0    0 -0.92870525780E+02 -0.35923360843E+02  0.78999599659E+01  0.12639394396E+03  0.77444155934E+02 0.  0.
         -6    2    1    2    0  502  0.18823356196E+03 -0.12032350500E+02  0.21188007142E+03  0.32741021417E+03  0.16348587820E+03 0.  0.
        -24    2    5    5    0    0  0.11114541948E+03 -0.58478035876E+01  0.46189734469E+02  0.14449983150E+03  0.79744646555E+02 0.  0.
          5    1    3    3  501    0 -0.95363036184E+02  0.47955711342E+02  0.11383579464E+03  0.15612346736E+03  0.47000000000E+01 0. -1.
        -11    1    4    4    0    0 -0.10461823667E+03 -0.34870602904E+02 -0.30232723652E+01  0.11031806093E+03  0.00000000000E+00 0.  1.
         12    1    4    4    0    0  0.11747710893E+02 -0.10527579382E+01  0.10923232331E+02  0.16075883026E+02  0.00000000000E+00 0. -1.
         -5    1    5    5    0  502  0.77088142484E+02 -0.61845469123E+01  0.16569033695E+03  0.18291038268E+03  0.47000000000E+01 0.  1.
         13    1    6    6    0    0  0.43627927512E+02 -0.40552773051E+02  0.99917504919E+01  0.60396676556E+02  0.00000000000E+00 0. -1.
        -14    1    6    6    0    0  0.67517491968E+02  0.34704969463E+02  0.36197983977E+02  0.84103154942E+02  0.00000000000E+00 0.  1.
</event>
<event>
12    1  0.8113184E-002  0.1981495E+03  0.7818608E-02  0.1151729E+00
         21   -1    0    0  501  502  0.00000000000E+00  0.00000000000E+00  0.83072375606E+03  0.83072375606E+03  0.00000000000E+00 0.  1.
         21   -1    0    0  502  503 -0.00000000000E+00 -0.00000000000E+00 -0.91325793777E+02  0.91325793777E+02  0.00000000000E+00 0.  1.
         -6    2    1    2    0  503 -0.72682302892E+02 -0.60369351944E+02  0.46850825816E+02  0.20171299963E+03  0.17194754587E+03 0.  0.
        -24    2    3    3    0    0 -0.45135222799E+02  0.22405910876E+02 -0.14250268464E+02  0.95101464238E+02  0.79385169708E+02 0.  0.
          6    2    1    2  501    0  0.72682302892E+02  0.60369351944E+02  0.69254713647E+03  0.72033655021E+03  0.17417242470E+03 0.  0.
         24    2    5    5    0    0  0.20535704150E+01  0.90837312535E+02  0.37797605881E+03  0.39646347727E+03  0.77857262199E+02 0.  0.
          5    1    5    5  501    0  0.70628732477E+02 -0.30467960590E+02  0.31457107766E+03  0.32387307294E+03  0.47000000000E+01 0. -1.
        -13    1    6    6    0    0 -0.21011726663E+02  0.71494409999E+02  0.33965331846E+03  0.34773167826E+03  0.00000000000E+00 0.  1.
         14    1    6    6    0    0  0.23065297078E+02  0.19342902535E+02  0.38322740344E+02  0.48731799015E+02  0.00000000000E+00 0. -1.
         -5    1    3    3    0  503 -0.27547080094E+02 -0.82775262820E+02  0.61101094280E+02  0.10661153539E+03  0.47000000000E+01 0.  1.
         13    1    4    4    0    0 -0.26153397844E+01  0.35844476346E+02  0.17877168743E+02  0.40140498863E+02  0.00000000000E+00 0. -1.
        -14    1    4    4    0    0 -0.42519883014E+02 -0.13438565470E+02 -0.32127437207E+02  0.54960965375E+02  0.00000000000E+00 0.  1.
</event>
<event>
12    1  0.8113184E-002  0.2146645E+03  0.7818608E-02  0.1137955E+00
         21   -1    0    0  503  502  0.00000000000E+00  0.00000000000E+00  0.57640335705E+03  0.57640335705E+03  0.00000000000E+00 0.  1.
         21   -1    0    0  501  503 -0.00000000000E+00 -0.00000000000E+00 -0.80828548697E+02  0.80828548697E+02  0.00000000000E+00 0. -1.
          6    2    1    2  501    0 -0.62318537494E+02  0.11181848501E+03  0.21223418256E+03  0.30175652830E+03  0.17212402626E+03 0.  0.
         24    2    3    3    0    0  0.94133727688E+01  0.14104253046E+02  0.13909649894E+03  0.16010643531E+03  0.77451230258E+02 0.  0.
         -6    2    1    2    0  502  0.62318537494E+02 -0.11181848501E+03  0.28334062579E+03  0.35547537745E+03  0.17231906465E+03 0.  0.
        -24    2    5    5    0    0 -0.77799212427E+01 -0.83098348218E+02  0.88052183579E+02  0.14595615199E+03  0.81142766895E+02 0.  0.
          5    1    3    3  501    0 -0.71731910263E+02  0.97714231969E+02  0.73137683622E+02  0.14165009299E+03  0.47000000000E+01 0. -1.
        -13    1    4    4    0    0  0.17147047639E+02  0.23889414113E+02  0.10987737825E+02  0.31391969226E+02  0.00000000000E+00 0.  1.
         14    1    4    4    0    0 -0.77336748697E+01 -0.97851610667E+01  0.12810876112E+03  0.12871446608E+03  0.00000000000E+00 0. -1.
         -5    1    5    5    0  502  0.70098458737E+02 -0.28720136796E+02  0.19528844221E+03  0.20951922546E+03  0.47000000000E+01 0.  1.
         13    1    6    6    0    0  0.27570159551E+02 -0.25394115457E+02  0.63941188493E+02  0.74117814211E+02  0.00000000000E+00 0. -1.
        -14    1    6    6    0    0 -0.35350080794E+02 -0.57704232761E+02  0.24110995085E+02  0.71838337778E+02  0.00000000000E+00 0.  1.
</event>
<event>
12    1  0.8113184E-002  0.2184871E+03  0.7818608E-02  0.1135115E+00
         21   -1    0    0  503  502  0.00000000000E+00  0.00000000000E+00  0.22602346012E+03  0.22602346012E+03  0.00000000000E+00 0.  1.
         21   -1    0    0  501  503 -0.00000000000E+00 -0.00000000000E+00 -0.34756651735E+03  0.34756651735E+03  0.00000000000E+00 0.  1.
          6    2    1    2  501    0  0.11387324149E+03  0.71286303286E+02 -0.24079080760E+03  0.32514127138E+03  0.17230142530E+03 0.  0.
         24    2    3    3    0    0  0.13701045896E+03  0.46875637907E+02 -0.23992709466E+03  0.29116999797E+03  0.79030156723E+02 0.  0.
         -6    2    1    2    0  502 -0.11387324149E+03 -0.71286303286E+02  0.11924775037E+03  0.24844870609E+03  0.17163298467E+03 0.  0.
        -24    2    5    5    0    0 -0.35478599229E+02 -0.10191468003E+03  0.79203166299E+02  0.15512413210E+03  0.78390189429E+02 0.  0.
          5    1    3    3  501    0 -0.23137217472E+02  0.24410665379E+02 -0.86371294168E+00  0.33971273404E+02  0.47000000000E+01 0. -1.
        -13    1    4    4    0    0  0.28005751573E+02  0.43844508831E+02 -0.49959620819E+02  0.72129236709E+02  0.00000000000E+00 0.  1.
         14    1    4    4    0    0  0.10900470739E+03  0.30311290761E+01 -0.18996747384E+03  0.21904076126E+03  0.00000000000E+00 0. -1.
         -5    1    5    5    0  502 -0.78394642259E+02  0.30628376747E+02  0.40044584072E+02  0.93324573991E+02  0.47000000000E+01 0.  1.
         13    1    6    6    0    0  0.23571765016E+02 -0.15105831599E+02  0.11941053446E+02  0.30436869281E+02  0.00000000000E+00 0. -1.
        -14    1    6    6    0    0 -0.59050364244E+02 -0.86808848434E+02  0.67262112852E+02  0.12468726282E+03  0.00000000000E+00 0.  1.
</event>
<event>
12    1  0.8113184E-002  0.2058554E+03  0.7818608E-02  0.1144936E+00
         21   -1    0    0  501  502  0.00000000000E+00  0.00000000000E+00  0.52326030983E+03  0.52326030983E+03  0.00000000000E+00 0. -1.
         21   -1    0    0  502  503 -0.00000000000E+00 -0.00000000000E+00 -0.84459764209E+02  0.84459764209E+02  0.00000000000E+00 0. -1.
         -6    2    1    2    0  503 -0.58303200678E+02 -0.96479881240E+02  0.15710885773E+03  0.25895879003E+03  0.17224642540E+03 0.  0.
        -24    2    3    3    0    0 -0.35670006814E+02 -0.73565930011E+02  0.18427590301E+03  0.21656245795E+03  0.79103693466E+02 0.  0.
          6    2    1    2  501    0  0.58303200678E+02  0.96479881240E+02  0.28169168789E+03  0.34876128401E+03  0.17197847395E+03 0.  0.
         24    2    5    5    0    0  0.61735234765E+02 -0.73593122691E+01  0.14961571050E+03  0.18065265612E+03  0.79906962439E+02 0.  0.
          5    1    5    5  501    0 -0.34320340876E+01  0.10383919351E+03  0.13207597739E+03  0.16810862788E+03  0.47000000000E+01 0. -1.
        -11    1    6    6    0    0  0.17656059938E+02  0.33657158978E+02  0.37504078777E+02  0.53395662071E+02  0.00000000000E+00 0.  1.
         12    1    6    6    0    0  0.44079174827E+02 -0.41016471247E+02  0.11211163172E+03  0.12725699405E+03  0.00000000000E+00 0. -1.
         -5    1    3    3    0  503 -0.22633193864E+02 -0.22913951230E+02 -0.27167045272E+02  0.42396332085E+02  0.47000000000E+01 0.  1.
         13    1    4    4    0    0 -0.37611543862E+02 -0.55582471953E+02  0.57127562283E+02  0.88133976380E+02  0.00000000000E+00 0. -1.
        -14    1    4    4    0    0  0.19415370480E+01 -0.17983458058E+02  0.12714834072E+03  0.12842848157E+03  0.00000000000E+00 0.  1.
</event>
<event>
12    1  0.8113184E-002  0.1773941E+03  0.7818608E-02  0.1171053E+00
         21   -1    0    0  503  502  0.00000000000E+00  0.00000000000E+00  0.17325457515E+03  0.17325457515E+03  0.00000000000E+00 0.  1.
         21   -1    0    0  501  503 -0.00000000000E+00 -0.00000000000E+00 -0.19294116191E+03  0.19294116191E+03  0.00000000000E+00 0.  1.
          6    2    1    2  501    0  0.30035795259E+02 -0.87856260881E+01 -0.59433505413E+02  0.18440334830E+03  0.17173501995E+03 0.  0.
         24    2    3    3    0    0  0.13761809171E+02  0.15499861291E+02 -0.10363437717E+03  0.13120151953E+03  0.77743948349E+02 0.  0.
         -6    2    1    2    0  502 -0.30035795259E+02  0.87856260881E+01  0.39746918656E+02  0.18179238876E+03  0.17461190923E+03 0.  0.
        -24    2    5    5    0    0  0.37321513905E+02 -0.26484469403E+02 -0.53707481196E+01  0.93256065199E+02  0.81077285606E+02 0.  0.
          5    1    3    3  501    0  0.16273986088E+02 -0.24285487379E+02  0.44200871755E+02  0.53201828768E+02  0.47000000000E+01 0. -1.
        -13    1    4    4    0    0  0.41243184258E+02  0.49461804353E+01 -0.28146282207E+02  0.50176470090E+02  0.00000000000E+00 0.  1.
         14    1    4    4    0    0 -0.27481375087E+02  0.10553680856E+02 -0.75488094961E+02  0.81025049442E+02  0.00000000000E+00 0. -1.
         -5    1    5    5    0  502 -0.67357309164E+02  0.35270095491E+02  0.45117666775E+02  0.88536323557E+02  0.47000000000E+01 0.  1.
         11    1    6    6    0    0 -0.10640688698E+02  0.16391713685E+02 -0.19262723833E+02  0.27440208873E+02  0.00000000000E+00 0. -1.
        -12    1    6    6    0    0  0.47962202603E+02 -0.42876183088E+02  0.13891975714E+02  0.65815856326E+02  0.00000000000E+00 0.  1.
</event>
<event>
12    1  0.8113184E-002  0.2020575E+03  0.7818608E-02  0.1148057E+00
         21   -1    0    0  501  502  0.00000000000E+00  0.00000000000E+00  0.63832766240E+03  0.63832766240E+03  0.00000000000E+00 0. -1.
         21   -1    0    0  502  503 -0.00000000000E+00 -0.00000000000E+00 -0.11627218969E+03  0.11627218969E+03  0.00000000000E+00 0. -1.
         -6    2    1    2    0  503  0.56853810940E+02  0.88475188565E+02  0.78674904304E+01  0.20221056206E+03  0.17253115427E+03 0.  0.
        -24    2    3    3    0    0  0.48512553027E+02  0.12399595760E+03  0.32928156894E+02  0.15769732110E+03  0.77818482788E+02 0.  0.
          6    2    1    2  501    0 -0.56853810940E+02 -0.88475188565E+02  0.51418798228E+03  0.55238929004E+03  0.17229170559E+03 0.  0.
         24    2    5    5    0    0 -0.10339535674E+03 -0.81842246482E+02  0.41089987832E+03  0.43880833289E+03  0.79531691219E+02 0.  0.
          5    1    5    5  501    0  0.46541545797E+02 -0.66329420827E+01  0.10328810396E+03  0.11358095715E+03  0.47000000000E+01 0. -1.
        -11    1    6    6    0    0 -0.62758400125E+02 -0.76201084224E+01  0.11722338077E+03  0.13318409754E+03  0.00000000000E+00 0.  1.
         12    1    6    6    0    0 -0.40636956612E+02 -0.74222138059E+02  0.29367649755E+03  0.30562423535E+03  0.00000000000E+00 0. -1.
         -5    1    3    3    0  503  0.83412579130E+01 -0.35520769039E+02 -0.25060666463E+02  0.44513240955E+02  0.47000000000E+01 0.  1.
         13    1    4    4    0    0  0.11515497394E+02  0.11291633321E+03  0.35682507505E+02  0.11897876419E+03  0.00000000000E+00 0. -1.
        -14    1    4    4    0    0  0.36997055633E+02  0.11079624391E+02 -0.27543506111E+01  0.38718556913E+02  0.00000000000E+00 0.  1.
</event>
<event>
12    1  0.8113184E-002  0.2360899E+03  0.7818608E-02  0.1122529E+00
         21   -1    0    0  501  502  0.00000000000E+00  0.00000000000E+00  0.57304031625E+03  0.57304031625E+03  0.00000000000E+00 0.  1.
         21   -1    0    0  502  503 -0.00000000000E+00 -0.00000000000E+00 -0.11633281345E+03  0.11633281345E+03  0.00000000000E+00 0.  1.
         -6    2    1    2    0  503  0.13055835220E+03  0.93883258768E+02  0.88146898680E+02  0.25200857274E+03  0.17285512830E+03 0.  0.
        -24    2    3    3    0    0  0.64597836971E+01  0.70781358390E+02  0.20004641717E+02  0.10848293151E+03  0.79477237232E+02 0.  0.
          6    2    1    2  501    0 -0.13055835220E+03 -0.93883258768E+02  0.36856060412E+03  0.43736455696E+03  0.17202118233E+03 0.  0.
         24    2    5    5    0    0 -0.11490382864E+03 -0.93714351468E+02  0.15687999764E+03  0.22505378993E+03  0.63660075374E+02 0.  0.
          5    1    5    5  501    0 -0.15654523567E+02 -0.16890729975E+00  0.21168060648E+03  0.21231076703E+03  0.47000000000E+01 0. -1.
        -13    1    6    6    0    0 -0.54984502804E+02 -0.61977976253E+02  0.12539671795E+03  0.15029604772E+03  0.00000000000E+00 0.  1.
         14    1    6    6    0    0 -0.59919325833E+02 -0.31736375215E+02  0.31483279694E+02  0.74757742210E+02  0.00000000000E+00 0. -1.
         -5    1    3    3    0  503  0.12409856851E+03  0.23101900378E+02  0.68142256963E+02  0.14352564123E+03  0.47000000000E+01 0.  1.
         13    1    4    4    0    0  0.10528145189E+02 -0.14541108758E+02  0.14158503765E+02  0.22863702979E+02  0.00000000000E+00 0. -1.
        -14    1    4    4    0    0 -0.40683614924E+01  0.85322467148E+02  0.58461379520E+01  0.85619228532E+02  0.00000000000E+00 0.  1.
</event>
<event>
12    1  0.8113184E-002  0.1743957E+03  0.7818608E-02  0.1173404E+00
         21   -1    0    0  501  502  0.00000000000E+00  0.00000000000E+00  0.93729497791E+02  0.93729497791E+02  0.00000000000E+00 0. -1.
         21   -1    0    0  502  503 -0.00000000000E+00 -0.00000000000E+00 -0.63034851585E+03  0.63034851585E+03  0.00000000000E+00 0. -1.
         -6    2    1    2    0  503  0.21600043821E+02  0.10144028559E+02 -0.52059362600E+03  0.54894761548E+03  0.17250013883E+03 0.  0.
        -24    2    3    3    0    0 -0.43888669140E+02  0.33576285258E+02 -0.37662532460E+03  0.38898885833E+03  0.80075680233E+02 0.  0.
          6    2    1    2  501    0 -0.21600043821E+02 -0.10144028559E+02 -0.16025392054E+02  0.17513039816E+03  0.17275526030E+03 0.  0.
         24    2    5    5    0    0 -0.15274372409E+02  0.36862051113E+02  0.43311041012E+02  0.99022002213E+02  0.79607747010E+02 0.  0.
          5    1    5    5  501    0 -0.63256714115E+01 -0.47006079671E+02 -0.59336433066E+02  0.76108395949E+02  0.47000000000E+01 0. -1.
        -11    1    6    6    0    0 -0.27792466134E+02  0.48290583100E+02  0.35867351286E+01  0.55832483904E+02  0.00000000000E+00 0.  1.
         12    1    6    6    0    0  0.12518093725E+02 -0.11428531987E+02  0.39724305883E+02  0.43189518310E+02  0.00000000000E+00 0. -1.
         -5    1    3    3    0  503  0.65488712960E+02 -0.23432256700E+02 -0.14396830141E+03  0.15995875715E+03  0.47000000000E+01 0.  1.
         11    1    4    4    0    0  0.20053950366E+02  0.44938761543E+00 -0.14627720768E+03  0.14764614577E+03  0.00000000000E+00 0. -1.
        -12    1    4    4    0    0 -0.63942619506E+02  0.33126897643E+02 -0.23034811691E+03  0.24134271255E+03  0.00000000000E+00 0.  1.
</event>
<event>
12    1  0.8113184E-002  0.2109517E+03  0.7818608E-02  0.1141009E+00
         21   -1    0    0  501  502  0.00000000000E+00  0.00000000000E+00  0.35958549208E+02  0.35958549208E+02  0.00000000000E+00 0. -1.
         21   -1    0    0  502  503 -0.00000000000E+00 -0.00000000000E+00 -0.13328286195E+04  0.13328286195E+04  0.00000000000E+00 0. -1.
         -6    2    1    2    0  503  0.61552233550E+02  0.10338216460E+03 -0.83829233656E+03  0.86442734957E+03  0.17327449824E+03 0.  0.
        -24    2    3    3    0    0  0.63644627979E+02 -0.37440016292E+01 -0.40868716666E+03  0.42163723494E+03  0.81780813655E+02 0.  0.
          6    2    1    2  501    0 -0.61552233550E+02 -0.10338216460E+03 -0.45857773378E+03  0.50435981918E+03  0.17207190321E+03 0.  0.
         24    2    5    5    0    0  0.13356662511E+02 -0.62687841273E+02 -0.36020971678E+03  0.37410726670E+03  0.78083551760E+02 0.  0.
          5    1    5    5  501    0 -0.74908896061E+02 -0.40694323330E+02 -0.98368016997E+02  0.13025255248E+03  0.47000000000E+01 0. -1.
        -13    1    6    6    0    0 -0.12193379883E+02 -0.11679210598E+02 -0.24465447032E+03  0.24523640089E+03  0.00000000000E+00 0.  1.
         14    1    6    6    0    0  0.25550042395E+02 -0.51008630675E+02 -0.11555524646E+03  0.12887086581E+03  0.00000000000E+00 0. -1.
         -5    1    3    3    0  503 -0.20923944296E+01  0.10712616623E+03 -0.42960516990E+03  0.44279011463E+03  0.47000000000E+01 0.  1.
         11    1    4    4    0    0  0.52603304776E+02  0.21878874000E+02 -0.36749870876E+03  0.37188855016E+03  0.00000000000E+00 0. -1.
        -12    1    4    4    0    0  0.11041323204E+02 -0.25622875630E+02 -0.41188457895E+02  0.49748684781E+02  0.00000000000E+00 0.  1.
</event>
<event>
12    1  0.8113184E-002  0.1859714E+03  0.7818608E-02  0.1162660E+00
         21   -1    0    0  501  502  0.00000000000E+00  0.00000000000E+00  0.32594955388E+03  0.32594955388E+03  0.00000000000E+00 0. -1.
         21   -1    0    0  502  503 -0.00000000000E+00 -0.00000000000E+00 -0.10492269063E+03  0.10492269063E+03  0.00000000000E+00 0.  1.
         -6    2    1    2    0  503 -0.17403545174E+02 -0.69778609535E+02  0.10561428572E+03  0.21386851462E+03  0.17150342989E+03 0.  0.
        -24    2    3    3    0    0 -0.26828488253E+02 -0.53104347025E+02  0.14136868314E+03  0.17303559264E+03  0.80102261477E+02 0.  0.
          6    2    1    2  501    0  0.17403545174E+02  0.69778609535E+02  0.11541257753E+03  0.21700372990E+03  0.16911125924E+03 0.  0.
         24    2    5    5    0    0 -0.13995584908E+02  0.10344733093E+03  0.59169082629E+02  0.14416892442E+03  0.79915403752E+02 0.  0.
          5    1    5    5  501    0  0.31399130082E+02 -0.33668721391E+02  0.56243494899E+02  0.72834805474E+02  0.47000000000E+01 0. -1.
        -11    1    6    6    0    0  0.31838157400E+02  0.38212840425E+02  0.35143836497E+02  0.60901384908E+02  0.00000000000E+00 0.  1.
         12    1    6    6    0    0 -0.45833742307E+02  0.65234490501E+02  0.24025246132E+02  0.83267539513E+02  0.00000000000E+00 0. -1.
         -5    1    3    3    0  503  0.94249430786E+01 -0.16674262510E+02 -0.35754397418E+02  0.40832921975E+02  0.47000000000E+01 0.  1.
         13    1    4    4    0    0 -0.17717467818E+02 -0.16825486758E+02  0.13231229783E+03  0.13454943266E+03  0.00000000000E+00 0. -1.
        -14    1    4    4    0    0 -0.91110204347E+01 -0.36278860267E+02  0.90563853070E+01  0.38486159986E+02  0.00000000000E+00 0.  1.
</event>
<event>
12    1  0.8113184E-002  0.2107772E+03  0.7818608E-02  0.1141641E+00
         21   -1    0    0  501  502  0.00000000000E+00  0.00000000000E+00  0.25062996507E+03  0.25062996507E+03  0.00000000000E+00 0.  1.
         21   -1    0    0  502  503 -0.00000000000E+00 -0.00000000000E+00 -0.41350797015E+03  0.41350797015E+03  0.00000000000E+00 0.  1.
         -6    2    1    2    0  503 -0.82091577544E+02 -0.83225561514E+02 -0.33368450746E+03  0.39284122134E+03  0.17121142914E+03 0.  0.
        -24    2    3    3    0    0 -0.12083720161E+02 -0.98573844138E+02 -0.25892220772E+03  0.28916788177E+03  0.81942267198E+02 0.  0.
          6    2    1    2  501    0  0.82091577544E+02  0.83225561514E+02  0.17080650239E+03  0.27129671389E+03  0.17538963628E+03 0.  0.
         24    2    5    5    0    0 -0.12879181132E+02  0.77961319472E+02  0.11559895849E+03  0.16121892252E+03  0.79903573990E+02 0.  0.
          5    1    5    5  501    0  0.94970758676E+02  0.52642420424E+01  0.55207543901E+02  0.11007779136E+03  0.47000000000E+01 0. -1.
        -11    1    6    6    0    0  0.11276179374E+02  0.13123597726E+02  0.82906978710E+02  0.84693259221E+02  0.00000000000E+00 0.  1.
         12    1    6    6    0    0 -0.24155360506E+02  0.64837721746E+02  0.32691979775E+02  0.76525663303E+02  0.00000000000E+00 0. -1.
         -5    1    3    3    0  503 -0.70007857383E+02  0.15348282623E+02 -0.74762299740E+02  0.10367333957E+03  0.47000000000E+01 0.  1.
         13    1    4    4    0    0 -0.81131249894E+00 -0.49239521542E+02 -0.37128753069E+02  0.61674411340E+02  0.00000000000E+00 0. -1.
        -14    1    4    4    0    0 -0.11272407662E+02 -0.49334322596E+02 -0.22179345465E+03  0.22749347043E+03  0.00000000000E+00 0.  1.
</event>
<event>
12    1  0.8113184E-002  0.1785796E+03  0.7818608E-02  0.1169655E+00
         21   -1    0    0  501  502  0.00000000000E+00  0.00000000000E+00  0.10470481213E+03  0.10470481213E+03  0.00000000000E+00 0.  1.
         21   -1    0    0  502  503 -0.00000000000E+00 -0.00000000000E+00 -0.55608492635E+03  0.55608492635E+03  0.00000000000E+00 0.  1.
         -6    2    1    2    0  503 -0.44628286844E+02 -0.17456082860E+02 -0.44997400149E+03  0.48411495510E+03  0.17202990705E+03 0.  0.
        -24    2    3    3    0    0  0.22287310935E+01 -0.47380645088E+02 -0.13256401305E+03  0.16183828776E+03  0.79803014078E+02 0.  0.
          6    2    1    2  501    0  0.44628286844E+02  0.17456082860E+02 -0.14061127265E+01  0.17667478338E+03  0.17004588532E+03 0.  0.
         24    2    5    5    0    0  0.43174897429E+02  0.34753949162E+02  0.58673708773E+02  0.11396112082E+03  0.80452620890E+02 0.  0.
          5    1    5    5  501    0  0.14533894151E+01 -0.17297866302E+02 -0.60079821500E+02  0.62713662553E+02  0.47000000000E+01 0. -1.
        -13    1    6    6    0    0  0.55358268088E+02  0.18194679140E+02  0.74251074373E+01  0.58742798836E+02  0.00000000000E+00 0.  1.
         14    1    6    6    0    0 -0.12183370659E+02  0.16559270022E+02  0.51248601336E+02  0.55218321988E+02  0.00000000000E+00 0. -1.
         -5    1    3    3    0  503 -0.46857017937E+02  0.29924562229E+02 -0.31740998844E+03  0.32227666735E+03  0.47000000000E+01 0.  1.
         13    1    4    4    0    0 -0.16604565655E+02  0.96714177220E+01 -0.35777846289E+01  0.19546060069E+02  0.00000000000E+00 0. -1.
        -14    1    4    4    0    0  0.18833296749E+02 -0.57052062810E+02 -0.12898622842E+03  0.14229222769E+03  0.00000000000E+00 0.  1.
</event>
<event>
12    1  0.8113184E-002  0.1781364E+03  0.7818608E-02  0.1170026E+00
         21   -1    0    0  503  502  0.00000000000E+00  0.00000000000E+00  0.18858149593E+02  0.18858149593E+02  0.00000000000E+00 0.  1.
         21   -1    0    0  501  503 -0.00000000000E+00 -0.00000000000E+00 -0.22152824299E+04  0.22152824299E+04  0.00000000000E+00 0.  1.
          6    2    1    2  501    0  0.40718601794E+02 -0.14860867912E+00 -0.16577288127E+04  0.16672724460E+04  0.17342020122E+03 0.  0.
         24    2    3    3    0    0  0.45675679292E+02 -0.64107997551E+02 -0.11267078729E+04  0.11323699273E+04  0.81209102582E+02 0.  0.
         -6    2    1    2    0  502 -0.40718601794E+02  0.14860867912E+00 -0.53869546768E+03  0.56686813355E+03  0.17172258824E+03 0.  0.
        -24    2    5    5    0    0 -0.20118462029E+02 -0.35125621537E+02 -0.13959941392E+03  0.16565947561E+03  0.79476434806E+02 0.  0.
          5    1    3    3  501    0 -0.49570774976E+01  0.63959388871E+02 -0.53102093976E+03  0.53490251869E+03  0.47000000000E+01 0. -1.
        -11    1    4    4    0    0  0.19056904325E+02 -0.57924411945E+02 -0.35651086569E+03  0.36168826420E+03  0.00000000000E+00 0.  1.
         12    1    4    4    0    0  0.26618774967E+02 -0.61835856054E+01 -0.77019700720E+03  0.77068166308E+03  0.00000000000E+00 0. -1.
         -5    1    5    5    0  502 -0.20600139765E+02  0.35274230216E+02 -0.39909605376E+03  0.40120865794E+03  0.47000000000E+01 0.  1.
         13    1    6    6    0    0 -0.33644646293E+02 -0.16524918087E+01 -0.11987923174E+03  0.12452197861E+03  0.00000000000E+00 0. -1.
        -14    1    6    6    0    0  0.13526184263E+02 -0.33473129728E+02 -0.19720182182E+02  0.41137497005E+02  0.00000000000E+00 0.  1.
</event>
<event>
12    1  0.8113184E-002  0.2921969E+03  0.7818608E-02  0.1089716E+00
         21   -1    0    0  501  502  0.00000000000E+00  0.00000000000E+00  0.24054729936E+03  0.24054729936E+03  0.00000000000E+00 0. -1.
         21   -1    0    0  502  503 -0.00000000000E+00 -0.00000000000E+00 -0.35672191200E+03  0.35672191200E+03  0.00000000000E+00 0.  1.
         -6    2    1    2    0  503 -0.62718588958E+02  0.22381343138E+03 -0.18116325433E+02  0.29275802004E+03  0.17706773728E+03 0.  0.
        -24    2    3    3    0    0 -0.49956886516E+02  0.11489429695E+03  0.57253354664E+02  0.15960803855E+03  0.80624992195E+02 0.  0.
          6    2    1    2  501    0  0.62718588958E+02 -0.22381343138E+03 -0.98058287204E+02  0.30451119132E+03  0.17054490460E+03 0.  0.
         24    2    5    5    0    0  0.59888489773E+02 -0.51570013165E+02 -0.60327021352E+02  0.12809820143E+03  0.80769438775E+02 0.  0.
          5    1    5    5  501    0  0.28300991854E+01 -0.17224341821E+03 -0.37731265852E+02  0.17641298989E+03  0.47000000000E+01 0. -1.
        -13    1    6    6    0    0  0.25074254396E+02 -0.42743723374E+02  0.86746356085E+01  0.50308979560E+02  0.00000000000E+00 0.  1.
         14    1    6    6    0    0  0.34814235377E+02 -0.88262897909E+01 -0.69001656960E+02  0.77789221873E+02  0.00000000000E+00 0. -1.
         -5    1    3    3    0  503 -0.12761702442E+02  0.10891913443E+03 -0.75369680097E+02  0.13314998149E+03  0.47000000000E+01 0.  1.
         13    1    4    4    0    0 -0.50865786535E+00  0.85916371285E+02  0.12354138760E+02  0.86801534158E+02  0.00000000000E+00 0. -1.
        -14    1    4    4    0    0 -0.49448228651E+02  0.28977925665E+02  0.44899215904E+02  0.72806504389E+02  0.00000000000E+00 0.  1.
</event>
<event>
12    1  0.8113184E-002  0.1733762E+03  0.7818608E-02  0.1174459E+00
         21   -1    0    0  501  502  0.00000000000E+00  0.00000000000E+00  0.11748847240E+03  0.11748847240E+03  0.00000000000E+00 0. -1.
         21   -1    0    0  502  503 -0.00000000000E+00 -0.00000000000E+00 -0.34423194650E+03  0.34423194650E+03  0.00000000000E+00 0. -1.
         -6    2    1    2    0  503  0.17885514801E+02  0.15147687660E+02 -0.23076492774E+03  0.28863778152E+03  0.17178467035E+03 0.  0.
        -24    2    3    3    0    0 -0.37065381833E+02  0.49785709857E+02 -0.10217136399E+03  0.14449275643E+03  0.81158546093E+02 0.  0.
          6    2    1    2  501    0 -0.17885514801E+02 -0.15147687660E+02  0.40214536360E+01  0.17308263738E+03  0.17144119456E+03 0.  0.
         24    2    5    5    0    0  0.48699508053E+02  0.16736611391E+02 -0.16589341640E+02  0.96290263560E+02  0.79654581506E+02 0.  0.
          5    1    5    5  501    0 -0.66585022854E+02 -0.31884299051E+02  0.20610795276E+02  0.76792373816E+02  0.47000000000E+01 0. -1.
        -13    1    6    6    0    0  0.17931926701E+02  0.36845239098E+02  0.18964155134E+02  0.45152683412E+02  0.00000000000E+00 0.  1.
         14    1    6    6    0    0  0.30767581352E+02 -0.20108627707E+02 -0.35553496774E+02  0.51137580148E+02  0.00000000000E+00 0. -1.
         -5    1    3    3    0  503  0.54950896633E+02 -0.34638022196E+02 -0.12859356375E+03  0.14414502510E+03  0.47000000000E+01 0.  1.
         13    1    4    4    0    0  0.15120294140E+02  0.37664186556E+01  0.53047899054E+01  0.16460558931E+02  0.00000000000E+00 0. -1.
        -14    1    4    4    0    0 -0.52185675973E+02  0.46019291201E+02 -0.10747615390E+03  0.12803219750E+03  0.00000000000E+00 0.  1.
</event>
<event>
12    1  0.8113184E-002  0.1805115E+03  0.7818608E-02  0.1167876E+00
         21   -1    0    0  503  502  0.00000000000E+00  0.00000000000E+00  0.14960000364E+03  0.14960000364E+03  0.00000000000E+00 0. -1.
         21   -1    0    0  501  503 -0.00000000000E+00 -0.00000000000E+00 -0.38982783365E+03  0.38982783365E+03  0.00000000000E+00 0. -1.
          6    2    1    2  501    0 -0.31530259420E+02 -0.39077406931E+02 -0.30116412877E+03  0.35111856725E+03  0.17338747019E+03 0.  0.
         24    2    3    3    0    0  0.33792681782E+01 -0.80465789243E+02 -0.25629709495E+03  0.28064294003E+03  0.81154767078E+02 0.  0.
         -6    2    1    2    0  502  0.31530259420E+02  0.39077406931E+02  0.60936298759E+02  0.18830927005E+03  0.17095598173E+03 0.  0.
        -24    2    5    5    0    0  0.86642014854E+02  0.32420426687E+02  0.39015712932E+02  0.12844088895E+03  0.80105638335E+02 0.  0.
          5    1    3    3  501    0 -0.34909527598E+02  0.41388382312E+02 -0.44867033821E+02  0.70475627215E+02  0.47000000000E+01 0. -1.
        -11    1    4    4    0    0 -0.38888948020E+02 -0.36347373130E+02 -0.11802907215E+03  0.12947719369E+03  0.00000000000E+00 0.  1.
         12    1    4    4    0    0  0.42268216198E+02 -0.44118416113E+02 -0.13826802279E+03  0.15116574635E+03  0.00000000000E+00 0. -1.
         -5    1    5    5    0  502 -0.55111755434E+02  0.66569802445E+01  0.21920585827E+02  0.59868381104E+02  0.47000000000E+01 0.  1.
         11    1    6    6    0    0  0.83527067195E+02  0.10795790601E+02  0.57324842277E+00  0.84223801046E+02  0.00000000000E+00 0. -1.
        -12    1    6    6    0    0  0.31149476585E+01  0.21624636085E+02  0.38442464509E+02  0.44217087899E+02  0.00000000000E+00 0.  1.
</event>
<event>
12    1  0.8113184E-002  0.2049386E+03  0.7818608E-02  0.1146800E+00
         21   -1    0    0  501  502  0.00000000000E+00  0.00000000000E+00  0.13099964458E+03  0.13099964458E+03  0.00000000000E+00 0.  1.
         21   -1    0    0  502  503 -0.00000000000E+00 -0.00000000000E+00 -0.93154027785E+03  0.93154027785E+03  0.00000000000E+00 0.  1.
         -6    2    1    2    0  503 -0.73784592956E+02  0.73191344427E+02 -0.83540655012E+03  0.86017668205E+03  0.17663148446E+03 0.  0.
        -24    2    3    3    0    0  0.22575528958E+02  0.69916493326E+02 -0.44708352834E+03  0.46003563568E+03  0.79694003773E+02 0.  0.
          6    2    1    2  501    0  0.73784592956E+02 -0.73191344427E+02  0.34865916850E+02  0.20236324038E+03  0.17010029348E+03 0.  0.
         24    2    5    5    0    0 -0.71888838104E+01 -0.71176946733E+02 -0.12291010597E+02  0.10851960691E+03  0.80669686655E+02 0.  0.
          5    1    5    5  501    0  0.80973476766E+02 -0.20143976938E+01  0.47156927447E+02  0.93843633476E+02  0.47000000000E+01 0. -1.
        -11    1    6    6    0    0 -0.92031174382E+01 -0.23868659334E+02  0.33833939208E+02  0.42416337787E+02  0.00000000000E+00 0.  1.
         12    1    6    6    0    0  0.20142336277E+01 -0.47308287400E+02 -0.46124949805E+02  0.66103269120E+02  0.00000000000E+00 0. -1.
         -5    1    3    3    0  503 -0.96360121913E+02  0.32748511012E+01 -0.38832302178E+03  0.40014104637E+03  0.47000000000E+01 0.  1.
         13    1    4    4    0    0 -0.13647428471E+02  0.62932791646E+02 -0.19730679128E+03  0.20754941208E+03  0.00000000000E+00 0. -1.
        -14    1    4    4    0    0  0.36222957428E+02  0.69837016796E+01 -0.24977673705E+03  0.25248622360E+03  0.00000000000E+00 0.  1.
</event>
<event>
12    1  0.8113184E-002  0.1715868E+03  0.7818608E-02  0.1176505E+00
         21   -1    0    0  501  502  0.00000000000E+00  0.00000000000E+00  0.23087837140E+03  0.23087837140E+03  0.00000000000E+00 0. -1.
         21   -1    0    0  502  503 -0.00000000000E+00 -0.00000000000E+00 -0.27754676417E+03  0.27754676417E+03  0.00000000000E+00 0. -1.
         -6    2    1    2    0  503 -0.81153318698E+01  0.18388144064E+02 -0.21073765226E+03  0.27102095886E+03  0.16922771524E+03 0.  0.
        -24    2    3    3    0    0  0.47265035272E+02 -0.15183354611E+01 -0.71330486332E+02  0.11962841973E+03  0.83586073150E+02 0.  0.
          6    2    1    2  501    0  0.81153318698E+01 -0.18388144064E+02  0.16406925949E+03  0.23740417671E+03  0.17040551270E+03 0.  0.
         24    2    5    5    0    0  0.23898441034E+02 -0.73633624181E+02  0.12771448217E+03  0.16925045750E+03  0.79634680354E+02 0.  0.
          5    1    5    5  501    0 -0.15783109164E+02  0.55245480117E+02  0.36354777325E+02  0.68153719213E+02  0.47000000000E+01 0. -1.
        -11    1    6    6    0    0 -0.18840059852E+02 -0.35380991406E+02  0.15032560832E+02  0.42810516153E+02  0.00000000000E+00 0.  1.
         12    1    6    6    0    0  0.42738500886E+02 -0.38252632775E+02  0.11268192134E+03  0.12643994135E+03  0.00000000000E+00 0. -1.
         -5    1    3    3    0  503 -0.55380367141E+02  0.19906479525E+02 -0.13940716593E+03  0.15139253913E+03  0.47000000000E+01 0.  1.
         13    1    4    4    0    0  0.92541867095E+01  0.32022015085E+02 -0.58511445155E+02  0.67339725540E+02  0.00000000000E+00 0. -1.
        -14    1    4    4    0    0  0.38010848562E+02 -0.33540350547E+02 -0.12819041178E+02  0.52288694188E+02  0.00000000000E+00 0.  1.
</event>
<event>
12    1  0.8113184E-002  0.2031704E+03  0.7818608E-02  0.1148368E+00
         21   -1    0    0  503  502  0.00000000000E+00  0.00000000000E+00  0.67929076834E+02  0.67929076834E+02  0.00000000000E+00 0. -1.
         21   -1    0    0  501  503 -0.00000000000E+00 -0.00000000000E+00 -0.63575561443E+03  0.63575561443E+03  0.00000000000E+00 0. -1.
          6    2    1    2  501    0  0.64204749045E+02  0.87713445618E+02 -0.38268094024E+03  0.43327002711E+03  0.17164590303E+03 0.  0.
         24    2    3    3    0    0  0.40563943264E+02  0.12782215136E+03 -0.28664952493E+03  0.32644438084E+03  0.80087750441E+02 0.  0.
         -6    2    1    2    0  502 -0.64204749045E+02 -0.87713445618E+02 -0.18514559735E+03  0.27041466415E+03  0.16440590022E+03 0.  0.
        -24    2    5    5    0    0 -0.51639890295E+02 -0.63746842346E+02 -0.20619293071E+03  0.23581186095E+03  0.79758202765E+02 0.  0.
          5    1    3    3  501    0  0.23640805781E+02 -0.40108705738E+02 -0.96031415319E+02  0.10682564628E+03  0.47000000000E+01 0. -1.
        -13    1    4    4    0    0  0.10885832332E+02  0.73610172479E+02 -0.73792748277E+02  0.10479660556E+03  0.00000000000E+00 0.  1.
         14    1    4    4    0    0  0.29678110932E+02  0.54211978877E+02 -0.21285677665E+03  0.22164777528E+03  0.00000000000E+00 0. -1.
         -5    1    5    5    0  502 -0.12564858750E+02 -0.23966603272E+02  0.21047333363E+02  0.34602803203E+02  0.47000000000E+01 0.  1.
         11    1    6    6    0    0 -0.38128404750E+02 -0.57329006647E+02 -0.67856255750E+02  0.96668824842E+02  0.00000000000E+00 0. -1.
        -12    1    6    6    0    0 -0.13511485545E+02 -0.64178356991E+01 -0.13833667496E+03  0.13914303610E+03  0.00000000000E+00 0.  1.
</event>
<event>
12    1  0.8113184E-002  0.1764507E+03  0.7818608E-02  0.1171320E+00
         21   -1    0    0  503  502  0.00000000000E+00  0.00000000000E+00  0.12645643529E+03  0.12645643529E+03  0.00000000000E+00 0.  1.
         21   -1    0    0  501  503 -0.00000000000E+00 -0.00000000000E+00 -0.24738746474E+03  0.24738746474E+03  0.00000000000E+00 0.  1.
          6    2    1    2  501    0 -0.14788559080E+02  0.34191424811E+02 -0.74470660188E+02  0.19152210524E+03  0.17247342565E+03 0.  0.
         24    2    3    3    0    0 -0.12881191935E+02  0.93824850298E+02 -0.27040517602E+02  0.11515789955E+03  0.59675158963E+02 0.  0.
         -6    2    1    2    0  502  0.14788559080E+02 -0.34191424811E+02 -0.46460369262E+02  0.18232179480E+03  0.17232212840E+03 0.  0.
        -24    2    5    5    0    0  0.52841746403E+02 -0.43308988076E+02 -0.79411279833E+02  0.13095032867E+03  0.78574287157E+02 0.  0.
          5    1    3    3  501    0 -0.19073671449E+01 -0.59633425486E+02 -0.47430142585E+02  0.76364205688E+02  0.47000000000E+01 0. -1.
        -13    1    4    4    0    0 -0.89158409486E+01  0.99250197922E+02 -0.14188295086E+02  0.10065486439E+03  0.00000000000E+00 0.  1.
         14    1    4    4    0    0 -0.39653509865E+01 -0.54253476241E+01 -0.12852222517E+02  0.14503035162E+02  0.00000000000E+00 0. -1.
         -5    1    5    5    0  502 -0.38053187323E+02  0.91175632648E+01  0.32950910572E+02  0.51371466135E+02  0.47000000000E+01 0.  1.
         13    1    6    6    0    0  0.10354411412E+02  0.14504383736E+02  0.65458279621E+01  0.18985227071E+02  0.00000000000E+00 0. -1.
        -14    1    6    6    0    0  0.42487334991E+02 -0.57813371812E+02 -0.85957107795E+02  0.11196510160E+03  0.00000000000E+00 0.  1.
</event>
<event>
12    1  0.8113184E-002  0.2724238E+03  0.7818608E-02  0.1100305E+00
         21   -1    0    0  503  502  0.00000000000E+00  0.00000000000E+00  0.30054119745E+03  0.30054119745E+03  0.00000000000E+00 0. -1.
         21   -1    0    0  501  503 -0.00000000000E+00 -0.00000000000E+00 -0.25122305599E+03  0.25122305599E+03  0.00000000000E+00 0. -1.
          6    2    1    2  501    0  0.91865782392E+02 -0.18574999829E+03 -0.21039948223E+02  0.27040150696E+03  0.17242943979E+03 0.  0.
         24    2    3    3    0    0  0.11020115467E+03 -0.76484599428E+02  0.60582086352E+01  0.15624585283E+03  0.79886645908E+02 0.  0.
         -6    2    1    2    0  502 -0.91865782392E+02  0.18574999829E+03  0.70358089687E+02  0.28136274648E+03  0.17683990071E+03 0.  0.
        -24    2    5    5    0    0 -0.11731759924E+03  0.11674462593E+03  0.89582446329E+02  0.20519712245E+03  0.81780912181E+02 0.  0.
          5    1    3    3  501    0 -0.18335372278E+02 -0.10926539886E+03 -0.27098156859E+02  0.11415565413E+03  0.47000000000E+01 0. -1.
        -11    1    4    4    0    0  0.43334726966E+02  0.12170549026E+02 -0.41059984626E+00  0.45013213805E+02  0.00000000000E+00 0.  1.
         12    1    4    4    0    0  0.66866427704E+02 -0.88655148454E+02  0.64688084814E+01  0.11123263902E+03  0.00000000000E+00 0. -1.
         -5    1    5    5    0  502  0.25451816850E+02  0.69005372359E+02 -0.19224356642E+02  0.76165624029E+02  0.47000000000E+01 0.  1.
         13    1    6    6    0    0 -0.40735274804E+02  0.71709256026E+02  0.51483555170E+01  0.82632230865E+02  0.00000000000E+00 0. -1.
        -14    1    6    6    0    0 -0.76582324438E+02  0.45035369903E+02  0.84434090812E+02  0.12256489159E+03  0.00000000000E+00 0.  1.
</event>
<event>
12    1  0.8113184E-002  0.2798446E+03  0.7818608E-02  0.1095950E+00
         21   -1    0    0  503  502  0.00000000000E+00  0.00000000000E+00  0.42163848685E+03  0.42163848685E+03  0.00000000000E+00 0.  1.
         21   -1    0    0  501  503 -0.00000000000E+00 -0.00000000000E+00 -0.21707281181E+03  0.21707281181E+03  0.00000000000E+00 0. -1.
          6    2    1    2  501    0 -0.13969678861E+03  0.16879699935E+03  0.22546443113E+03  0.35937059676E+03  0.17408445185E+03 0.  0.
         24    2    3    3    0    0 -0.34277127173E+02  0.59510675063E+02  0.16581886258E+03  0.19616370493E+03  0.79169830425E+02 0.  0.
         -6    2    1    2    0  502  0.13969678861E+03 -0.16879699935E+03 -0.20898756084E+02  0.27934070190E+03  0.17200828466E+03 0.  0.
        -24    2    5    5    0    0  0.10635663589E+02 -0.39867348463E+02  0.16878731968E+02  0.92983900371E+02  0.81600191923E+02 0.  0.
          5    1    3    3  501    0 -0.10541966144E+03  0.10928632429E+03  0.59645568544E+02  0.16320689183E+03  0.47000000000E+01 0. -1.
        -13    1    4    4    0    0 -0.36987073179E+01 -0.15388406502E+02  0.64999891482E+02  0.66898949044E+02  0.00000000000E+00 0.  1.
         14    1    4    4    0    0 -0.30578419855E+02  0.74899081566E+02  0.10081897110E+03  0.12926475588E+03  0.00000000000E+00 0. -1.
         -5    1    5    5    0  502  0.12906112503E+03 -0.12892965089E+03 -0.37777488052E+02  0.18635680153E+03  0.47000000000E+01 0.  1.
         13    1    6    6    0    0 -0.18805348541E+02 -0.66854912877E+01 -0.24992534388E+02  0.31983803755E+02  0.00000000000E+00 0. -1.
        -14    1    6    6    0    0  0.29441012130E+02 -0.33181857175E+02  0.41871266356E+02  0.61000096615E+02  0.00000000000E+00 0.  1.
</event>
<event>
12    1  0.8113184E-002  0.2033768E+03  0.7818608E-02  0.1147075E+00
         21   -1    0    0  501  502  0.00000000000E+00  0.00000000000E+00  0.95404798410E+02  0.95404798410E+02  0.00000000000E+00 0.  1.
         21   -1    0    0  502  503 -0.00000000000E+00 -0.00000000000E+00 -0.45425366508E+03  0.45425366508E+03  0.00000000000E+00 0. -1.
         -6    2    1    2    0  503 -0.74915036934E+02  0.77520239953E+02 -0.24062830447E+03  0.31506203178E+03  0.17245420435E+03 0.  0.
        -24    2    3    3    0    0 -0.96122660400E+02  0.75946732035E+01 -0.11930166593E+03  0.17335250000E+03  0.80752441813E+02 0.  0.
          6    2    1    2  501    0  0.74915036934E+02 -0.77520239953E+02 -0.11822056220E+03  0.23459643171E+03  0.17157428153E+03 0.  0.
         24    2    5    5    0    0  0.34653928117E+02  0.10633012860E+02 -0.10435616116E+03  0.13658487892E+03  0.80319767687E+02 0.  0.
          5    1    5    5  501    0  0.40261108817E+02 -0.88153252813E+02 -0.13864401046E+02  0.98011552793E+02  0.47000000000E+01 0. -1.
        -11    1    6    6    0    0  0.16551915011E+02 -0.88842738760E+01  0.85091713601E+01  0.20622856497E+02  0.00000000000E+00 0.  1.
         12    1    6    6    0    0  0.18102013106E+02  0.19517286736E+02 -0.11286533252E+03  0.11596202242E+03  0.00000000000E+00 0. -1.
         -5    1    3    3    0  503  0.21207623466E+02  0.69925566750E+02 -0.12132663854E+03  0.14170953178E+03  0.47000000000E+01 0.  1.
         13    1    4    4    0    0 -0.60404095068E+02  0.13828392955E+02 -0.12216377309E+03  0.13698126372E+03  0.00000000000E+00 0. -1.
        -14    1    4    4    0    0 -0.35718565332E+02 -0.62337197516E+01  0.28621071640E+01  0.36371236282E+02  0.00000000000E+00 0.  1.
</event>
<event>
12    1  0.8113184E-002  0.3188892E+03  0.7818608E-02  0.1076311E+00
         21   -1    0    0  501  502  0.00000000000E+00  0.00000000000E+00  0.16641209676E+03  0.16641209676E+03  0.00000000000E+00 0. -1.
         21   -1    0    0  502  503 -0.00000000000E+00 -0.00000000000E+00 -0.61199550828E+03  0.61199550828E+03  0.00000000000E+00 0. -1.
         -6    2    1    2    0  503  0.88444860781E+02  0.25228495627E+03 -0.19425481549E+03  0.37339689382E+03  0.17383933508E+03 0.  0.
        -24    2    3    3    0    0 -0.95717571962E+01  0.17035461331E+03 -0.13828399431E+03  0.23384524991E+03  0.80304576519E+02 0.  0.
          6    2    1    2  501    0 -0.88444860781E+02 -0.25228495627E+03 -0.25132859603E+03  0.40501071122E+03  0.17145675975E+03 0.  0.
         24    2    5    5    0    0 -0.17231384577E+02 -0.36053017629E+02 -0.60529130181E+02  0.10793473331E+03  0.79933662249E+02 0.  0.
          5    1    5    5  501    0 -0.71213476204E+02 -0.21623193864E+03 -0.19079946585E+03  0.29707597790E+03  0.47000000000E+01 0. -1.
        -13    1    6    6    0    0  0.16820778528E+02 -0.25056813365E+02  0.74744909384E+01  0.31091003539E+02  0.00000000000E+00 0.  1.
         14    1    6    6    0    0 -0.34052163105E+02 -0.10996204264E+02 -0.68003621119E+02  0.76843729775E+02  0.00000000000E+00 0. -1.
         -5    1    3    3    0  503  0.98016617977E+02  0.81930342953E+02 -0.55970821176E+02  0.13955164391E+03  0.47000000000E+01 0.  1.
         13    1    4    4    0    0  0.20391070138E+02  0.56674423694E+01 -0.16659745570E+02  0.26934416030E+02  0.00000000000E+00 0. -1.
        -14    1    4    4    0    0 -0.29962827334E+02  0.16468717094E+03 -0.12162424874E+03  0.20691083388E+03  0.00000000000E+00 0.  1.
</event>
<event>
12    1  0.8113184E-002  0.2109204E+03  0.7818608E-02  0.1140936E+00
         21   -1    0    0  503  502  0.00000000000E+00  0.00000000000E+00  0.88723669741E+02  0.88723669741E+02  0.00000000000E+00 0. -1.
         21   -1    0    0  501  503 -0.00000000000E+00 -0.00000000000E+00 -0.23093131267E+04  0.23093131267E+04  0.00000000000E+00 0. -1.
          6    2    1    2  501    0  0.71923112880E+02  0.99897678242E+02 -0.21712489030E+04  0.21814221046E+04  0.17066962001E+03 0.  0.
         24    2    3    3    0    0  0.11123748336E+03  0.81308968355E+02 -0.14264642655E+04  0.14353541411E+04  0.80351002169E+02 0.  0.
         -6    2    1    2    0  502 -0.71923112880E+02 -0.99897678242E+02 -0.49340553931E+02  0.21661469185E+03  0.17127449950E+03 0.  0.
        -24    2    5    5    0    0 -0.33238323316E+02  0.12367451570E+02 -0.42096327137E+02  0.97557809915E+02  0.80546170124E+02 0.  0.
          5    1    3    3  501    0 -0.39314370484E+02  0.18588709888E+02 -0.74478463752E+03  0.74606796349E+03  0.47000000000E+01 0. -1.
        -11    1    4    4    0    0  0.52780455152E+01 -0.14291769539E+02 -0.20885050687E+03  0.20940545996E+03  0.00000000000E+00 0.  1.
         12    1    4    4    0    0  0.10595943785E+03  0.95600737894E+02 -0.12176137586E+04  0.12259486811E+04  0.00000000000E+00 0. -1.
         -5    1    5    5    0  502 -0.38684789564E+02 -0.11226512981E+03 -0.72442267941E+01  0.11905688194E+03  0.47000000000E+01 0.  1.
         13    1    6    6    0    0  0.22657138004E+02 -0.11094484222E+02 -0.22626805190E+02  0.33888136505E+02  0.00000000000E+00 0. -1.
        -14    1    6    6    0    0 -0.55895461319E+02  0.23461935793E+02 -0.19469521948E+02  0.63669673410E+02  0.00000000000E+00 0.  1.
</event>
<event>
12    1  0.8113184E-002  0.2058136E+03  0.7818608E-02  0.1145108E+00
         21   -1    0    0  501  502  0.00000000000E+00  0.00000000000E+00  0.56664147717E+02  0.56664147717E+02  0.00000000000E+00 0. -1.
         21   -1    0    0  502  503 -0.00000000000E+00 -0.00000000000E+00 -0.14960460366E+04  0.14960460366E+04  0.00000000000E+00 0.  1.
         -6    2    1    2    0  503  0.14784740315E+02 -0.11031663825E+03 -0.12708094963E+04  0.12873678658E+04  0.17312104661E+03 0.  0.
        -24    2    3    3    0    0 -0.54165364041E+02 -0.83249163564E+02 -0.91683012843E+03  0.92569087185E+03  0.80385296703E+02 0.  0.
          6    2    1    2  501    0 -0.14784740315E+02  0.11031663825E+03 -0.16857239253E+03  0.26534231846E+03  0.17205099600E+03 0.  0.
         24    2    5    5    0    0 -0.20593385895E+02  0.71191051011E+02 -0.19088297590E+03  0.21968704417E+03  0.79585385582E+02 0.  0.
          5    1    5    5  501    0  0.58086455799E+01  0.39125587243E+02  0.22310583376E+02  0.45655274297E+02  0.47000000000E+01 0. -1.
        -13    1    6    6    0    0  0.16532814008E+00  0.84225101762E+02 -0.14653123706E+03  0.16901271708E+03  0.00000000000E+00 0.  1.
         14    1    6    6    0    0 -0.20758714035E+02 -0.13034050750E+02 -0.44351738844E+02  0.50674327088E+02  0.00000000000E+00 0. -1.
         -5    1    3    3    0  503  0.68950104355E+02 -0.27067474690E+02 -0.35397936791E+03  0.36167699399E+03  0.47000000000E+01 0.  1.
         11    1    4    4    0    0 -0.43146086687E+02 -0.21570467856E+02 -0.18506602855E+03  0.19124932629E+03  0.00000000000E+00 0. -1.
        -12    1    4    4    0    0 -0.11019277353E+02 -0.61678695708E+02 -0.73176409988E+03  0.73444154556E+03  0.00000000000E+00 0.  1.
</event>
<event>
12    1  0.8113184E-002  0.1910202E+03  0.7818608E-02  0.1158359E+00
         21   -1    0    0  503  502  0.00000000000E+00  0.00000000000E+00  0.24192832958E+04  0.24192832958E+04  0.00000000000E+00 0.  1.
         21   -1    0    0  501  503 -0.00000000000E+00 -0.00000000000E+00 -0.16401515180E+02  0.16401515180E+02  0.00000000000E+00 0.  1.
          6    2    1    2  501    0  0.80469406148E+02 -0.16043321906E+02  0.81053302607E+03  0.83191946448E+03  0.16850369590E+03 0.  0.
         24    2    3    3    0    0 -0.61045539689E+01  0.49666561496E+01  0.21370973474E+03  0.22846557161E+03  0.80391127847E+02 0.  0.
         -6    2    1    2    0  502 -0.80469406148E+02  0.16043321906E+02  0.15923487545E+04  0.16037653465E+04  0.17249932466E+03 0.  0.
        -24    2    5    5    0    0  0.11776694250E+02  0.21230058371E+02  0.44670372837E+03  0.45439122930E+03  0.79610064810E+02 0.  0.
          5    1    3    3  501    0  0.86573960116E+02 -0.21009978056E+02  0.59682329132E+03  0.60345389287E+03  0.47000000000E+01 0. -1.
        -13    1    4    4    0    0  0.29064850606E+02  0.10209181138E+01  0.31588363519E+02  0.42937542132E+02  0.00000000000E+00 0.  1.
         14    1    4    4    0    0 -0.35169404575E+02  0.39457380357E+01  0.18212137122E+03  0.18552802948E+03  0.00000000000E+00 0. -1.
         -5    1    5    5    0  502 -0.92246100398E+02 -0.51867364652E+01  0.11456450262E+04  0.11493741172E+04  0.47000000000E+01 0.  1.
         13    1    6    6    0    0 -0.30714800716E+02  0.24344161398E+02  0.17242410275E+03  0.17682225083E+03  0.00000000000E+00 0. -1.
        -14    1    6    6    0    0  0.42491494966E+02 -0.31141030264E+01  0.27427962562E+03  0.27756897847E+03  0.00000000000E+00 0.  1.
</event>
<event>
12    1  0.8113184E-002  0.2073535E+03  0.7818608E-02  0.1143729E+00
         21   -1    0    0  501  502  0.00000000000E+00  0.00000000000E+00  0.46888686002E+03  0.46888686002E+03  0.00000000000E+00 0. -1.
         21   -1    0    0  502  503 -0.00000000000E+00 -0.00000000000E+00 -0.19919944799E+03  0.19919944799E+03  0.00000000000E+00 0. -1.
         -6    2    1    2    0  503  0.89899691326E+02 -0.72432610821E+02 -0.11064086566E+03  0.23502525386E+03  0.17224120061E+03 0.  0.
        -24    2    3    3    0    0  0.10303251289E+03 -0.10426524453E+03 -0.11140363447E+03  0.20026235140E+03  0.78786418165E+02 0.  0.
          6    2    1    2  501    0 -0.89899691326E+02  0.72432610821E+02  0.38032827770E+03  0.43306105415E+03  0.17194138592E+03 0.  0.
         24    2    5    5    0    0 -0.12635824158E+03  0.56063211551E+02  0.24826211708E+03  0.29500040117E+03  0.79256980832E+02 0.  0.
          5    1    5    5  501    0  0.36458550255E+02  0.16369399270E+02  0.13206616062E+03  0.13806065297E+03  0.47000000000E+01 0. -1.
        -11    1    6    6    0    0 -0.40680724644E+02  0.59955193216E+02  0.13128015266E+03  0.14994674066E+03  0.00000000000E+00 0.  1.
         12    1    6    6    0    0 -0.85677516936E+02 -0.38919816647E+01  0.11698196442E+03  0.14505366051E+03  0.00000000000E+00 0. -1.
         -5    1    3    3    0  503 -0.13132821565E+02  0.31832633708E+02  0.76276880611E+00  0.34762902458E+02  0.47000000000E+01 0.  1.
         11    1    4    4    0    0  0.75734311463E+00  0.79738450849E+01  0.45433969138E+01  0.92085954167E+01  0.00000000000E+00 0. -1.
        -12    1    4    4    0    0  0.10227516978E+03 -0.11223908961E+03 -0.11594703138E+03  0.19105375599E+03  0.00000000000E+00 0.  1.
</event>
<event>
12    1  0.8113184E-002  0.1736616E+03  0.7818608E-02  0.1174322E+00
         21   -1    0    0  503  502  0.00000000000E+00  0.00000000000E+00  0.60450834426E+02  0.60450834426E+02  0.00000000000E+00 0. -1.
         21   -1    0    0  501  503 -0.00000000000E+00 -0.00000000000E+00 -0.64194724160E+03  0.64194724160E+03  0.00000000000E+00 0. -1.
          6    2    1    2  501    0 -0.19072155256E+02 -0.10567354378E+02 -0.45870644040E+03  0.49047931987E+03  0.17228740139E+03 0.  0.
         24    2    3    3    0    0  0.39833325760E+02  0.33766669379E+02 -0.21600308271E+03  0.23678191904E+03  0.81740220475E+02 0.  0.
         -6    2    1    2    0  502  0.19072155256E+02  0.10567354378E+02 -0.12278996678E+03  0.21191875616E+03  0.17133816616E+03 0.  0.
        -24    2    5    5    0    0 -0.32189305908E+02  0.97484544048E+01 -0.92596444662E+01  0.87260695515E+02  0.79984399653E+02 0.  0.
          5    1    3    3  501    0 -0.58905481016E+02 -0.44334023757E+02 -0.24270335769E+03  0.25369740083E+03  0.47000000000E+01 0. -1.
        -13    1    4    4    0    0 -0.10394331720E+02  0.37416240917E+02 -0.50004710711E+02  0.63312623619E+02  0.00000000000E+00 0.  1.
         14    1    4    4    0    0  0.50227657480E+02 -0.36495715387E+01 -0.16599837200E+03  0.17346929542E+03  0.00000000000E+00 0. -1.
         -5    1    5    5    0  502  0.51261461165E+02  0.81889997320E+00 -0.11353032232E+03  0.12465806064E+03  0.47000000000E+01 0.  1.
         13    1    6    6    0    0  0.90722817211E+01  0.35864901737E+02 -0.10354062097E+02  0.38416195467E+02  0.00000000000E+00 0. -1.
        -14    1    6    6    0    0 -0.41261587630E+02 -0.26116447332E+02  0.10944176313E+01  0.48844500048E+02  0.00000000000E+00 0.  1.
</event>
<event>
12    1  0.8113184E-002  0.1853133E+03  0.7818608E-02  0.1163009E+00
         21   -1    0    0  503  502  0.00000000000E+00  0.00000000000E+00  0.10332960296E+03  0.10332960296E+03  0.00000000000E+00 0. -1.
         21   -1    0    0  501  503 -0.00000000000E+00 -0.00000000000E+00 -0.42176226790E+03  0.42176226790E+03  0.00000000000E+00 0.  1.
          6    2    1    2  501    0 -0.68599903136E+02 -0.54972448568E+01 -0.28176003866E+03  0.33723840190E+03  0.17206061118E+03 0.  0.
         24    2    3    3    0    0 -0.48026084883E+02  0.48984009981E+02 -0.97062298693E+02  0.14351996118E+03  0.80442223776E+02 0.  0.
         -6    2    1    2    0  502  0.68599903136E+02  0.54972448568E+01 -0.36672626271E+02  0.18785346896E+03  0.17090312422E+03 0.  0.
        -24    2    5    5    0    0  0.10932842595E+03  0.16010380294E+02 -0.63039127802E+01  0.13576040468E+03  0.78626402465E+02 0.  0.
          5    1    3    3  501    0 -0.20573818253E+02 -0.54481254838E+02 -0.18469773997E+03  0.19371844072E+03  0.47000000000E+01 0. -1.
        -11    1    4    4    0    0 -0.11894142315E+00 -0.20821348988E+02 -0.23107882421E+02  0.31104934508E+02  0.00000000000E+00 0.  1.
         12    1    4    4    0    0 -0.47907143460E+02  0.69805358969E+02 -0.73954416272E+02  0.11241502667E+03  0.00000000000E+00 0. -1.
         -5    1    5    5    0  502 -0.40728522810E+02 -0.10513135437E+02 -0.30368713491E+02  0.52093064280E+02  0.47000000000E+01 0.  1.
         11    1    6    6    0    0  0.16236011084E+00  0.24359924012E+02 -0.97054697760E+01  0.26222669625E+02  0.00000000000E+00 0. -1.
        -12    1    6    6    0    0  0.10916606583E+03 -0.83495437179E+01  0.34015569958E+01  0.10953773505E+03  0.00000000000E+00 0.  1.
</event>
<event>
12    1  0.8113184E-002  0.1803616E+03  0.7818608E-02  0.1168494E+00
         21   -1    0    0  501  502  0.00000000000E+00  0.00000000000E+00  0.15250141385E+04  0.15250141385E+04  0.00000000000E+00 0.  1.
         21   -1    0    0  502  503 -0.00000000000E+00 -0.00000000000E+00 -0.25871299254E+02  0.25871299254E+02  0.00000000000E+00 0.  1.
         -6    2    1    2    0  503 -0.50712955812E+02  0.23411008578E+02  0.10846209177E+04  0.10988249121E+04  0.16701428971E+03 0.  0.
        -24    2    3    3    0    0  0.43025278876E+01  0.68624620370E+02  0.64124783958E+03  0.64974501876E+03  0.79005995753E+02 0.  0.
          6    2    1    2  501    0  0.50712955812E+02 -0.23411008578E+02  0.41452192156E+03  0.45206052574E+03  0.17149465377E+03 0.  0.
         24    2    5    5    0    0 -0.50263620117E+01 -0.46675950484E+02  0.11489821343E+03  0.14637345446E+03  0.77586597125E+02 0.  0.
          5    1    5    5  501    0  0.55739317824E+02  0.23264941905E+02  0.29962370813E+03  0.30568707128E+03  0.47000000000E+01 0. -1.
        -11    1    6    6    0    0  0.20678745985E+02  0.61895627150E+01  0.56470768015E+01  0.22311671800E+02  0.00000000000E+00 0.  1.
         12    1    6    6    0    0 -0.25705107997E+02 -0.52865513199E+02  0.10925113663E+03  0.12406178266E+03  0.00000000000E+00 0. -1.
         -5    1    3    3    0  503 -0.55015483700E+02 -0.45213611791E+02  0.44337307816E+03  0.44907989331E+03  0.47000000000E+01 0.  1.
         11    1    4    4    0    0  0.26654891956E+02  0.39668379539E+02  0.15688735378E+03  0.16400519923E+03  0.00000000000E+00 0. -1.
        -12    1    4    4    0    0 -0.22352364068E+02  0.28956240831E+02  0.48436048581E+03  0.48573981952E+03  0.00000000000E+00 0.  1.
</event>
<event>
12    1  0.8113184E-002  0.2125145E+03  0.7818608E-02  0.1139678E+00
         21   -1    0    0  503  502  0.00000000000E+00  0.00000000000E+00  0.45289040487E+03  0.45289040487E+03  0.00000000000E+00 0. -1.
         21   -1    0    0  501  503 -0.00000000000E+00 -0.00000000000E+00 -0.11934771917E+03  0.11934771917E+03  0.00000000000E+00 0.  1.
          6    2    1    2  501    0  0.12204863609E+03  0.17205230752E+02  0.49974231471E+02  0.21787464539E+03  0.17256896521E+03 0.  0.
         24    2    3    3    0    0  0.15432009207E+03  0.22968490388E+02  0.26495692112E+02  0.17727915496E+03  0.79897651507E+02 0.  0.
         -6    2    1    2    0  502 -0.12204863609E+03 -0.17205230752E+02  0.28356845423E+03  0.35436347865E+03  0.17311995042E+03 0.  0.
        -24    2    5    5    0    0 -0.49905459725E+02  0.45901193524E+02  0.20306880253E+03  0.22910637265E+03  0.81580125950E+02 0.  0.
          5    1    3    3  501    0 -0.32271455979E+02 -0.57632596359E+01  0.23478539359E+02  0.40595490428E+02  0.47000000000E+01 0. -1.
        -11    1    4    4    0    0  0.96564415765E+02 -0.50217560134E+01 -0.19084009204E+02  0.98560153372E+02  0.00000000000E+00 0.  1.
         12    1    4    4    0    0  0.57755676301E+02  0.27990246402E+02  0.45579701316E+02  0.78719001586E+02  0.00000000000E+00 0. -1.
         -5    1    5    5    0  502 -0.72143176362E+02 -0.63106424276E+02  0.80499651703E+02  0.12525710600E+03  0.47000000000E+01 0.  1.
         11    1    6    6    0    0 -0.45536418659E+02  0.53052042980E+02  0.82048528869E+02  0.10779631616E+03  0.00000000000E+00 0. -1.
        -12    1    6    6    0    0 -0.43690410663E+01 -0.71508494560E+01  0.12102027366E+03  0.12131005649E+03  0.00000000000E+00 0.  1.
</event>
<event>
12    1  0.8113184E-002  0.2261490E+03  0.7818608E-02  0.1129464E+00
         21   -1    0    0  501  502  0.00000000000E+00  0.00000000000E+00  0.56301977571E+03  0.56301977571E+03  0.00000000000E+00 0. -1.
         21   -1    0    0  502  503 -0.00000000000E+00 -0.00000000000E+00 -0.16901015010E+03  0.16901015010E+03  0.00000000000E+00 0.  1.
         -6    2    1    2    0  503 -0.85055121864E+01  0.14620399128E+03 -0.52109073342E+02  0.23207478425E+03  0.17232353048E+03 0.  0.
        -24    2    3    3    0    0  0.25722861897E+02  0.15027235664E+03 -0.79552921329E+02  0.18776465018E+03  0.75388658100E+02 0.  0.
          6    2    1    2  501    0  0.85055121864E+01 -0.14620399128E+03  0.44611869895E+03  0.49995514155E+03  0.17171283939E+03 0.  0.
         24    2    5    5    0    0  0.34444410237E+02 -0.43220749432E+02  0.10661763853E+03  0.14420040222E+03  0.79824711563E+02 0.  0.
          5    1    5    5  501    0 -0.25938898051E+02 -0.10298324185E+03  0.33950106042E+03  0.35575473934E+03  0.47000000000E+01 0. -1.
        -11    1    6    6    0    0  0.36660745634E+02 -0.57628752640E+02  0.10977119447E+03  0.12928572441E+03  0.00000000000E+00 0.  1.
         12    1    6    6    0    0 -0.22163353971E+01  0.14408003207E+02 -0.31535559397E+01  0.14914677807E+02  0.00000000000E+00 0. -1.
         -5    1    3    3    0  503 -0.34228374084E+02 -0.40683653647E+01  0.27443847987E+02  0.44310134072E+02  0.47000000000E+01 0.  1.
         13    1    4    4    0    0  0.97654878223E+01  0.68706804594E+01  0.11963316403E+02  0.16902424138E+02  0.00000000000E+00 0. -1.
        -14    1    4    4    0    0  0.15957374075E+02  0.14340167618E+03 -0.91516237732E+02  0.17086222604E+03  0.00000000000E+00 0.  1.
</event>
<event>
12    1  0.8113184E-002  0.2287781E+03  0.7818608E-02  0.1128262E+00
         21   -1    0    0  501  502  0.00000000000E+00  0.00000000000E+00  0.49340057326E+03  0.49340057326E+03  0.00000000000E+00 0. -1.
         21   -1    0    0  502  503 -0.00000000000E+00 -0.00000000000E+00 -0.10787007675E+03  0.10787007675E+03  0.00000000000E+00 0.  1.
         -6    2    1    2    0  503  0.35788228944E+02  0.14048276143E+03  0.13496885084E+03  0.26197646148E+03  0.17146099288E+03 0.  0.
        -24    2    3    3    0    0  0.10496051231E+02 -0.22056916653E+01  0.34606173015E+02  0.85640288217E+02  0.77599224145E+02 0.  0.
          6    2    1    2  501    0 -0.35788228944E+02 -0.14048276143E+03  0.25056164567E+03  0.33929418853E+03  0.17698362778E+03 0.  0.
         24    2    5    5    0    0 -0.68409448227E+02 -0.97788075154E+02  0.88698889842E+02  0.16868169805E+03  0.79647108858E+02 0.  0.
          5    1    5    5  501    0  0.32621219283E+02 -0.42694686272E+02  0.16186275583E+03  0.17061249048E+03  0.47000000000E+01 0. -1.
        -13    1    6    6    0    0  0.11512613494E+02 -0.47345925483E+02  0.25564042200E+02  0.55024514382E+02  0.00000000000E+00 0.  1.
         14    1    6    6    0    0 -0.79922061721E+02 -0.50442149671E+02  0.63134847641E+02  0.11365718367E+03  0.00000000000E+00 0. -1.
         -5    1    3    3    0  503  0.25292177713E+02  0.14268845309E+03  0.10036267783E+03  0.17633617326E+03  0.47000000000E+01 0.  1.
         13    1    4    4    0    0  0.28192728543E+02 -0.14662572976E+00 -0.15701857979E+02  0.32270726453E+02  0.00000000000E+00 0. -1.
        -14    1    4    4    0    0 -0.17696677312E+02 -0.20590659355E+01  0.50308030994E+02  0.53369561764E+02  0.00000000000E+00 0.  1.
</event>
<event>
12    1  0.8113184E-002  0.2005457E+03  0.7818608E-02  0.1149615E+00
         21   -1    0    0  501  502  0.00000000000E+00  0.00000000000E+00  0.12684274231E+03  0.12684274231E+03  0.00000000000E+00 0.  1.
         21   -1    0    0  502  503 -0.00000000000E+00 -0.00000000000E+00 -0.49768732083E+03  0.49768732083E+03  0.00000000000E+00 0. -1.
         -6    2    1    2    0  503  0.10186584361E+03  0.31773303517E+01 -0.37437056614E+03  0.42395335948E+03  0.17086949611E+03 0.  0.
        -24    2    3    3    0    0 -0.66461246813E+01  0.15870372156E+02 -0.22056716903E+03  0.23523787115E+03  0.79943356724E+02 0.  0.
          6    2    1    2  501    0 -0.10186584361E+03 -0.31773303517E+01  0.35259876097E+01  0.20057670366E+03  0.17271895073E+03 0.  0.
         24    2    5    5    0    0 -0.97018894033E+00 -0.39197233396E+02 -0.38975366984E+02  0.85225840253E+02  0.64861392545E+02 0.  0.
          5    1    5    5  501    0 -0.10089565467E+03  0.36019903044E+02  0.42501354594E+02  0.11535086341E+03  0.47000000000E+01 0. -1.
        -11    1    6    6    0    0 -0.13547689114E+02 -0.40256524695E+02 -0.51963864224E+02  0.67114609781E+02  0.00000000000E+00 0.  1.
         12    1    6    6    0    0  0.12577500174E+02  0.10592912993E+01  0.12988497240E+02  0.18111230473E+02  0.00000000000E+00 0. -1.
         -5    1    3    3    0  503  0.10851196830E+03 -0.12693041804E+02 -0.15380339711E+03  0.18871548833E+03  0.47000000000E+01 0.  1.
         11    1    4    4    0    0  0.29170374761E+02  0.20507991290E+02 -0.16610417449E+03  0.16988844944E+03  0.00000000000E+00 0. -1.
        -12    1    4    4    0    0 -0.35816499442E+02 -0.46376191339E+01 -0.54462994533E+02  0.65349421704E+02  0.00000000000E+00 0.  1.
</event>
<event>
12    1  0.8113184E-002  0.2587659E+03  0.7818608E-02  0.1107958E+00
         21   -1    0    0  503  502  0.00000000000E+00  0.00000000000E+00  0.47161925716E+03  0.47161925716E+03  0.00000000000E+00 0. -1.
         21   -1    0    0  501  503 -0.00000000000E+00 -0.00000000000E+00 -0.14827662533E+03  0.14827662533E+03  0.00000000000E+00 0.  1.
          6    2    1    2  501    0 -0.15871310207E+03 -0.11151933171E+03  0.22698215259E+03  0.34421024176E+03  0.17126991219E+03 0.  0.
         24    2    3    3    0    0 -0.60535500676E+02 -0.75555490796E+02  0.20042740060E+03  0.23623115062E+03  0.79125435743E+02 0.  0.
         -6    2    1    2    0  502  0.15871310207E+03  0.11151933171E+03  0.96360479239E+02  0.27568564073E+03  0.17056031319E+03 0.  0.
        -24    2    5    5    0    0  0.96596943390E+02 -0.48279922384E+01  0.25825145382E+02  0.12604460264E+03  0.76589978064E+02 0.  0.
          5    1    3    3  501    0 -0.98177601395E+02 -0.35963840913E+02  0.26554751990E+02  0.10797909113E+03  0.47000000000E+01 0. -1.
        -11    1    4    4    0    0  0.13729508695E+02  0.57707078725E+01  0.22907676016E+02  0.27323288580E+02  0.00000000000E+00 0.  1.
         12    1    4    4    0    0 -0.74265009371E+02 -0.81326198668E+02  0.17751972458E+03  0.20890786204E+03  0.00000000000E+00 0. -1.
         -5    1    5    5    0  502  0.62116158682E+02  0.11634732395E+03  0.70535333857E+02  0.14964103809E+03  0.47000000000E+01 0.  1.
         11    1    6    6    0    0 -0.10765748542E+02 -0.11554038018E+02  0.29234093845E+01  0.16060618251E+02  0.00000000000E+00 0. -1.
        -12    1    6    6    0    0  0.10736269193E+03  0.67260457795E+01  0.22901735998E+02  0.10998398439E+03  0.00000000000E+00 0.  1.
</event>
<event>
12    1  0.8113184E-002  0.1867830E+03  0.7818608E-02  0.1162612E+00
         21   -1    0    0  501  502  0.00000000000E+00  0.00000000000E+00  0.13469686445E+03  0.13469686445E+03  0.00000000000E+00 0.  1.
         21   -1    0    0  502  503 -0.00000000000E+00 -0.00000000000E+00 -0.57426899729E+03  0.57426899729E+03  0.00000000000E+00 0.  1.
         -6    2    1    2    0  503 -0.60929105976E+02 -0.39787458160E+02 -0.48674568738E+03  0.52135329035E+03  0.17202468250E+03 0.  0.
        -24    2    3    3    0    0 -0.39877421570E+02  0.41565397372E+01 -0.13248094791E+03  0.16372241360E+03  0.87443362145E+02 0.  0.
          6    2    1    2  501    0  0.60929105976E+02  0.39787458160E+02  0.47173554544E+02  0.18761257138E+03  0.16636626735E+03 0.  0.
         24    2    5    5    0    0 -0.91659176510E+01  0.56005244708E+02  0.64245914303E+02  0.11351881722E+03  0.74420312266E+02 0.  0.
          5    1    5    5  501    0  0.70095023627E+02 -0.16217786548E+02 -0.17072359760E+02  0.74093754160E+02  0.47000000000E+01 0. -1.
        -11    1    6    6    0    0 -0.37637366613E+02  0.99626664958E+01  0.21031309380E+02  0.44250899013E+02  0.00000000000E+00 0.  1.
         12    1    6    6    0    0  0.28471448962E+02  0.46042578212E+02  0.43214604923E+02  0.69267918210E+02  0.00000000000E+00 0. -1.
         -5    1    3    3    0  503 -0.21051684406E+02 -0.43943997897E+02 -0.35426473948E+03  0.35763087675E+03  0.47000000000E+01 0.  1.
         11    1    4    4    0    0  0.21581423164E+02  0.23240229089E+02 -0.39826454660E+02  0.50911811643E+02  0.00000000000E+00 0. -1.
        -12    1    4    4    0    0 -0.61458844735E+02 -0.19083689352E+02 -0.92654493248E+02  0.11281060196E+03  0.00000000000E+00 0.  1.
</event>
<event>
12    1  0.8113184E-002  0.1745700E+03  0.7818608E-02  0.1173675E+00
         21   -1    0    0  501  502  0.00000000000E+00  0.00000000000E+00  0.10719481336E+04  0.10719481336E+04  0.00000000000E+00 0. -1.
         21   -1    0    0  502  503 -0.00000000000E+00 -0.00000000000E+00 -0.60626873263E+02  0.60626873263E+02  0.00000000000E+00 0. -1.
         -6    2    1    2    0  503 -0.16156859246E+02 -0.23338478671E+02  0.92250192531E+02  0.19744567364E+03  0.17224682095E+03 0.  0.
        -24    2    3    3    0    0 -0.44402694308E+02 -0.73070027336E+02  0.65948916735E+02  0.13431959947E+03  0.79885336746E+02 0.  0.
          6    2    1    2  501    0  0.16156859246E+02  0.23338478671E+02  0.91907106776E+03  0.93512933318E+03  0.17020432865E+03 0.  0.
         24    2    5    5    0    0 -0.49560920934E+01  0.87139822949E+01  0.89779977834E+03  0.90145159035E+03  0.80436505519E+02 0.  0.
          5    1    5    5  501    0  0.21112951340E+02  0.14624496376E+02  0.21271289421E+02  0.33677742831E+02  0.47000000000E+01 0. -1.
        -11    1    6    6    0    0  0.15832961978E+02 -0.31425915333E+02  0.33668529082E+03  0.33851921053E+03  0.00000000000E+00 0.  1.
         12    1    6    6    0    0 -0.20789054071E+02  0.40139897628E+02  0.56111448752E+03  0.56293237982E+03  0.00000000000E+00 0. -1.
         -5    1    3    3    0  503  0.28245835062E+02  0.49731548665E+02  0.26301275795E+02  0.63126074165E+02  0.47000000000E+01 0.  1.
         11    1    4    4    0    0 -0.26139051486E+02 -0.29725591048E+02 -0.13642934177E+02  0.41868728530E+02  0.00000000000E+00 0. -1.
        -12    1    4    4    0    0 -0.18263642822E+02 -0.43344436288E+02  0.79591850913E+02  0.92450870942E+02  0.00000000000E+00 0.  1.
</event>
<event>
12    1  0.8113184E-002  0.1787591E+03  0.7818608E-02  0.1169180E+00
         21   -1    0    0  503  502  0.00000000000E+00  0.00000000000E+00  0.23214764020E+03  0.23214764020E+03  0.00000000000E+00 0. -1.
         21   -1    0    0  501  503 -0.00000000000E+00 -0.00000000000E+00 -0.18917590564E+03  0.18917590564E+03  0.00000000000E+00 0. -1.
          6    2    1    2  501    0 -0.43415421994E+02 -0.28403470158E+02 -0.88998483383E+02  0.19968862135E+03  0.17106478150E+03 0.  0.
         24    2    3    3    0    0 -0.94242231319E+02 -0.27202023043E+02 -0.49347381148E+02  0.13504260114E+03  0.78611652282E+02 0.  0.
         -6    2    1    2    0  502  0.43415421994E+02  0.28403470158E+02  0.13197021795E+03  0.22163492448E+03  0.17033568428E+03 0.  0.
        -24    2    5    5    0    0  0.59522669658E+02  0.78765406025E+02  0.89216447456E+02  0.15347523769E+03  0.76473110954E+02 0.  0.
          5    1    3    3  501    0  0.50826809325E+02 -0.12014471154E+01 -0.39651102235E+02  0.64646020216E+02  0.47000000000E+01 0. -1.
        -13    1    4    4    0    0 -0.24806894443E+02  0.25127149151E+02 -0.49657458198E+00  0.35312918638E+02  0.00000000000E+00 0.  1.
         14    1    4    4    0    0 -0.69435336876E+02 -0.52329172194E+02 -0.48850806566E+02  0.99729682501E+02  0.00000000000E+00 0. -1.
         -5    1    5    5    0  502 -0.16107247664E+02 -0.50361935867E+02  0.42753770493E+02  0.68159686787E+02  0.47000000000E+01 0.  1.
         13    1    6    6    0    0  0.28272439596E+02  0.67205895819E+01 -0.63867252760E+01  0.29753780009E+02  0.00000000000E+00 0. -1.
        -14    1    6    6    0    0  0.31250230062E+02  0.72044816443E+02  0.95603172732E+02  0.12372145769E+03  0.00000000000E+00 0.  1.
</event>
<event>
12    1  0.8113184E-002  0.2564049E+03  0.7818608E-02  0.1109377E+00
         21   -1    0    0  503  502  0.00000000000E+00  0.00000000000E+00  0.27986824023E+03  0.27986824023E+03  0.00000000000E+00 0.  1.
         21   -1    0    0  501  503 -0.00000000000E+00 -0.00000000000E+00 -0.25829101151E+03  0.25829101151E+03  0.00000000000E+00 0. -1.
          6    2    1    2  501    0  0.18621929251E+03  0.37218249514E+02 -0.70743067400E+02  0.26564045561E+03  0.17174820836E+03 0.  0.
         24    2    3    3    0    0  0.29488146696E+02  0.42355155927E+02 -0.23553409568E+01  0.94497208585E+02  0.79124362684E+02 0.  0.
         -6    2    1    2    0  502 -0.18621929251E+03 -0.37218249514E+02  0.92320296122E+02  0.27251879613E+03  0.17228068427E+03 0.  0.
        -24    2    5    5    0    0 -0.86963525762E+02 -0.47948132414E+02  0.11325528437E+03  0.17040512735E+03  0.79683560253E+02 0.  0.
          5    1    3    3  501    0  0.15673114581E+03 -0.51369064130E+01 -0.68387726443E+02  0.17114324703E+03  0.47000000000E+01 0. -1.
        -13    1    4    4    0    0  0.41878777379E+02  0.19775406233E+02  0.28442055925E+02  0.54349325955E+02  0.00000000000E+00 0.  1.
         14    1    4    4    0    0 -0.12390630683E+02  0.22579749694E+02 -0.30797396882E+02  0.40147882630E+02  0.00000000000E+00 0. -1.
         -5    1    5    5    0  502 -0.99255766743E+02  0.10729882900E+02 -0.20934988252E+02  0.10211366878E+03  0.47000000000E+01 0.  1.
         13    1    6    6    0    0 -0.52956849493E+01 -0.18589537481E+02  0.71558923849E+02  0.74123510206E+02  0.00000000000E+00 0. -1.
        -14    1    6    6    0    0 -0.81667840813E+02 -0.29358594933E+02  0.41696360526E+02  0.96281617148E+02  0.00000000000E+00 0.  1.
</event>
<event>
12    1  0.8113184E-002  0.3010734E+03  0.7818608E-02  0.1085097E+00
         21   -1    0    0  503  502  0.00000000000E+00  0.00000000000E+00  0.14625222165E+03  0.14625222165E+03  0.00000000000E+00 0. -1.
         21   -1    0    0  501  503 -0.00000000000E+00 -0.00000000000E+00 -0.73163135927E+03  0.73163135927E+03  0.00000000000E+00 0. -1.
          6    2    1    2  501    0  0.23312900205E+03  0.81804929737E+02 -0.46788798467E+03  0.55469729545E+03  0.16651950411E+03 0.  0.
         24    2    3    3    0    0  0.22408958029E+03  0.10734102372E+03 -0.36908027930E+03  0.45213582177E+03  0.80425825415E+02 0.  0.
         -6    2    1    2    0  502 -0.23312900205E+03 -0.81804929737E+02 -0.11749115294E+03  0.32318628546E+03  0.17205820518E+03 0.  0.
        -24    2    5    5    0    0 -0.21975591355E+03 -0.90809763230E+02 -0.14587648820E+03  0.29020532460E+03  0.80000662330E+02 0.  0.
          5    1    3    3  501    0  0.90394217589E+01 -0.25536093982E+02 -0.98807705372E+02  0.10256147367E+03  0.47000000000E+01 0. -1.
        -11    1    4    4    0    0 -0.60136343840E+01  0.61831697673E+01 -0.58740483040E+01  0.10435508150E+02  0.00000000000E+00 0.  1.
         12    1    4    4    0    0  0.23010321467E+03  0.10115785395E+03 -0.36320623100E+03  0.44170031362E+03  0.00000000000E+00 0. -1.
         -5    1    5    5    0  502 -0.13373088493E+02  0.90048334924E+01  0.28385335260E+02  0.32980960869E+02  0.47000000000E+01 0.  1.
         13    1    6    6    0    0 -0.79682295729E+02 -0.66048672562E+02 -0.33048546994E+02  0.10864576319E+03  0.00000000000E+00 0. -1.
        -14    1    6    6    0    0 -0.14007361782E+03 -0.24761090668E+02 -0.11282794121E+03  0.18155956141E+03  0.00000000000E+00 0.  1.
</event>
<event>
12    1  0.8113184E-002  0.1962628E+03  0.7818608E-02  0.1153246E+00
         21   -1    0    0  503  502  0.00000000000E+00  0.00000000000E+00  0.50897117494E+02  0.50897117494E+02  0.00000000000E+00 0. -1.
         21   -1    0    0  501  503 -0.00000000000E+00 -0.00000000000E+00 -0.11353615021E+04  0.11353615021E+04  0.00000000000E+00 0.  1.
          6    2    1    2  501    0  0.48760567100E+02  0.78224721220E+02 -0.88590970769E+03  0.90707583029E+03  0.17162124520E+03 0.  0.
         24    2    3    3    0    0  0.13622640888E+02 -0.18060256569E+02 -0.27667304894E+03  0.28925962205E+03  0.81310538821E+02 0.  0.
         -6    2    1    2    0  502 -0.48760567100E+02 -0.78224721220E+02 -0.19855467690E+03  0.27918278929E+03  0.17326964593E+03 0.  0.
        -24    2    5    5    0    0 -0.31470716354E+02 -0.53763002788E+02 -0.26677533168E+02  0.10465153952E+03  0.79745767862E+02 0.  0.
          5    1    3    3  501    0  0.35137926212E+02  0.96284977789E+02 -0.60923665875E+03  0.61781620825E+03  0.47000000000E+01 0. -1.
        -11    1    4    4    0    0  0.25793904445E+02  0.22687329284E+02 -0.18553115171E+03  0.18868452155E+03  0.00000000000E+00 0.  1.
         12    1    4    4    0    0 -0.12171263557E+02 -0.40747585853E+02 -0.91141897233E+02  0.10057510050E+03  0.00000000000E+00 0. -1.
         -5    1    5    5    0  502 -0.17289850746E+02 -0.24461718432E+02 -0.17187714373E+03  0.17453124976E+03  0.47000000000E+01 0.  1.
         13    1    6    6    0    0  0.13021109100E+02 -0.49864821496E+02 -0.30399249358E+02  0.59834472226E+02  0.00000000000E+00 0. -1.
        -14    1    6    6    0    0 -0.44491825454E+02 -0.38981812920E+01  0.37217161906E+01  0.44817067296E+02  0.00000000000E+00 0.  1.
</event>
<event>
12    1  0.8113184E-002  0.2092535E+03  0.7818608E-02  0.1142409E+00
         21   -1    0    0  501  502  0.00000000000E+00  0.00000000000E+00  0.25407646847E+02  0.25407646847E+02  0.00000000000E+00 0. -1.
         21   -1    0    0  502  503 -0.00000000000E+00 -0.00000000000E+00 -0.17824255207E+04  0.17824255207E+04  0.00000000000E+00 0.  1.
         -6    2    1    2    0  503 -0.80203669601E+02 -0.87181012232E+02 -0.10593657688E+04  0.10798346418E+04  0.17249308425E+03 0.  0.
        -24    2    3    3    0    0  0.22900813094E+02 -0.36130889157E+02 -0.58850420961E+03  0.59509827294E+03  0.77297227216E+02 0.  0.
          6    2    1    2  501    0  0.80203669601E+02  0.87181012232E+02 -0.69765210503E+03  0.72799852567E+03  0.17096852407E+03 0.  0.
         24    2    5    5    0    0  0.81077934252E+02  0.56762137674E+02 -0.26916922472E+03  0.29841065226E+03  0.82469837821E+02 0.  0.
          5    1    5    5  501    0 -0.87426465096E+00  0.30418874558E+02 -0.42848288030E+03  0.42958787341E+03  0.47000000000E+01 0. -1.
        -13    1    6    6    0    0  0.81300010633E+02  0.32750395585E+02 -0.25690933921E+03  0.27144923782E+03  0.00000000000E+00 0.  1.
         14    1    6    6    0    0 -0.22207638119E+00  0.24011742089E+02 -0.12259885517E+02  0.26961414447E+02  0.00000000000E+00 0. -1.
         -5    1    3    3    0  503 -0.10310448270E+03 -0.51050123075E+02 -0.47086155919E+03  0.48473636891E+03  0.47000000000E+01 0.  1.
         13    1    4    4    0    0  0.15501920468E+02 -0.33259764645E+02 -0.99843924137E+02  0.10637354309E+03  0.00000000000E+00 0. -1.
        -14    1    4    4    0    0  0.73988926262E+01 -0.28711245124E+01 -0.48866028548E+03  0.48872472985E+03  0.00000000000E+00 0.  1.
</event>
<event>
12    1  0.8113184E-002  0.1996145E+03  0.7818608E-02  0.1150534E+00
         21   -1    0    0  503  502  0.00000000000E+00  0.00000000000E+00  0.56815411141E+03  0.56815411141E+03  0.00000000000E+00 0.  1.
         21   -1    0    0  501  503 -0.00000000000E+00 -0.00000000000E+00 -0.76788733104E+02  0.76788733104E+02  0.00000000000E+00 0. -1.
          6    2    1    2  501    0  0.28171825422E+02  0.96378970635E+02  0.14415126887E+03  0.24443865453E+03  0.16996502517E+03 0.  0.
         24    2    3    3    0    0  0.59847636449E+02  0.88178532414E+02  0.15992553997E+03  0.20781186352E+03  0.79072113392E+02 0.  0.
         -6    2    1    2    0  502 -0.28171825422E+02 -0.96378970635E+02  0.34721410943E+03  0.40050418998E+03  0.17252075434E+03 0.  0.
        -24    2    5    5    0    0  0.23402184027E+02  0.70359476728E+01  0.17191703371E+03  0.19049067009E+03  0.78320253682E+02 0.  0.
          5    1    3    3  501    0 -0.31675811027E+02  0.82004382206E+01 -0.15774271098E+02  0.36626791013E+02  0.47000000000E+01 0. -1.
        -11    1    4    4    0    0 -0.28141523592E+01  0.66249422999E+02  0.80704538356E+02  0.10445155821E+03  0.00000000000E+00 0.  1.
         12    1    4    4    0    0  0.62661788808E+02  0.21929109416E+02  0.79221001615E+02  0.10336030531E+03  0.00000000000E+00 0. -1.
         -5    1    5    5    0  502 -0.51574009449E+02 -0.10341491831E+03  0.17529707572E+03  0.21001351989E+03  0.47000000000E+01 0.  1.
         13    1    6    6    0    0  0.70808026864E+01  0.25868359751E+02  0.13316046691E+02  0.29943728932E+02  0.00000000000E+00 0. -1.
        -14    1    6    6    0    0  0.16321381340E+02 -0.18832412078E+02  0.15860098702E+03  0.16054694116E+03  0.00000000000E+00 0.  1.
</event>
<event>
12    1  0.8113184E-002  0.4276547E+03  0.7818608E-02  0.1034635E+00
         21   -1    0    0  503  502  0.00000000000E+00  0.00000000000E+00  0.34841377328E+03  0.34841377328E+03  0.00000000000E+00 0.  1.
         21   -1    0    0  501  503 -0.00000000000E+00 -0.00000000000E+00 -0.53370382053E+03  0.53370382053E+03  0.00000000000E+00 0. -1.
          6    2    1    2  501    0 -0.20487747235E+02 -0.39076763380E+03 -0.15074533898E+03  0.45306991648E+03  0.17154912002E+03 0.  0.
         24    2    3    3    0    0 -0.65967476425E+02 -0.17660722625E+03 -0.10231011789E+03  0.22879074542E+03  0.79599149852E+02 0.  0.
         -6    2    1    2    0  502  0.20487747235E+02  0.39076763380E+03 -0.34544708276E+02  0.42904767734E+03  0.17253834688E+03 0.  0.
        -24    2    5    5    0    0  0.37405858576E+02  0.39705437029E+03 -0.23283264205E+02  0.40726108353E+03  0.79171387140E+02 0.  0.
          5    1    3    3  501    0  0.45479729190E+02 -0.21416040755E+03 -0.48435221091E+02  0.22427917106E+03  0.47000000000E+01 0. -1.
        -13    1    4    4    0    0 -0.42310544096E+02 -0.44218989060E+02 -0.23871569101E+01  0.61247037914E+02  0.00000000000E+00 0.  1.
         14    1    4    4    0    0 -0.23656932329E+02 -0.13238823719E+03 -0.99922960978E+02  0.16754370751E+03  0.00000000000E+00 0. -1.
         -5    1    5    5    0  502 -0.16918111340E+02 -0.62867364941E+01 -0.11261444071E+02  0.21786593805E+02  0.47000000000E+01 0.  1.
         13    1    6    6    0    0  0.46242926377E+02  0.22852448070E+03 -0.43873398642E+02  0.23724822787E+03  0.00000000000E+00 0. -1.
        -14    1    6    6    0    0 -0.88370678010E+01  0.16852988960E+03  0.20590134437E+02  0.17001285566E+03  0.00000000000E+00 0.  1.
</event>
<event>
12    1  0.8113184E-002  0.1920159E+03  0.7818608E-02  0.1157666E+00
         21   -1    0    0  503  502  0.00000000000E+00  0.00000000000E+00  0.10786810315E+04  0.10786810315E+04  0.00000000000E+00 0.  1.
         21   -1    0    0  501  503 -0.00000000000E+00 -0.00000000000E+00 -0.68342272381E+02  0.68342272381E+02  0.00000000000E+00 0.  1.
          6    2    1    2  501    0 -0.32981595139E+02 -0.66027355916E+02  0.92102528666E+02  0.20892529944E+03  0.17239346743E+03 0.  0.
         24    2    3    3    0    0  0.37570893102E+02 -0.22370580177E+02  0.86559316169E+02  0.12564033759E+03  0.79880938581E+02 0.  0.
         -6    2    1    2    0  502  0.32981595139E+02  0.66027355916E+02  0.91823623045E+03  0.93809800444E+03  0.17726447381E+03 0.  0.
        -24    2    5    5    0    0  0.27230965478E+02  0.38727462745E+02  0.21920317881E+03  0.23849265055E+03  0.81162607853E+02 0.  0.
          5    1    3    3  501    0 -0.70552488241E+02 -0.43656775739E+02  0.55432124966E+01  0.83284961846E+02  0.47000000000E+01 0. -1.
        -11    1    4    4    0    0  0.56938055629E+01 -0.35089567983E+02  0.34406657656E+01  0.35714638230E+02  0.00000000000E+00 0.  1.
         12    1    4    4    0    0  0.31877087539E+02  0.12718987806E+02  0.83118650403E+02  0.89925699362E+02  0.00000000000E+00 0. -1.
         -5    1    5    5    0  502  0.57506296611E+01  0.27299893170E+02  0.69903305164E+03  0.69960535390E+03  0.47000000000E+01 0.  1.
         11    1    6    6    0    0  0.21563821526E+02 -0.21360762329E+02  0.46336753759E+02  0.55392917553E+02  0.00000000000E+00 0. -1.
        -12    1    6    6    0    0  0.56671439526E+01  0.60088225075E+02  0.17286642505E+03  0.18309973299E+03  0.00000000000E+00 0.  1.
</event>
<event>
12    1  0.8113184E-002  0.1775952E+03  0.7818608E-02  0.1170368E+00
         21   -1    0    0  501  502  0.00000000000E+00  0.00000000000E+00  0.11822802649E+04  0.11822802649E+04  0.00000000000E+00 0.  1.
         21   -1    0    0  502  503 -0.00000000000E+00 -0.00000000000E+00 -0.48952958409E+02  0.48952958409E+02  0.00000000000E+00 0.  1.
         -6    2    1    2    0  503  0.36636424723E+02  0.26667441119E+02  0.15092419534E+03  0.23306255994E+03  0.17171681361E+03 0.  0.
        -24    2    3    3    0    0 -0.14073327330E+02  0.42998534237E+01  0.15324432742E+03  0.17739155361E+03  0.88132809582E+02 0.  0.
          6    2    1    2  501    0 -0.36636424723E+02 -0.26667441119E+02  0.98240311114E+03  0.99817066335E+03  0.17080813907E+03 0.  0.
         24    2    5    5    0    0 -0.54189219676E+02 -0.77454023792E+02  0.65749022799E+03  0.66881090681E+03  0.77968146335E+02 0.  0.
          5    1    5    5  501    0  0.17552794952E+02  0.50786582673E+02  0.32491288315E+03  0.32935975654E+03  0.47000000000E+01 0. -1.
        -11    1    6    6    0    0 -0.38505494276E+01  0.14867290979E+02  0.13298832431E+03  0.13387216841E+03  0.00000000000E+00 0.  1.
         12    1    6    6    0    0 -0.50338670248E+02 -0.92321314771E+02  0.52450190368E+03  0.53493873840E+03  0.00000000000E+00 0. -1.
         -5    1    3    3    0  503  0.50709752053E+02  0.22367587695E+02 -0.23201320848E+01  0.55671006327E+02  0.47000000000E+01 0.  1.
         13    1    4    4    0    0 -0.41013434388E+02 -0.99382046927E+01  0.33642981437E+02  0.53969620276E+02  0.00000000000E+00 0. -1.
        -14    1    4    4    0    0  0.26940107058E+02  0.14238058116E+02  0.11960134599E+03  0.12342193334E+03  0.00000000000E+00 0.  1.
</event>
<event>
12    1  0.8113184E-002  0.1776157E+03  0.7818608E-02  0.1170253E+00
         21   -1    0    0  501  502  0.00000000000E+00  0.00000000000E+00  0.35743114145E+03  0.35743114145E+03  0.00000000000E+00 0. -1.
         21   -1    0    0  502  503 -0.00000000000E+00 -0.00000000000E+00 -0.22237243036E+03  0.22237243036E+03  0.00000000000E+00 0. -1.
         -6    2    1    2    0  503 -0.26509206405E+02 -0.34570930949E+02 -0.15784873561E+03  0.23725121255E+03  0.17168001406E+03 0.  0.
        -24    2    3    3    0    0 -0.53264757521E+02  0.34249068034E+02 -0.10479779318E+03  0.14620976996E+03  0.79903606432E+02 0.  0.
          6    2    1    2  501    0  0.26509206405E+02  0.34570930949E+02  0.29290744671E+03  0.34255235927E+03  0.17219018327E+03 0.  0.
         24    2    5    5    0    0 -0.87372633305E+01  0.32560513334E+02  0.29419553313E+03  0.30691383272E+03  0.80675660541E+02 0.  0.
          5    1    5    5  501    0  0.35246469735E+02  0.20104176149E+01 -0.12880864222E+01  0.35638526547E+02  0.47000000000E+01 0. -1.
        -11    1    6    6    0    0 -0.34618960306E+02  0.33754988645E+01  0.58876074541E+02  0.68383174529E+02  0.00000000000E+00 0.  1.
         12    1    6    6    0    0  0.25881696976E+02  0.29185014470E+02  0.23531945859E+03  0.23853065819E+03  0.00000000000E+00 0. -1.
         -5    1    3    3    0  503  0.26755551116E+02 -0.68819998983E+02 -0.53050942434E+02  0.91041442589E+02  0.47000000000E+01 0.  1.
         13    1    4    4    0    0 -0.16314015568E+02  0.44757874830E+02 -0.95442629869E+02  0.10667103665E+03  0.00000000000E+00 0. -1.
        -14    1    4    4    0    0 -0.36950741953E+02 -0.10508806796E+02 -0.93551633098E+01  0.39538733309E+02  0.00000000000E+00 0.  1.
</event>
<event>
12    1  0.8113184E-002  0.2154880E+03  0.7818608E-02  0.1137381E+00
         21   -1    0    0  503  502  0.00000000000E+00  0.00000000000E+00  0.13838783934E+04  0.13838783934E+04  0.00000000000E+00 0. -1.
         21   -1    0    0  501  503 -0.00000000000E+00 -0.00000000000E+00 -0.66884025890E+02  0.66884025890E+02  0.00000000000E+00 0. -1.
          6    2    1    2  501    0 -0.10798679184E+03 -0.70309232243E+02  0.14552929595E+03  0.25964299374E+03  0.17213707580E+03 0.  0.
         24    2    3    3    0    0 -0.14893043933E+02 -0.68358740229E+02  0.12194654769E+03  0.16347394292E+03  0.83414923105E+02 0.  0.
         -6    2    1    2    0  502  0.10798679184E+03  0.70309232243E+02  0.11714650716E+04  0.11911194256E+04  0.17271518952E+03 0.  0.
        -24    2    5    5    0    0  0.79011737052E+02 -0.33220473872E+01  0.93654870571E+03  0.94319018548E+03  0.78932611908E+02 0.  0.
          5    1    3    3  501    0 -0.93093747912E+02 -0.19504920144E+01  0.23582748254E+02  0.96169050815E+02  0.47000000000E+01 0. -1.
        -13    1    4    4    0    0  0.28742901449E+02 -0.36793761930E+02  0.25987324547E+02  0.53434785840E+02  0.00000000000E+00 0.  1.
         14    1    4    4    0    0 -0.43635945381E+02 -0.31564978299E+02  0.95959223147E+02  0.11003915708E+03  0.00000000000E+00 0. -1.
         -5    1    5    5    0  502  0.28975054793E+02  0.73631279630E+02  0.23491636588E+03  0.24792924010E+03  0.47000000000E+01 0.  1.
         11    1    6    6    0    0  0.65931098154E+02  0.32565905281E+02  0.61694107085E+03  0.62130808203E+03  0.00000000000E+00 0. -1.
        -12    1    6    6    0    0  0.13080638898E+02 -0.35887952668E+02  0.31960763486E+03  0.32188210345E+03  0.00000000000E+00 0.  1.
</event>
<event>
12    1  0.8113184E-002  0.1969656E+03  0.7818608E-02  0.1152466E+00
         21   -1    0    0  501  502  0.00000000000E+00  0.00000000000E+00  0.14421842483E+04  0.14421842483E+04  0.00000000000E+00 0. -1.
         21   -1    0    0  502  503 -0.00000000000E+00 -0.00000000000E+00 -0.27752028674E+02  0.27752028674E+02  0.00000000000E+00 0. -1.
         -6    2    1    2    0  503 -0.39858082192E+02 -0.87826092693E+02  0.57075511650E+03  0.60357232268E+03  0.17098554449E+03 0.  0.
        -24    2    3    3    0    0  0.42388509585E+01  0.34087620290E+01  0.14080555093E+03  0.16181780129E+03  0.79556333049E+02 0.  0.
          6    2    1    2  501    0  0.39858082192E+02  0.87826092693E+02  0.84367710309E+03  0.86636395426E+03  0.17173630274E+03 0.  0.
         24    2    5    5    0    0  0.46592265502E+02  0.11521641265E+03  0.44957864676E+03  0.47122946812E+03  0.67011872477E+02 0.  0.
          5    1    5    5  501    0 -0.67341833101E+01 -0.27390319956E+02  0.39409845633E+03  0.39513448614E+03  0.47000000000E+01 0. -1.
        -11    1    6    6    0    0 -0.13614605465E+02  0.46984143443E+02  0.18863720229E+03  0.19487652836E+03  0.00000000000E+00 0.  1.
         12    1    6    6    0    0  0.60206870966E+02  0.68232269206E+02  0.26094144447E+03  0.27635293976E+03  0.00000000000E+00 0. -1.
         -5    1    3    3    0  503 -0.44096933150E+02 -0.91234854722E+02  0.42994956557E+03  0.44175452138E+03  0.47000000000E+01 0.  1.
         11    1    4    4    0    0 -0.88518538443E+01 -0.35067414485E+02  0.88303225650E+02  0.95422945539E+02  0.00000000000E+00 0. -1.
        -12    1    4    4    0    0  0.13090704803E+02  0.38476176514E+02  0.52502325275E+02  0.66394855755E+02  0.00000000000E+00 0.  1.
</event>
<event>
12    1  0.8113184E-002  0.1856407E+03  0.7818608E-02  0.1162623E+00
         21   -1    0    0  501  502  0.00000000000E+00  0.00000000000E+00  0.10385614979E+03  0.10385614979E+03  0.00000000000E+00 0.  1.
         21   -1    0    0  502  503 -0.00000000000E+00 -0.00000000000E+00 -0.39860835552E+03  0.39860835552E+03  0.00000000000E+00 0.  1.
         -6    2    1    2    0  503  0.50034269957E+02  0.45600062136E+02 -0.43787745777E+02  0.19073496269E+03  0.17285735586E+03 0.  0.
        -24    2    3    3    0    0  0.32586117537E+02 -0.31617964929E+02  0.13677061732E+02  0.92799495017E+02  0.79769251566E+02 0.  0.
          6    2    1    2  501    0 -0.50034269957E+02 -0.45600062136E+02 -0.25096445996E+03  0.31172954261E+03  0.17207368695E+03 0.  0.
         24    2    5    5    0    0  0.18311533123E+02 -0.67498955148E+02 -0.10447584348E+03  0.14853727849E+03  0.79099304912E+02 0.  0.
          5    1    5    5  501    0 -0.68345803080E+02  0.21898893012E+02 -0.14648861648E+03  0.16319226413E+03  0.47000000000E+01 0. -1.
        -11    1    6    6    0    0 -0.25790257368E+02 -0.35860181809E+02 -0.20858125861E+02  0.48848248985E+02  0.00000000000E+00 0.  1.
         12    1    6    6    0    0  0.44101790491E+02 -0.31638773339E+02 -0.83617717619E+02  0.99689029501E+02  0.00000000000E+00 0. -1.
         -5    1    3    3    0  503  0.17448152420E+02  0.77218027065E+02 -0.57464807509E+02  0.97935467675E+02  0.47000000000E+01 0.  1.
         13    1    4    4    0    0  0.15152680241E+01 -0.16271045370E+02 -0.31723095594E+02  0.35684699083E+02  0.00000000000E+00 0. -1.
        -14    1    4    4    0    0  0.31070849513E+02 -0.15346919558E+02  0.45400157326E+02  0.57114795934E+02  0.00000000000E+00 0.  1.
</event>
<event>
12    1  0.8113184E-002  0.2054016E+03  0.7818608E-02  0.1145283E+00
         21   -1    0    0  501  502  0.00000000000E+00  0.00000000000E+00  0.36091021518E+02  0.36091021518E+02  0.00000000000E+00 0.  1.
         21   -1    0    0  502  503 -0.00000000000E+00 -0.00000000000E+00 -0.14286490958E+04  0.14286490958E+04  0.00000000000E+00 0. -1.
         -6    2    1    2    0  503  0.82799652360E+02 -0.74445535744E+02 -0.38381758471E+03  0.43532260174E+03  0.17260332854E+03 0.  0.
        -24    2    3    3    0    0  0.77946080572E+02  0.53718665977E+01 -0.14215232334E+03  0.18072770110E+03  0.79691721567E+02 0.  0.
          6    2    1    2  501    0 -0.82799652360E+02  0.74445535744E+02 -0.10087404896E+04  0.10294175156E+04  0.17246775312E+03 0.  0.
         24    2    5    5    0    0 -0.62397089845E+02  0.19070419596E+01 -0.82711911041E+03  0.83272864196E+03  0.73579444893E+02 0.  0.
          5    1    5    5  501    0 -0.20402562514E+02  0.72538493784E+02 -0.18162137917E+03  0.19668887363E+03  0.47000000000E+01 0. -1.
        -13    1    6    6    0    0  0.11725666861E+02 -0.16156896344E+02 -0.19645745127E+03  0.19746915385E+03  0.00000000000E+00 0.  1.
         14    1    6    6    0    0 -0.74122756706E+02  0.18063938303E+02 -0.63066165914E+03  0.63525948811E+03  0.00000000000E+00 0. -1.
         -5    1    3    3    0  503  0.48535717873E+01 -0.79817402341E+02 -0.24166526138E+03  0.25459490064E+03  0.47000000000E+01 0.  1.
         11    1    4    4    0    0  0.66898601502E+02 -0.16269241253E+01 -0.15084661255E+03  0.16502354463E+03  0.00000000000E+00 0. -1.
        -12    1    4    4    0    0  0.11047479070E+02  0.69987907230E+01  0.86942892124E+01  0.15704156466E+02  0.00000000000E+00 0.  1.
</event>
<event>
12    1  0.8113184E-002  0.1736823E+03  0.7818608E-02  0.1174122E+00
         21   -1    0    0  503  502  0.00000000000E+00  0.00000000000E+00  0.36796479841E+02  0.36796479841E+02  0.00000000000E+00 0.  1.
         21   -1    0    0  501  503 -0.00000000000E+00 -0.00000000000E+00 -0.82306704095E+03  0.82306704095E+03  0.00000000000E+00 0.  1.
          6    2    1    2  501    0 -0.86347727140E+01  0.20081225651E+02 -0.42431362409E+03  0.45839325952E+03  0.17205962296E+03 0.  0.
         24    2    3    3    0    0 -0.40286164204E+02  0.66410347304E+02 -0.33330624386E+03  0.35137629192E+03  0.79617442011E+02 0.  0.
         -6    2    1    2    0  502  0.86347727140E+01 -0.20081225651E+02 -0.36195693702E+03  0.40147026128E+03  0.17230128123E+03 0.  0.
        -24    2    5    5    0    0  0.66603123409E+02 -0.18824966655E+01 -0.28554656610E+03  0.30373511815E+03  0.79238000626E+02 0.  0.
          5    1    3    3  501    0  0.31651391490E+02 -0.46329121653E+02 -0.91007380236E+02  0.10701696760E+03  0.47000000000E+01 0. -1.
        -13    1    4    4    0    0  0.13053922461E+02  0.41968069627E+02 -0.21346518995E+03  0.21794290784E+03  0.00000000000E+00 0.  1.
         14    1    4    4    0    0 -0.53340086665E+02  0.24442277677E+02 -0.11984105391E+03  0.13343338408E+03  0.00000000000E+00 0. -1.
         -5    1    5    5    0  502 -0.57968350695E+02 -0.18198728985E+02 -0.76410370919E+02  0.97735143132E+02  0.47000000000E+01 0.  1.
         13    1    6    6    0    0  0.16697215401E+02 -0.21452135185E+01 -0.33563535287E+01  0.17165781433E+02  0.00000000000E+00 0. -1.
        -14    1    6    6    0    0  0.49905908008E+02  0.26271685306E+00 -0.28219021257E+03  0.28656933671E+03  0.00000000000E+00 0.  1.
</event>
<event>
12    1  0.8113184E-002  0.2170284E+03  0.7818608E-02  0.1136621E+00
         21   -1    0    0  501  502  0.00000000000E+00  0.00000000000E+00  0.10208862084E+03  0.10208862084E+03  0.00000000000E+00 0.  1.
         21   -1    0    0  502  503 -0.00000000000E+00 -0.00000000000E+00 -0.45601364931E+03  0.45601364931E+03  0.00000000000E+00 0.  1.
         -6    2    1    2    0  503  0.10261940736E+03  0.80825876717E+02 -0.17192862212E+03  0.27687684461E+03  0.17331408154E+03 0.  0.
        -24    2    3    3    0    0 -0.13754554904E+02  0.47480707639E+02 -0.56353356611E+02  0.10944168882E+03  0.79738178264E+02 0.  0.
          6    2    1    2  501    0 -0.10261940736E+03 -0.80825876717E+02 -0.18199640636E+03  0.28122542554E+03  0.17000436151E+03 0.  0.
         24    2    5    5    0    0 -0.36920019881E+02  0.20339422694E+02 -0.72330410526E+02  0.11813174706E+03  0.83346513983E+02 0.  0.
          5    1    5    5  501    0 -0.65699387478E+02 -0.10116529941E+03 -0.10966599583E+03  0.16309367848E+03  0.47000000000E+01 0. -1.
        -13    1    6    6    0    0 -0.56931806484E+02 -0.91880042437E+01 -0.42604647380E+02  0.71699414153E+02  0.00000000000E+00 0.  1.
         14    1    6    6    0    0  0.20011786603E+02  0.29527426937E+02 -0.29725763146E+02  0.46432332907E+02  0.00000000000E+00 0. -1.
         -5    1    3    3    0  503  0.11637396226E+03  0.33345169078E+02 -0.11557526551E+03  0.16743515578E+03  0.47000000000E+01 0.  1.
         11    1    4    4    0    0 -0.38127378864E+01 -0.30924772483E+01 -0.57675072147E+02  0.57883627503E+02  0.00000000000E+00 0. -1.
        -12    1    4    4    0    0 -0.99418170178E+01  0.50573184887E+02  0.13217155364E+01  0.51558061322E+02  0.00000000000E+00 0.  1.
</event>
<event>
12    1  0.8113184E-002  0.1888962E+03  0.7818608E-02  0.1160202E+00
         21   -1    0    0  501  502  0.00000000000E+00  0.00000000000E+00  0.41502231813E+02  0.41502231813E+02  0.00000000000E+00 0. -1.
         21   -1    0    0  502  503 -0.00000000000E+00 -0.00000000000E+00 -0.85775975977E+03  0.85775975977E+03  0.00000000000E+00 0. -1.
         -6    2    1    2    0  503 -0.74800647386E+02  0.14505116762E+02 -0.45926275879E+03  0.49537210137E+03  0.16930948569E+03 0.  0.
        -24    2    3    3    0    0 -0.79119643538E+01  0.42433306771E+02 -0.12199539036E+03  0.15037145279E+03  0.76586642708E+02 0.  0.
          6    2    1    2  501    0  0.74800647386E+02 -0.14505116762E+02 -0.35699476917E+03  0.40388989022E+03  0.17284745570E+03 0.  0.
         24    2    5    5    0    0  0.19042910281E+02 -0.81734874159E+02 -0.20703023153E+03  0.23028050661E+03  0.55896089941E+02 0.  0.
          5    1    5    5  501    0  0.55757737106E+02  0.67229757397E+02 -0.14996453764E+03  0.17360938361E+03  0.47000000000E+01 0. -1.
        -13    1    6    6    0    0  0.34009338468E+02 -0.76529666072E+02 -0.18568359636E+03  0.20369541686E+03  0.00000000000E+00 0.  1.
         14    1    6    6    0    0 -0.14966428188E+02 -0.52052080871E+01 -0.21346635173E+02  0.26585089752E+02  0.00000000000E+00 0. -1.
         -5    1    3    3    0  503 -0.66888683032E+02 -0.27928190008E+02 -0.33726736843E+03  0.34500064858E+03  0.47000000000E+01 0.  1.
         11    1    4    4    0    0 -0.26311242317E+02  0.27058103048E+02 -0.12058385133E+03  0.12635223628E+03  0.00000000000E+00 0. -1.
        -12    1    4    4    0    0  0.18399277963E+02  0.15375203722E+02 -0.14115390314E+01  0.24019216505E+02  0.00000000000E+00 0.  1.
</event>
<event>
12    1  0.8113184E-002  0.2028203E+03  0.7818608E-02  0.1147596E+00
         21   -1    0    0  501  502  0.00000000000E+00  0.00000000000E+00  0.17427021216E+03  0.17427021216E+03  0.00000000000E+00 0. -1.
         21   -1    0    0  502  503 -0.00000000000E+00 -0.00000000000E+00 -0.31863555899E+03  0.31863555899E+03  0.00000000000E+00 0.  1.
         -6    2    1    2    0  503  0.13660248948E+02  0.10626371026E+03 -0.19842779096E+03  0.28300379730E+03  0.17099410089E+03 0.  0.
        -24    2    3    3    0    0  0.60657558790E+01 -0.14484546295E+02 -0.95944120603E+02  0.12437589787E+03  0.77572509420E+02 0.  0.
          6    2    1    2  501    0 -0.13660248948E+02 -0.10626371026E+03  0.54062444131E+02  0.20990197386E+03  0.17221356580E+03 0.  0.
         24    2    5    5    0    0 -0.54312275185E+01 -0.31439956745E+02  0.93513481661E+02  0.12478566963E+03  0.76214978720E+02 0.  0.
          5    1    5    5  501    0 -0.82290214293E+01 -0.74823753511E+02 -0.39451037530E+02  0.85116304227E+02  0.47000000000E+01 0. -1.
        -11    1    6    6    0    0  0.10606327337E+02  0.60573890798E+01  0.81301026776E+02  0.82213399741E+02  0.00000000000E+00 0.  1.
         12    1    6    6    0    0 -0.16037554855E+02 -0.37497345824E+02  0.12212454885E+02  0.42572269894E+02  0.00000000000E+00 0. -1.
         -5    1    3    3    0  503  0.75944930688E+01  0.12074825655E+03 -0.10248367036E+03  0.15862789942E+03  0.47000000000E+01 0.  1.
         11    1    4    4    0    0  0.26209933025E+02 -0.11500964800E+02 -0.24917086828E+01  0.28730495866E+02  0.00000000000E+00 0. -1.
        -12    1    4    4    0    0 -0.20144177146E+02 -0.29835814945E+01 -0.93452411920E+02  0.95645402007E+02  0.00000000000E+00 0.  1.
</event>
<event>
12    1  0.8113184E-002  0.2008498E+03  0.7818608E-02  0.1149319E+00
         21   -1    0    0  503  502  0.00000000000E+00  0.00000000000E+00  0.14390202035E+04  0.14390202035E+04  0.00000000000E+00 0.  1.
         21   -1    0    0  501  503 -0.00000000000E+00 -0.00000000000E+00 -0.32036729959E+02  0.32036729959E+02  0.00000000000E+00 0. -1.
          6    2    1    2  501    0  0.93705875071E+02  0.38537067541E+02  0.43508780292E+03  0.47862465528E+03  0.17179717050E+03 0.  0.
         24    2    3    3    0    0  0.81283596298E+02 -0.22043741806E+02  0.16156484172E+03  0.19815852938E+03  0.77914408854E+02 0.  0.
         -6    2    1    2    0  502 -0.93705875071E+02 -0.38537067541E+02  0.97189567063E+03  0.99243227820E+03  0.17342068968E+03 0.  0.
        -24    2    5    5    0    0 -0.52253717844E+02 -0.92927216347E+02  0.61418186147E+03  0.62821005359E+03  0.77862660577E+02 0.  0.
          5    1    3    3  501    0  0.12422278772E+02  0.60580809347E+02  0.27352296120E+03  0.28046612590E+03  0.47000000000E+01 0. -1.
        -11    1    4    4    0    0  0.39241089817E+02 -0.24206991986E+02  0.14627539913E+03  0.15336992528E+03  0.00000000000E+00 0.  1.
         12    1    4    4    0    0  0.42042506481E+02  0.21632501809E+01  0.15289442594E+02  0.44788604102E+02  0.00000000000E+00 0. -1.
         -5    1    5    5    0  502 -0.41452157227E+02  0.54390148806E+02  0.35771380917E+03  0.36422222460E+03  0.47000000000E+01 0.  1.
         13    1    6    6    0    0 -0.15543278462E+02 -0.62037629423E+02  0.17328442532E+03  0.18470991589E+03  0.00000000000E+00 0. -1.
        -14    1    6    6    0    0 -0.36710439382E+02 -0.30889586924E+02  0.44089743615E+03  0.44350013771E+03  0.00000000000E+00 0.  1.
</event>
<event>
12    1  0.8113184E-002  0.2199321E+03  0.7818608E-02  0.1135479E+00
         21   -1    0    0  503  502  0.00000000000E+00  0.00000000000E+00  0.30355261387E+03  0.30355261387E+03  0.00000000000E+00 0.  1.
         21   -1    0    0  501  503 -0.00000000000E+00 -0.00000000000E+00 -0.45732665524E+03  0.45732665524E+03  0.00000000000E+00 0.  1.
          6    2    1    2  501    0 -0.13537132116E+03 -0.22613189921E+02 -0.38743401286E+03  0.44550558907E+03  0.17185274111E+03 0.  0.
         24    2    3    3    0    0  0.10605095866E+01 -0.18682888020E+02 -0.16952525182E+03  0.18833753147E+03  0.79887669708E+02 0.  0.
         -6    2    1    2    0  502  0.13537132116E+03  0.22613189921E+02  0.23365997149E+03  0.31537368003E+03  0.16132831380E+03 0.  0.
        -24    2    5    5    0    0  0.12065365114E+03  0.30182612814E+02  0.93040942702E+02  0.17370608589E+03  0.77774633454E+02 0.  0.
          5    1    3    3  501    0 -0.13643183074E+03 -0.39303019005E+01 -0.21790876104E+03  0.25716805760E+03  0.47000000000E+01 0. -1.
        -13    1    4    4    0    0 -0.20749304040E+02 -0.36268796817E+02 -0.48066856219E+02  0.63689731570E+02  0.00000000000E+00 0.  1.
         14    1    4    4    0    0  0.21809813627E+02  0.17585908797E+02 -0.12145839560E+03  0.12464779990E+03  0.00000000000E+00 0. -1.
         -5    1    5    5    0  502  0.14717670022E+02 -0.75694228928E+01  0.14061902878E+03  0.14166759414E+03  0.47000000000E+01 0.  1.
         13    1    6    6    0    0 -0.61392643241E+01  0.63080224304E+00 -0.71359121191E+01  0.94344962601E+01  0.00000000000E+00 0. -1.
        -14    1    6    6    0    0  0.12679291546E+03  0.29551810571E+02  0.10017685482E+03  0.16427158963E+03  0.00000000000E+00 0.  1.
</event>
<event>
12    1  0.8113184E-002  0.2247291E+03  0.7818608E-02  0.1130805E+00
         21   -1    0    0  503  502  0.00000000000E+00  0.00000000000E+00  0.12680945014E+03  0.12680945014E+03  0.00000000000E+00 0. -1.
         21   -1    0    0  501  503 -0.00000000000E+00 -0.00000000000E+00 -0.45910617548E+03  0.45910617548E+03  0.00000000000E+00 0.  1.
          6    2    1    2  501    0 -0.13047793199E+03 -0.53975319517E+02 -0.27684055183E+03  0.35657237977E+03  0.17482947412E+03 0.  0.
         24    2    3    3    0    0 -0.64822692140E+02 -0.51173296705E+02 -0.59411677056E+02  0.12938112237E+03  0.79931469046E+02 0.  0.
         -6    2    1    2    0  502  0.13047793199E+03  0.53975319517E+02 -0.55456173513E+02  0.22934324585E+03  0.17200323074E+03 0.  0.
        -24    2    5    5    0    0  0.24743592623E+02 -0.22769522924E+02 -0.39036344435E+02  0.97581255317E+02  0.82870794930E+02 0.  0.
          5    1    3    3  501    0 -0.65655239852E+02 -0.28020228126E+01 -0.21742887477E+03  0.22719125739E+03  0.47000000000E+01 0. -1.
        -13    1    4    4    0    0 -0.66260421647E+01 -0.41372373872E+02  0.47938858561E+01  0.42172966415E+02  0.00000000000E+00 0.  1.
         14    1    4    4    0    0 -0.58196649975E+02 -0.98009228323E+01 -0.64205562912E+02  0.87208155958E+02  0.00000000000E+00 0. -1.
         -5    1    5    5    0  502  0.10573433937E+03  0.76744842441E+02 -0.16419829078E+02  0.13176199054E+03  0.47000000000E+01 0.  1.
         11    1    6    6    0    0 -0.13945170417E+02 -0.20269927482E+02  0.16664683507E+02  0.29716147369E+02  0.00000000000E+00 0. -1.
        -12    1    6    6    0    0  0.38688763040E+02 -0.24995954420E+01 -0.55701027942E+02  0.67865107948E+02  0.00000000000E+00 0.  1.
</event>
<event>
12    1  0.8113184E-002  0.1883058E+03  0.7818608E-02  0.1162196E+00
         21   -1    0    0  503  502  0.00000000000E+00  0.00000000000E+00  0.40769828356E+03  0.40769828356E+03  0.00000000000E+00 0. -1.
         21   -1    0    0  501  503 -0.00000000000E+00 -0.00000000000E+00 -0.19563204899E+03  0.19563204899E+03  0.00000000000E+00 0. -1.
          6    2    1    2  501    0  0.31458723045E+02 -0.36449258595E+02 -0.12427962434E+03  0.21785969438E+03  0.17233462131E+03 0.  0.
         24    2    3    3    0    0  0.80338061710E+02 -0.46509332056E+02 -0.56188714401E+02  0.13330878165E+03  0.77438604792E+02 0.  0.
         -6    2    1    2    0  502 -0.31458723045E+02  0.36449258595E+02  0.33634585891E+03  0.38547063817E+03  0.18204635777E+03 0.  0.
        -24    2    5    5    0    0  0.39291457821E+02 -0.26613499614E+02  0.15641085921E+03  0.18204695793E+03  0.80153858257E+02 0.  0.
          5    1    3    3  501    0 -0.48879338665E+02  0.10060073460E+02 -0.68090909944E+02  0.84550912729E+02  0.47000000000E+01 0. -1.
        -11    1    4    4    0    0 -0.11810798512E+02 -0.19687668298E+02 -0.18805623011E+01  0.23035532533E+02  0.00000000000E+00 0.  1.
         12    1    4    4    0    0  0.92148860222E+02 -0.26821663757E+02 -0.54308152100E+02  0.11027324912E+03  0.00000000000E+00 0. -1.
         -5    1    5    5    0  502 -0.70750180866E+02  0.63062758210E+02  0.17993499971E+03  0.20342368025E+03  0.47000000000E+01 0.  1.
         11    1    6    6    0    0 -0.20223416707E+02 -0.14629928267E+02  0.83601307628E+02  0.87247922735E+02  0.00000000000E+00 0. -1.
        -12    1    6    6    0    0  0.59514874529E+02 -0.11983571348E+02  0.72809551580E+02  0.94799035194E+02  0.00000000000E+00 0.  1.
</event>
<event>
12    1  0.8113184E-002  0.4262223E+03  0.7818608E-02  0.1035252E+00
         21   -1    0    0  501  502  0.00000000000E+00  0.00000000000E+00  0.12154506960E+03  0.12154506960E+03  0.00000000000E+00 0. -1.
         21   -1    0    0  502  503 -0.00000000000E+00 -0.00000000000E+00 -0.17421945561E+04  0.17421945561E+04  0.00000000000E+00 0.  1.
         -6    2    1    2    0  503 -0.27176655429E+03  0.27941566498E+03 -0.11655534929E+04  0.12402191463E+04  0.16642839960E+03 0.  0.
        -24    2    3    3    0    0 -0.18489485438E+03  0.12067114007E+03 -0.77445272317E+03  0.80925694551E+03  0.79825761551E+02 0.  0.
          6    2    1    2  501    0  0.27176655429E+03 -0.27941566498E+03 -0.45509599363E+03  0.62352047942E+03  0.17243912250E+03 0.  0.
         24    2    5    5    0    0  0.21917514164E+03 -0.13017449544E+03 -0.30556326575E+03  0.40575705256E+03  0.79288929532E+02 0.  0.
          5    1    5    5  501    0  0.52591412645E+02 -0.14924116954E+03 -0.14953272788E+03  0.21776342686E+03  0.47000000000E+01 0. -1.
        -13    1    6    6    0    0  0.75340394058E+02 -0.24575255511E+02 -0.14722084793E+03  0.16719478528E+03  0.00000000000E+00 0.  1.
         14    1    6    6    0    0  0.14383474758E+03 -0.10559923992E+03 -0.15834241782E+03  0.23856226727E+03  0.00000000000E+00 0. -1.
         -5    1    3    3    0  503 -0.86871699904E+02  0.15874452491E+03 -0.39110076972E+03  0.43096220079E+03  0.47000000000E+01 0.  1.
         11    1    4    4    0    0 -0.53652870484E+02  0.27788625167E+02 -0.10870478797E+03  0.12436868226E+03  0.00000000000E+00 0. -1.
        -12    1    4    4    0    0 -0.13124198390E+03  0.92882514901E+02 -0.66574793520E+03  0.68488826325E+03  0.00000000000E+00 0.  1.
</event>
<event>
12    1  0.8113184E-002  0.1762579E+03  0.7818608E-02  0.1172415E+00
         21   -1    0    0  503  502  0.00000000000E+00  0.00000000000E+00  0.14191628295E+03  0.14191628295E+03  0.00000000000E+00 0. -1.
         21   -1    0    0  501  503 -0.00000000000E+00 -0.00000000000E+00 -0.21987785128E+03  0.21987785128E+03  0.00000000000E+00 0. -1.
          6    2    1    2  501    0  0.15782632410E+02  0.60698437122E+01 -0.67403478577E+02  0.18522027374E+03  0.17168979699E+03 0.  0.
         24    2    3    3    0    0 -0.15212615727E+02 -0.35655249968E+02 -0.91451851018E+02  0.12775634534E+03  0.80346264332E+02 0.  0.
         -6    2    1    2    0  502 -0.15782632410E+02 -0.60698437122E+01 -0.10558089745E+02  0.17657386049E+03  0.17544492145E+03 0.  0.
        -24    2    5    5    0    0  0.49586282906E+02 -0.16859621780E+02 -0.36270177044E+02  0.10535085976E+03  0.83906088040E+02 0.  0.
          5    1    3    3  501    0  0.30995248137E+02  0.41725093680E+02  0.24048372442E+02  0.57463928397E+02  0.47000000000E+01 0. -1.
        -11    1    4    4    0    0 -0.41215626731E+02  0.25061927169E+01 -0.30738473043E+02  0.51476816274E+02  0.00000000000E+00 0.  1.
         12    1    4    4    0    0  0.26003011004E+02 -0.38161442685E+02 -0.60713377976E+02  0.76279529064E+02  0.00000000000E+00 0. -1.
         -5    1    5    5    0  502 -0.65368915317E+02  0.10789778068E+02  0.25712087300E+02  0.71223000735E+02  0.47000000000E+01 0.  1.
         11    1    6    6    0    0  0.29212521662E+02 -0.49741635794E+02 -0.33175907764E+02  0.66545041958E+02  0.00000000000E+00 0. -1.
        -12    1    6    6    0    0  0.20373761244E+02  0.32882014014E+02 -0.30942692806E+01  0.38805817801E+02  0.00000000000E+00 0.  1.
</event>
<event>
12    1  0.8113184E-002  0.2337830E+03  0.7818608E-02  0.1124273E+00
         21   -1    0    0  501  502  0.00000000000E+00  0.00000000000E+00  0.13440439309E+04  0.13440439309E+04  0.00000000000E+00 0. -1.
         21   -1    0    0  502  503 -0.00000000000E+00 -0.00000000000E+00 -0.57751319112E+02  0.57751319112E+02  0.00000000000E+00 0.  1.
         -6    2    1    2    0  503  0.15662749226E+03 -0.33813458510E+01  0.26040730706E+03  0.34995206172E+03  0.17352485443E+03 0.  0.
        -24    2    3    3    0    0  0.10114422111E+03  0.59911345795E+02  0.12145786550E+03  0.18743007705E+03  0.80984553295E+02 0.  0.
          6    2    1    2  501    0 -0.15662749226E+03  0.33813458510E+01  0.10258853047E+04  0.10518431883E+04  0.17143462152E+03 0.  0.
         24    2    5    5    0    0 -0.95079873153E+01  0.22184479659E+02  0.33666116048E+03  0.34682565830E+03  0.79779366492E+02 0.  0.
          5    1    5    5  501    0 -0.14711950494E+03 -0.18803133808E+02  0.68922414421E+03  0.70501752995E+03  0.47000000000E+01 0. -1.
        -11    1    6    6    0    0 -0.30481808264E+02  0.32291350583E+02  0.30086396328E+03  0.30412332426E+03  0.00000000000E+00 0.  1.
         12    1    6    6    0    0  0.20973820948E+02 -0.10106870924E+02  0.35797197198E+02  0.42702334038E+02  0.00000000000E+00 0. -1.
         -5    1    3    3    0  503  0.55483271153E+02 -0.63292691646E+02  0.13894944155E+03  0.16252198467E+03  0.47000000000E+01 0.  1.
         13    1    4    4    0    0  0.14580025874E+02  0.42142741722E+02  0.10920636401E+02  0.45911307254E+02  0.00000000000E+00 0. -1.
        -14    1    4    4    0    0  0.86564195233E+02  0.17768604072E+02  0.11053722910E+03  0.14151876980E+03  0.00000000000E+00 0.  1.
</event>
<event>
12    1  0.8113184E-002  0.2044412E+03  0.7818608E-02  0.1146210E+00
         21   -1    0    0  503  502  0.00000000000E+00  0.00000000000E+00  0.14123182881E+03  0.14123182881E+03  0.00000000000E+00 0. -1.
         21   -1    0    0  501  503 -0.00000000000E+00 -0.00000000000E+00 -0.32845645680E+03  0.32845645680E+03  0.00000000000E+00 0. -1.
          6    2    1    2  501    0 -0.10798510447E+03  0.18947910777E+02 -0.16864669778E+03  0.26440468573E+03  0.17160513703E+03 0.  0.
         24    2    3    3    0    0  0.66028978903E+01  0.32808308035E+02 -0.48386292354E+02  0.97649847690E+02  0.77937642571E+02 0.  0.
         -6    2    1    2    0  502  0.10798510447E+03 -0.18947910777E+02 -0.18577930207E+02  0.20528359988E+03  0.17255842715E+03 0.  0.
        -24    2    5    5    0    0  0.11752200346E+03 -0.64274758914E+02 -0.54557981000E+01  0.15691257596E+03  0.81542165976E+02 0.  0.
          5    1    3    3  501    0 -0.11458800236E+03 -0.13860397257E+02 -0.12026040542E+03  0.16675483804E+03  0.47000000000E+01 0. -1.
        -13    1    4    4    0    0  0.36516427958E+02 -0.20576947963E+01 -0.10358669132E+02  0.38012966799E+02  0.00000000000E+00 0.  1.
         14    1    4    4    0    0 -0.29913530068E+02  0.34866002831E+02 -0.38027623222E+02  0.59636880891E+02  0.00000000000E+00 0. -1.
         -5    1    5    5    0  502 -0.95368989902E+01  0.45326848136E+02 -0.13122132107E+02  0.48371023923E+02  0.47000000000E+01 0.  1.
         11    1    6    6    0    0  0.68921796832E+02 -0.71280152134E+02 -0.27785226234E+02  0.10297132107E+03  0.00000000000E+00 0. -1.
        -12    1    6    6    0    0  0.48600206623E+02  0.70053932200E+01  0.22329428134E+02  0.53941254887E+02  0.00000000000E+00 0.  1.
</event>
<event>
12    1  0.8113184E-002  0.2067065E+03  0.7818608E-02  0.1144206E+00
         21   -1    0    0  501  502  0.00000000000E+00  0.00000000000E+00  0.51601238114E+03  0.51601238114E+03  0.00000000000E+00 0. -1.
         21   -1    0    0  502  503 -0.00000000000E+00 -0.00000000000E+00 -0.19601967105E+03  0.19601967105E+03  0.00000000000E+00 0. -1.
         -6    2    1    2    0  503 -0.11181060846E+03 -0.27100516037E+02 -0.11057799113E+03  0.23442497033E+03  0.17173096534E+03 0.  0.
        -24    2    3    3    0    0 -0.63304738565E+02 -0.21580403841E+01 -0.13865747509E+03  0.17289860260E+03  0.81583603259E+02 0.  0.
          6    2    1    2  501    0  0.11181060846E+03  0.27100516037E+02  0.43057070122E+03  0.47760708186E+03  0.17170132720E+03 0.  0.
         24    2    5    5    0    0  0.10139657028E+03  0.40707809494E+02  0.17453463900E+03  0.22095524418E+03  0.80127957071E+02 0.  0.
          5    1    5    5  501    0  0.10414038186E+02 -0.13607293458E+02  0.25603606222E+03  0.25665183768E+03  0.47000000000E+01 0. -1.
        -11    1    6    6    0    0  0.25486650328E+02  0.11173529996E+02 -0.56865448284E+00  0.27834160405E+02  0.00000000000E+00 0.  1.
         12    1    6    6    0    0  0.75909919951E+02  0.29534279498E+02  0.17510329348E+03  0.19312108378E+03  0.00000000000E+00 0. -1.
         -5    1    3    3    0  503 -0.48505869900E+02 -0.24942475652E+02  0.28079483961E+02  0.61526367729E+02  0.47000000000E+01 0.  1.
         11    1    4    4    0    0 -0.59868579853E+02  0.26370311823E+02 -0.12499933301E+03  0.14108321464E+03  0.00000000000E+00 0. -1.
        -12    1    4    4    0    0 -0.34361587121E+01 -0.28528352207E+02 -0.13658142079E+02  0.31815387966E+02  0.00000000000E+00 0.  1.
</event>
<event>
12    1  0.8113184E-002  0.1857772E+03  0.7818608E-02  0.1162643E+00
         21   -1    0    0  501  502  0.00000000000E+00  0.00000000000E+00  0.20204317834E+03  0.20204317834E+03  0.00000000000E+00 0.  1.
         21   -1    0    0  502  503 -0.00000000000E+00 -0.00000000000E+00 -0.19247280117E+03  0.19247280117E+03  0.00000000000E+00 0.  1.
         -6    2    1    2    0  503 -0.11209115985E+02  0.67515464225E+02 -0.63240773615E+02  0.19624621234E+03  0.17271131469E+03 0.  0.
        -24    2    3    3    0    0  0.38902159118E+02 -0.27074722477E+01 -0.24147831566E+01  0.90584999903E+02  0.81725777083E+02 0.  0.
          6    2    1    2  501    0  0.11209115985E+02 -0.67515464225E+02  0.72811150785E+02  0.19826976716E+03  0.17124676551E+03 0.  0.
         24    2    5    5    0    0  0.18296680346E+02  0.25261813426E+02  0.61453329277E+02  0.10441377680E+03  0.78439769103E+02 0.  0.
          5    1    5    5  501    0 -0.70875643610E+01 -0.92777277651E+02  0.11357821508E+02  0.93855990359E+02  0.47000000000E+01 0. -1.
        -11    1    6    6    0    0  0.11247932320E+02 -0.26424378229E+02  0.81963052434E+01  0.29865417558E+02  0.00000000000E+00 0.  1.
         12    1    6    6    0    0  0.70487480251E+01  0.51686191655E+02  0.53257024034E+02  0.74548359240E+02  0.00000000000E+00 0. -1.
         -5    1    3    3    0  503 -0.50111275102E+02  0.70222936472E+02 -0.60825990459E+02  0.10566121244E+03  0.47000000000E+01 0.  1.
         11    1    4    4    0    0  0.30604641854E+01  0.31205415442E+02  0.19144715442E+02  0.36737780598E+02  0.00000000000E+00 0. -1.
        -12    1    4    4    0    0  0.35841694932E+02 -0.33912887690E+02 -0.21559498598E+02  0.53847219305E+02  0.00000000000E+00 0.  1.
</event>
<event>
12    1  0.8113184E-002  0.3097146E+03  0.7818608E-02  0.1080514E+00
         21   -1    0    0  501  502  0.00000000000E+00  0.00000000000E+00  0.45907013409E+03  0.45907013409E+03  0.00000000000E+00 0.  1.
         21   -1    0    0  502  503 -0.00000000000E+00 -0.00000000000E+00 -0.26830796729E+03  0.26830796729E+03  0.00000000000E+00 0. -1.
         -6    2    1    2    0  503 -0.21709649513E+03 -0.13907279219E+03  0.26666432858E+03  0.40849840902E+03  0.17114016568E+03 0.  0.
        -24    2    3    3    0    0 -0.92176379613E+02 -0.46233621153E+02  0.44759903713E+02  0.13741205614E+03  0.79022727808E+02 0.  0.
          6    2    1    2  501    0  0.21709649513E+03  0.13907279219E+03 -0.75902161784E+02  0.31887969236E+03  0.17161290834E+03 0.  0.
         24    2    5    5    0    0  0.11457125783E+03  0.14252519173E+03 -0.79370886388E+02  0.21613016488E+03  0.83501539914E+02 0.  0.
          5    1    5    5  501    0  0.10252523730E+03 -0.34523995347E+01  0.34687246043E+01  0.10274952748E+03  0.47000000000E+01 0. -1.
        -13    1    6    6    0    0  0.51720937339E+02  0.72091898568E+02 -0.83229781161E+02  0.12165316959E+03  0.00000000000E+00 0.  1.
         14    1    6    6    0    0  0.62850320491E+02  0.70433293158E+02  0.38588947729E+01  0.94476995294E+02  0.00000000000E+00 0. -1.
         -5    1    3    3    0  503 -0.12492011552E+03 -0.92839171038E+02  0.22190442486E+03  0.27108635287E+03  0.47000000000E+01 0.  1.
         13    1    4    4    0    0 -0.41739045702E+01 -0.39518710489E+02  0.32258753815E+01  0.39869239145E+02  0.00000000000E+00 0. -1.
        -14    1    4    4    0    0 -0.88002475043E+02 -0.67149106642E+01  0.41534028331E+02  0.97542817000E+02  0.00000000000E+00 0.  1.
</event>
<event>
12    1  0.8113184E-002  0.2764567E+03  0.7818608E-02  0.1097642E+00
         21   -1    0    0  501  502  0.00000000000E+00  0.00000000000E+00  0.77734643672E+03  0.77734643672E+03  0.00000000000E+00 0.  1.
         21   -1    0    0  502  503 -0.00000000000E+00 -0.00000000000E+00 -0.12370637704E+03  0.12370637704E+03  0.00000000000E+00 0. -1.
         -6    2    1    2    0  503 -0.21430584478E+03 -0.23604493012E+02  0.12271385885E+03  0.30246821580E+03  0.17304381877E+03 0.  0.
        -24    2    3    3    0    0 -0.55960580528E+02 -0.34978509881E+02  0.96981850229E+02  0.14157440846E+03  0.79263807188E+02 0.  0.
          6    2    1    2  501    0  0.21430584478E+03  0.23604493012E+02  0.53092620083E+03  0.59858459796E+03  0.17302231933E+03 0.  0.
         24    2    5    5    0    0  0.20369065498E+03  0.62616566871E+02  0.49213364271E+03  0.54235669807E+03  0.80898382377E+02 0.  0.
          5    1    5    5  501    0  0.10615189800E+02 -0.39012073859E+02  0.38792558119E+02  0.56227899895E+02  0.47000000000E+01 0. -1.
        -11    1    6    6    0    0  0.64337272600E+02  0.21238110173E+02  0.25815730983E+03  0.26689986622E+03  0.00000000000E+00 0.  1.
         12    1    6    6    0    0  0.13935338238E+03  0.41378456698E+02  0.23397633288E+03  0.27545683184E+03  0.00000000000E+00 0. -1.
         -5    1    3    3    0  503 -0.15834526426E+03  0.11374016868E+02  0.25732008619E+02  0.16089380734E+03  0.47000000000E+01 0.  1.
         13    1    4    4    0    0 -0.72139374441E+01  0.76891173198E+01 -0.11261114954E+02  0.15426474925E+02  0.00000000000E+00 0. -1.
        -14    1    4    4    0    0 -0.48746643084E+02 -0.42667627200E+02  0.10824296518E+03  0.12614793353E+03  0.00000000000E+00 0.  1.
</event>
<event>
12    1  0.8113184E-002  0.2369137E+03  0.7818608E-02  0.1122149E+00
         21   -1    0    0  501  502  0.00000000000E+00  0.00000000000E+00  0.18479776144E+03  0.18479776144E+03  0.00000000000E+00 0.  1.
         21   -1    0    0  502  503 -0.00000000000E+00 -0.00000000000E+00 -0.79231129994E+03  0.79231129994E+03  0.00000000000E+00 0. -1.
         -6    2    1    2    0  503 -0.10608023650E+02 -0.16266422667E+03 -0.68865039815E+03  0.72826331278E+03  0.17191829765E+03 0.  0.
        -24    2    3    3    0    0  0.13179835778E+02 -0.17927312461E+02 -0.97385997393E+02  0.11905865243E+03  0.64775254745E+02 0.  0.
          6    2    1    2  501    0  0.10608023650E+02  0.16266422667E+03  0.81136859644E+02  0.24884574861E+03  0.16961378424E+03 0.  0.
         24    2    5    5    0    0  0.26435228036E+02  0.18247476835E+03  0.47358133076E+02  0.20634809774E+03  0.79629657205E+02 0.  0.
          5    1    5    5  501    0 -0.15827204385E+02 -0.19810541683E+02  0.33778726568E+02  0.42497650865E+02  0.47000000000E+01 0. -1.
        -11    1    6    6    0    0  0.37836613218E+02  0.11201333245E+03  0.61973861152E+02  0.13348915840E+03  0.00000000000E+00 0.  1.
         12    1    6    6    0    0 -0.11401385183E+02  0.70461435906E+02 -0.14615728076E+02  0.72858939337E+02  0.00000000000E+00 0. -1.
         -5    1    3    3    0  503 -0.23787859428E+02 -0.14473691421E+03 -0.59126440075E+03  0.60920466035E+03  0.47000000000E+01 0.  1.
         13    1    4    4    0    0 -0.67239500913E+01 -0.31729691382E+02 -0.86731366526E+02  0.92597595863E+02  0.00000000000E+00 0. -1.
        -14    1    4    4    0    0  0.19903785869E+02  0.13802378922E+02 -0.10654630867E+02  0.26461056569E+02  0.00000000000E+00 0.  1.
</event>
<event>
12    1  0.8113184E-002  0.1946445E+03  0.7818608E-02  0.1155898E+00
         21   -1    0    0  501  502  0.00000000000E+00  0.00000000000E+00  0.49337231630E+02  0.49337231630E+02  0.00000000000E+00 0. -1.
         21   -1    0    0  502  503 -0.00000000000E+00 -0.00000000000E+00 -0.77923149966E+03  0.77923149966E+03  0.00000000000E+00 0. -1.
         -6    2    1    2    0  503  0.35771835615E+02 -0.84338163496E+02 -0.27899501218E+03  0.34018332747E+03  0.17173796732E+03 0.  0.
        -24    2    3    3    0    0  0.16449340967E+02 -0.10062631311E+02 -0.43732958284E+02  0.92674666032E+02  0.79398896194E+02 0.  0.
          6    2    1    2  501    0 -0.35771835615E+02  0.84338163496E+02 -0.45089925585E+03  0.48838540382E+03  0.16376084299E+03 0.  0.
         24    2    5    5    0    0 -0.49923011260E+02 -0.92570112206E+01 -0.23282938400E+03  0.25061057019E+03  0.77576649358E+02 0.  0.
          5    1    5    5  501    0  0.14151175645E+02  0.93595174717E+02 -0.21806987185E+03  0.23777483364E+03  0.47000000000E+01 0. -1.
        -13    1    6    6    0    0 -0.16721085357E+02 -0.42375828581E+02 -0.10528918215E+03  0.11472191343E+03  0.00000000000E+00 0.  1.
         14    1    6    6    0    0 -0.33201925904E+02  0.33118817361E+02 -0.12754020185E+03  0.13588865675E+03  0.00000000000E+00 0. -1.
         -5    1    3    3    0  503  0.19322494648E+02 -0.74275532185E+02 -0.23526205390E+03  0.24750866144E+03  0.47000000000E+01 0.  1.
         13    1    4    4    0    0  0.34316214069E+02  0.23305245087E+02 -0.33889936439E+02  0.53565518652E+02  0.00000000000E+00 0. -1.
        -14    1    4    4    0    0 -0.17866873103E+02 -0.33367876398E+02 -0.98430218449E+01  0.39109147381E+02  0.00000000000E+00 0.  1.
</event>
<event>
12    1  0.8113184E-002  0.1843615E+03  0.7818608E-02  0.1163751E+00
         21   -1    0    0  503  502  0.00000000000E+00  0.00000000000E+00  0.43431068142E+03  0.43431068142E+03  0.00000000000E+00 0. -1.
         21   -1    0    0  501  503 -0.00000000000E+00 -0.00000000000E+00 -0.12276815006E+03  0.12276815006E+03  0.00000000000E+00 0. -1.
          6    2    1    2  501    0 -0.54545836841E+02 -0.33688535344E+02 -0.12174677275E+02  0.18476307246E+03  0.17285544379E+03 0.  0.
         24    2    3    3    0    0  0.31213050435E+02 -0.33733492678E+02 -0.30174186191E+02  0.97009661766E+02  0.79926152904E+02 0.  0.
         -6    2    1    2    0  502  0.54545836841E+02  0.33688535344E+02  0.32371720863E+03  0.37231575901E+03  0.17238337366E+03 0.  0.
        -24    2    5    5    0    0  0.69504415550E+02 -0.60699404774E+01  0.10267219401E+03  0.14717694858E+03  0.79068115010E+02 0.  0.
          5    1    3    3  501    0 -0.85758887276E+02  0.44957334135E-01  0.17999508916E+02  0.87753410699E+02  0.47000000000E+01 0. -1.
        -11    1    4    4    0    0  0.25320735155E+02 -0.57784870773E+02 -0.76786229831E+01  0.63554639248E+02  0.00000000000E+00 0.  1.
         12    1    4    4    0    0  0.58923152799E+01  0.24051378095E+02 -0.22495563208E+02  0.33455022518E+02  0.00000000000E+00 0. -1.
         -5    1    5    5    0  502 -0.14958578709E+02  0.39758475821E+02  0.22104501462E+03  0.22513881044E+03  0.47000000000E+01 0.  1.
         11    1    6    6    0    0  0.57010757844E+00 -0.18605629592E+02 -0.44846616897E+01  0.19146975365E+02  0.00000000000E+00 0. -1.
        -12    1    6    6    0    0  0.68934307972E+02  0.12535689114E+02  0.10715685570E+03  0.12802997321E+03  0.00000000000E+00 0.  1.
</event>
<event>
12    1  0.8113184E-002  0.2257336E+03  0.7818608E-02  0.1129954E+00
         21   -1    0    0  501  502  0.00000000000E+00  0.00000000000E+00  0.27036895840E+03  0.27036895840E+03  0.00000000000E+00 0. -1.
         21   -1    0    0  502  503 -0.00000000000E+00 -0.00000000000E+00 -0.23383808137E+03  0.23383808137E+03  0.00000000000E+00 0. -1.
         -6    2    1    2    0  503 -0.27416330386E+01 -0.14297318666E+03 -0.94268642875E+02  0.24462676250E+03  0.17466203723E+03 0.  0.
        -24    2    3    3    0    0  0.64626526263E+02 -0.61497633056E+02 -0.51645000609E+02  0.13054083172E+03  0.80094668301E+02 0.  0.
          6    2    1    2  501    0  0.27416330386E+01  0.14297318666E+03  0.13079951991E+03  0.25958027726E+03  0.17269787862E+03 0.  0.
         24    2    5    5    0    0 -0.16564129561E+02  0.57422846824E+02 -0.37746529200E+01  0.98882202887E+02  0.78687281803E+02 0.  0.
          5    1    5    5  501    0  0.19305762600E+02  0.85550339832E+02  0.13457417283E+03  0.16069807437E+03  0.47000000000E+01 0. -1.
        -11    1    6    6    0    0 -0.41396902460E+02  0.10091449190E+02 -0.13200726084E+02  0.44607174862E+02  0.00000000000E+00 0.  1.
         12    1    6    6    0    0  0.24832772899E+02  0.47331397634E+02  0.94260731638E+01  0.54275028025E+02  0.00000000000E+00 0. -1.
         -5    1    3    3    0  503 -0.67368159302E+02 -0.81475553601E+02 -0.42623642266E+02  0.11408593078E+03  0.47000000000E+01 0.  1.
         11    1    4    4    0    0  0.53830449302E+02  0.76433996812E-01 -0.39724391056E+02  0.66901049012E+02  0.00000000000E+00 0. -1.
        -12    1    4    4    0    0  0.10796076962E+02 -0.61574067053E+02 -0.11920609553E+02  0.63639782709E+02  0.00000000000E+00 0.  1.
</event>
<event>
12    1  0.8113184E-002  0.2985579E+03  0.7818608E-02  0.1086975E+00
         21   -1    0    0  503  502  0.00000000000E+00  0.00000000000E+00  0.17822648103E+03  0.17822648103E+03  0.00000000000E+00 0.  1.
         21   -1    0    0  501  503 -0.00000000000E+00 -0.00000000000E+00 -0.53732790433E+03  0.53732790433E+03  0.00000000000E+00 0. -1.
          6    2    1    2  501    0 -0.22134690665E+03 -0.75250042691E+02 -0.72187296379E+02  0.30716093893E+03  0.18568741108E+03 0.  0.
         24    2    3    3    0    0 -0.10962709200E+03 -0.10565538358E+03 -0.24566082416E+01  0.17191944896E+03  0.79806657777E+02 0.  0.
         -6    2    1    2    0  502  0.22134690665E+03  0.75250042691E+02 -0.28691412692E+03  0.40839344644E+03  0.17265129266E+03 0.  0.
        -24    2    5    5    0    0  0.13636856436E+03  0.27526539334E+02 -0.25732145572E+03  0.30642939581E+03  0.91271832073E+02 0.  0.
          5    1    3    3  501    0 -0.11171981465E+03  0.30405340891E+02 -0.69730688138E+02  0.13524148997E+03  0.47000000000E+01 0. -1.
        -11    1    4    4    0    0  0.55565085442E+01  0.65057676427E+01 -0.70447179449E+01  0.11082772701E+02  0.00000000000E+00 0.  1.
         12    1    4    4    0    0 -0.11518360055E+03 -0.11216115123E+03  0.45881097033E+01  0.16083667626E+03  0.00000000000E+00 0. -1.
         -5    1    5    5    0  502  0.84978342295E+02  0.47723503358E+02 -0.29592671203E+02  0.10196405063E+03  0.47000000000E+01 0.  1.
         13    1    6    6    0    0  0.99102677774E+02 -0.19810263825E+02 -0.12284395929E+03  0.15907364844E+03  0.00000000000E+00 0. -1.
        -14    1    6    6    0    0  0.37265886585E+02  0.47336803159E+02 -0.13447749643E+03  0.14735574737E+03  0.00000000000E+00 0.  1.
</event>
<event>
12    1  0.8113184E-002  0.2260339E+03  0.7818608E-02  0.1129615E+00
         21   -1    0    0  501  502  0.00000000000E+00  0.00000000000E+00  0.18865567557E+03  0.18865567557E+03  0.00000000000E+00 0.  1.
         21   -1    0    0  502  503 -0.00000000000E+00 -0.00000000000E+00 -0.27090858271E+03  0.27090858271E+03  0.00000000000E+00 0.  1.
         -6    2    1    2    0  503 -0.76678347251E+02 -0.12392379776E+03 -0.26549371158E+02  0.22758773758E+03  0.17278493163E+03 0.  0.
        -24    2    3    3    0    0  0.19147301779E+02 -0.81379843302E+02  0.94605736657E+01  0.11663121817E+03  0.80771532956E+02 0.  0.
          6    2    1    2  501    0  0.76678347251E+02  0.12392379776E+03 -0.55703535979E+02  0.23197652070E+03  0.17167861150E+03 0.  0.
         24    2    5    5    0    0  0.53068471859E+02 -0.38168647414E+01 -0.33152503111E+02  0.10004569733E+03  0.77969365329E+02 0.  0.
          5    1    5    5  501    0  0.23609875392E+02  0.12774066250E+03 -0.22551032868E+02  0.13193082337E+03  0.47000000000E+01 0. -1.
        -13    1    6    6    0    0  0.31702910233E+02 -0.23546271428E+02  0.16262754328E+02  0.42708062398E+02  0.00000000000E+00 0.  1.
         14    1    6    6    0    0  0.21365561625E+02  0.19729406687E+02 -0.49415257439E+02  0.57337634932E+02  0.00000000000E+00 0. -1.
         -5    1    3    3    0  503 -0.95825649030E+02 -0.42543954456E+02 -0.36009944824E+02  0.11095651941E+03  0.47000000000E+01 0.  1.
         13    1    4    4    0    0  0.13060629143E+02 -0.81398466252E+02 -0.21403438189E+02  0.85172750972E+02  0.00000000000E+00 0. -1.
        -14    1    4    4    0    0  0.60866726358E+01  0.18622949418E-01  0.30864011855E+02  0.31458467197E+02  0.00000000000E+00 0.  1.
</event>
<event>
12    1  0.8113184E-002  0.2005755E+03  0.7818608E-02  0.1149340E+00
         21   -1    0    0  503  502  0.00000000000E+00  0.00000000000E+00  0.17891576630E+03  0.17891576630E+03  0.00000000000E+00 0. -1.
         21   -1    0    0  501  503 -0.00000000000E+00 -0.00000000000E+00 -0.22664665491E+03  0.22664665491E+03  0.00000000000E+00 0. -1.
          6    2    1    2  501    0 -0.72681969317E+01  0.10230610760E+03 -0.44065502280E+02  0.20535897742E+03  0.17236929766E+03 0.  0.
         24    2    3    3    0    0  0.35340367980E+02  0.16083790612E+02  0.18914575958E+02  0.90300913792E+02  0.79302357585E+02 0.  0.
         -6    2    1    2    0  502  0.72681969317E+01 -0.10230610760E+03 -0.36653863341E+01  0.20020344379E+03  0.17189711316E+03 0.  0.
        -24    2    5    5    0    0 -0.28864880015E+02 -0.12301291846E+03  0.21980239329E+02  0.15106934788E+03  0.79833937280E+02 0.  0.
          5    1    3    3  501    0 -0.42608564912E+02  0.86222316987E+02 -0.62980078238E+02  0.11505806363E+03  0.47000000000E+01 0. -1.
        -13    1    4    4    0    0 -0.53370327994E+01  0.37558112731E+02 -0.53246580448E+01  0.38307280435E+02  0.00000000000E+00 0.  1.
         14    1    4    4    0    0  0.40677400779E+02 -0.21474322118E+02  0.24239234003E+02  0.51993633357E+02  0.00000000000E+00 0. -1.
         -5    1    5    5    0  502  0.36133076947E+02  0.20706810861E+02 -0.25645625663E+02  0.49134095915E+02  0.47000000000E+01 0.  1.
         13    1    6    6    0    0 -0.24939847177E+02 -0.12988706182E+03  0.34107903155E+02  0.13658694616E+03  0.00000000000E+00 0. -1.
        -14    1    6    6    0    0 -0.39250328380E+01  0.68741433555E+01 -0.12127663826E+02  0.14482401718E+02  0.00000000000E+00 0.  1.
</event>
<event>
12    1  0.8113184E-002  0.1791827E+03  0.7818608E-02  0.1168881E+00
         21   -1    0    0  503  502  0.00000000000E+00  0.00000000000E+00  0.62796415648E+03  0.62796415648E+03  0.00000000000E+00 0.  1.
         21   -1    0    0  501  503 -0.00000000000E+00 -0.00000000000E+00 -0.51189033436E+02  0.51189033436E+02  0.00000000000E+00 0. -1.
          6    2    1    2  501    0 -0.14176450529E+02 -0.44306927479E+02  0.25767743077E+03  0.31318899358E+03  0.17183018303E+03 0.  0.
         24    2    3    3    0    0  0.53256483825E+02 -0.20938019590E+01  0.11910835296E+03  0.15333709986E+03  0.80528438285E+02 0.  0.
         -6    2    1    2    0  502  0.14176450529E+02  0.44306927479E+02  0.31909769227E+03  0.36596419633E+03  0.17303866681E+03 0.  0.
        -24    2    5    5    0    0  0.25577030446E+02 -0.33649045441E+02  0.21343227934E+03  0.23407645457E+03  0.86325002031E+02 0.  0.
          5    1    3    3  501    0 -0.67432934354E+02 -0.42213125519E+02  0.13856907780E+03  0.15985189372E+03  0.47000000000E+01 0. -1.
        -11    1    4    4    0    0  0.47696479956E+02 -0.28957793011E+02  0.11179369766E+03  0.12494534331E+03  0.00000000000E+00 0.  1.
         12    1    4    4    0    0  0.55600038696E+01  0.26863991052E+02  0.73146553000E+01  0.28391756558E+02  0.00000000000E+00 0. -1.
         -5    1    5    5    0  502 -0.11400579917E+02  0.77955972919E+02  0.10566541293E+03  0.13188774176E+03  0.47000000000E+01 0.  1.
         13    1    6    6    0    0  0.15280848919E+02 -0.33994828180E+02  0.23925260362E+02  0.44289623729E+02  0.00000000000E+00 0. -1.
        -14    1    6    6    0    0  0.10296181526E+02  0.34578273870E+00  0.18950701898E+03  0.18978683084E+03  0.00000000000E+00 0.  1.
</event>
<event>
12    1  0.8113184E-002  0.1773861E+03  0.7818608E-02  0.1170639E+00
         21   -1    0    0  503  502  0.00000000000E+00  0.00000000000E+00  0.34501744904E+03  0.34501744904E+03  0.00000000000E+00 0.  1.
         21   -1    0    0  501  503 -0.00000000000E+00 -0.00000000000E+00 -0.22679182497E+03  0.22679182497E+03  0.00000000000E+00 0.  1.
          6    2    1    2  501    0 -0.35466736450E+02 -0.23786207915E+02 -0.16235337977E+03  0.24046715952E+03  0.17216899200E+03 0.  0.
         24    2    3    3    0    0 -0.61639809609E+02 -0.65793461879E+02 -0.83820601719E+02  0.14752025870E+03  0.81290145157E+02 0.  0.
         -6    2    1    2    0  502  0.35466736450E+02  0.23786207915E+02  0.28057900384E+03  0.33134211449E+03  0.17099516473E+03 0.  0.
        -24    2    5    5    0    0 -0.50460987953E+01  0.69606420031E+02  0.22253868118E+03  0.24689360525E+03  0.81009078949E+02 0.  0.
          5    1    3    3  501    0  0.26173073160E+02  0.42007253964E+02 -0.78532778048E+02  0.92946900821E+02  0.47000000000E+01 0. -1.
        -13    1    4    4    0    0  0.78523160159E+01  0.12845800382E+02 -0.37435511437E+01  0.15514110655E+02  0.00000000000E+00 0.  1.
         14    1    4    4    0    0 -0.69492125625E+02 -0.78639262261E+02 -0.80077050575E+02  0.13200614804E+03  0.00000000000E+00 0. -1.
         -5    1    5    5    0  502  0.40512835245E+02 -0.45820212116E+02  0.58040322659E+02  0.84448509237E+02  0.47000000000E+01 0.  1.
         13    1    6    6    0    0  0.15309777209E+01  0.60276174824E+02  0.63943708812E+02  0.87888332792E+02  0.00000000000E+00 0. -1.
        -14    1    6    6    0    0 -0.65770765162E+01  0.93302452068E+01  0.15859497236E+03  0.15900527246E+03  0.00000000000E+00 0.  1.
</event>
<event>
12    1  0.8113184E-002  0.1854719E+03  0.7818608E-02  0.1162625E+00
         21   -1    0    0  503  502  0.00000000000E+00  0.00000000000E+00  0.36430598670E+03  0.36430598670E+03  0.00000000000E+00 0.  1.
         21   -1    0    0  501  503 -0.00000000000E+00 -0.00000000000E+00 -0.11239497180E+03  0.11239497180E+03  0.00000000000E+00 0.  1.
          6    2    1    2  501    0 -0.39676017684E+02 -0.54935570676E+02  0.30582244430E+02  0.18797628248E+03  0.17264908282E+03 0.  0.
         24    2    3    3    0    0 -0.49849223084E+02 -0.34369392718E+02  0.84237219851E+02  0.12943221215E+03  0.77398889755E+02 0.  0.
         -6    2    1    2    0  502  0.39676017684E+02  0.54935570676E+02  0.22132877047E+03  0.28872467602E+03  0.17257870842E+03 0.  0.
        -24    2    5    5    0    0 -0.33174120409E+02 -0.95238797734E+01  0.12167453686E+03  0.14938616860E+03  0.79500364145E+02 0.  0.
          5    1    3    3  501    0  0.10173205400E+02 -0.20566177958E+02 -0.53654975421E+02  0.58544070335E+02  0.47000000000E+01 0. -1.
        -13    1    4    4    0    0 -0.57998000739E+01 -0.36498256568E+02  0.31020897061E+01  0.37086161488E+02  0.00000000000E+00 0.  1.
         14    1    4    4    0    0 -0.44049423010E+02  0.21288638496E+01  0.81135130145E+02  0.92346050660E+02  0.00000000000E+00 0. -1.
         -5    1    5    5    0  502  0.72850138093E+02  0.64459450449E+02  0.99654233614E+02  0.13933850742E+03  0.47000000000E+01 0.  1.
         11    1    6    6    0    0  0.13300976725E+02 -0.21587825853E+02  0.89979924782E+01  0.26905651368E+02  0.00000000000E+00 0. -1.
        -12    1    6    6    0    0 -0.46475097134E+02  0.12063946080E+02  0.11267654438E+03  0.12248051724E+03  0.00000000000E+00 0.  1.
</event>
<event>
12    1  0.8113184E-002  0.2368686E+03  0.7818608E-02  0.1122537E+00
         21   -1    0    0  501  502  0.00000000000E+00  0.00000000000E+00  0.21395732478E+03  0.21395732478E+03  0.00000000000E+00 0. -1.
         21   -1    0    0  502  503 -0.00000000000E+00 -0.00000000000E+00 -0.26119074512E+03  0.26119074512E+03  0.00000000000E+00 0.  1.
         -6    2    1    2    0  503 -0.83524283875E+02 -0.13380577440E+03  0.20478078326E+01  0.23687741256E+03  0.17670999916E+03 0.  0.
        -24    2    3    3    0    0 -0.15128548202E+02 -0.14659754564E+03  0.93386144442E+01  0.16675714494E+03  0.77466265619E+02 0.  0.
          6    2    1    2  501    0  0.83524283875E+02  0.13380577440E+03 -0.49281228171E+02  0.23827065733E+03  0.17165073678E+03 0.  0.
         24    2    5    5    0    0 -0.23591893812E+02  0.55719735848E+02 -0.12377548532E+02  0.10059249454E+03  0.79400124898E+02 0.  0.
          5    1    5    5  501    0  0.10711617769E+03  0.78086038550E+02 -0.36903679639E+02  0.13767816279E+03  0.47000000000E+01 0. -1.
        -13    1    6    6    0    0  0.12543285317E+02 -0.55619471195E+01 -0.24829860351E+02  0.28368842546E+02  0.00000000000E+00 0.  1.
         14    1    6    6    0    0 -0.36135179129E+02  0.61281682967E+02  0.12452311819E+02  0.72223651996E+02  0.00000000000E+00 0. -1.
         -5    1    3    3    0  503 -0.68395735673E+02  0.12791771247E+02 -0.72908066117E+01  0.70120267619E+02  0.47000000000E+01 0.  1.
         13    1    4    4    0    0 -0.42515592261E+02 -0.67308275053E+02  0.20298246998E+02  0.82158373323E+02  0.00000000000E+00 0. -1.
        -14    1    4    4    0    0  0.27387044059E+02 -0.79289270592E+02 -0.10959632554E+02  0.84598771617E+02  0.00000000000E+00 0.  1.
</event>
<event>
12    1  0.8113184E-002  0.2105309E+03  0.7818608E-02  0.1141479E+00
         21   -1    0    0  501  502  0.00000000000E+00  0.00000000000E+00  0.11847440254E+04  0.11847440254E+04  0.00000000000E+00 0. -1.
         21   -1    0    0  502  503 -0.00000000000E+00 -0.00000000000E+00 -0.41793090558E+02  0.41793090558E+02  0.00000000000E+00 0. -1.
         -6    2    1    2    0  503  0.11658664756E+03  0.33803527845E+02  0.36830359418E+03  0.42422967435E+03  0.17201207584E+03 0.  0.
        -24    2    3    3    0    0  0.70099422610E+02  0.87285306670E+02  0.21254553136E+03  0.25304548442E+03  0.79522075393E+02 0.  0.
          6    2    1    2  501    0 -0.11658664756E+03 -0.33803527845E+02  0.77464734071E+03  0.80230744165E+03  0.16995176838E+03 0.  0.
         24    2    5    5    0    0 -0.48073079073E+02 -0.15078638108E+02  0.17122028980E+03  0.19469652476E+03  0.77794362605E+02 0.  0.
          5    1    5    5  501    0 -0.68513568486E+02 -0.18724889737E+02  0.60342705091E+03  0.60761091689E+03  0.47000000000E+01 0. -1.
        -11    1    6    6    0    0  0.54163088011E+01  0.21892932502E+02  0.20215155957E+02  0.30286786308E+02  0.00000000000E+00 0.  1.
         12    1    6    6    0    0 -0.53489387874E+02 -0.36971570609E+02  0.15100513385E+03  0.16440973845E+03  0.00000000000E+00 0. -1.
         -5    1    3    3    0  503  0.46487224949E+02 -0.53481778825E+02  0.15575806282E+03  0.17118418993E+03  0.47000000000E+01 0.  1.
         11    1    4    4    0    0  0.53575103852E+02  0.21243461177E+02  0.48108761142E+02  0.75073492620E+02  0.00000000000E+00 0. -1.
        -12    1    4    4    0    0  0.16524318758E+02  0.66041845493E+02  0.16443677022E+03  0.17797199180E+03  0.00000000000E+00 0.  1.
</event>
<event>
12    1  0.8113184E-002  0.1760726E+03  0.7818608E-02  0.1171827E+00
         21   -1    0    0  501  502  0.00000000000E+00  0.00000000000E+00  0.23480212011E+03  0.23480212011E+03  0.00000000000E+00 0.  1.
         21   -1    0    0  502  503 -0.00000000000E+00 -0.00000000000E+00 -0.33258929697E+03  0.33258929697E+03  0.00000000000E+00 0.  1.
         -6    2    1    2    0  503 -0.30955834827E+02 -0.18227162231E+02 -0.26950801124E+03  0.32192564493E+03  0.17236896352E+03 0.  0.
        -24    2    3    3    0    0 -0.49228786090E+02 -0.77964437721E+01 -0.55834982283E+02  0.10716774882E+03  0.76701520357E+02 0.  0.
          6    2    1    2  501    0  0.30955834827E+02  0.18227162231E+02  0.17172083438E+03  0.24546577216E+03  0.17168257683E+03 0.  0.
         24    2    5    5    0    0  0.48638849950E+02  0.59374470243E+02  0.61113424724E+02  0.12604266279E+03  0.79125449260E+02 0.  0.
          5    1    5    5  501    0 -0.17683015124E+02 -0.41147308012E+02  0.11060740965E+03  0.11942310937E+03  0.47000000000E+01 0. -1.
        -11    1    6    6    0    0  0.31060218717E+02  0.68108633958E+02  0.71773312836E+02  0.10370598653E+03  0.00000000000E+00 0.  1.
         12    1    6    6    0    0  0.17578631233E+02 -0.87341637154E+01 -0.10659888112E+02  0.22336676262E+02  0.00000000000E+00 0. -1.
         -5    1    3    3    0  503  0.18272951264E+02 -0.10430718459E+02 -0.21367302896E+03  0.21475789611E+03  0.47000000000E+01 0.  1.
         11    1    4    4    0    0 -0.45397791960E+02  0.23553050231E+02 -0.55653519833E+02  0.75584521959E+02  0.00000000000E+00 0. -1.
        -12    1    4    4    0    0 -0.38309941302E+01 -0.31349494003E+02 -0.18146245015E+00  0.31583226860E+02  0.00000000000E+00 0.  1.
</event>
<event>
12    1  0.8113184E-002  0.1842397E+03  0.7818608E-02  0.1163921E+00
         21   -1    0    0  503  502  0.00000000000E+00  0.00000000000E+00  0.42948990855E+02  0.42948990855E+02  0.00000000000E+00 0. -1.
         21   -1    0    0  501  503 -0.00000000000E+00 -0.00000000000E+00 -0.81820425805E+03  0.81820425805E+03  0.00000000000E+00 0. -1.
          6    2    1    2  501    0  0.21679017883E+02  0.64439781298E+02 -0.30481171861E+03  0.35616633171E+03  0.17123611421E+03 0.  0.
         24    2    3    3    0    0  0.30842327447E+02 -0.26111791562E+02 -0.17727331673E+03  0.19941274309E+03  0.81893457997E+02 0.  0.
         -6    2    1    2    0  502 -0.21679017883E+02 -0.64439781298E+02 -0.47044354858E+03  0.50498691720E+03  0.17050568584E+03 0.  0.
        -24    2    5    5    0    0 -0.65940660929E+02 -0.25173614680E+02 -0.39379493961E+03  0.40804351029E+03  0.80269360165E+02 0.  0.
          5    1    3    3  501    0 -0.91633095642E+01  0.90551572861E+02 -0.12753840188E+03  0.15675358861E+03  0.47000000000E+01 0. -1.
        -11    1    4    4    0    0 -0.20084574866E+02 -0.33429912844E+02 -0.90285810973E+02  0.98348751306E+02  0.00000000000E+00 0.  1.
         12    1    4    4    0    0  0.50926902314E+02  0.73181212811E+01 -0.86987505758E+02  0.10106399179E+03  0.00000000000E+00 0. -1.
         -5    1    5    5    0  502  0.44261643046E+02 -0.39266166618E+02 -0.76648608970E+02  0.96943406909E+02  0.47000000000E+01 0.  1.
         11    1    6    6    0    0 -0.66925876225E+02 -0.10350159428E+02 -0.15954349053E+03  0.17332144726E+03  0.00000000000E+00 0. -1.
        -12    1    6    6    0    0  0.98521529573E+00 -0.14823455252E+02 -0.23425144909E+03  0.23472206303E+03  0.00000000000E+00 0.  1.
</event>
<event>
12    1  0.8113184E-002  0.2250468E+03  0.7818608E-02  0.1130766E+00
         21   -1    0    0  503  502  0.00000000000E+00  0.00000000000E+00  0.15541820434E+04  0.15541820434E+04  0.00000000000E+00 0. -1.
         21   -1    0    0  501  503 -0.00000000000E+00 -0.00000000000E+00 -0.17142809520E+03  0.17142809520E+03  0.00000000000E+00 0. -1.
          6    2    1    2  501    0  0.55342725242E+02  0.12776131600E+03 -0.87344579515E+02  0.23838596106E+03  0.17266447161E+03 0.  0.
         24    2    3    3    0    0  0.32214640818E+02  0.23841018855E+02 -0.96011799841E+02  0.13146754751E+03  0.80369602945E+02 0.  0.
         -6    2    1    2    0  502 -0.55342725242E+02 -0.12776131600E+03  0.14700985277E+04  0.14872241776E+04  0.17680583124E+03 0.  0.
        -24    2    5    5    0    0 -0.88927230137E+02 -0.28623099241E+02  0.82230065201E+03  0.83100738199E+03  0.75283282055E+02 0.  0.
          5    1    3    3  501    0  0.23128084425E+02  0.10392029714E+03  0.86672203261E+01  0.10691841355E+03  0.47000000000E+01 0. -1.
        -13    1    4    4    0    0 -0.12928788740E+02  0.35626001215E+02 -0.21554543329E+02  0.43600044484E+02  0.00000000000E+00 0.  1.
         14    1    4    4    0    0  0.45143429558E+02 -0.11784982360E+02 -0.74457256512E+02  0.87867503030E+02  0.00000000000E+00 0. -1.
         -5    1    5    5    0  502  0.33584504895E+02 -0.99138216756E+02  0.64779787572E+03  0.65621679556E+03  0.47000000000E+01 0.  1.
         13    1    6    6    0    0 -0.75860010366E+02 -0.52740314657E+02  0.65134065836E+03  0.65786087829E+03  0.00000000000E+00 0. -1.
        -14    1    6    6    0    0 -0.13067219770E+02  0.24117215417E+02  0.17095999365E+03  0.17314650370E+03  0.00000000000E+00 0.  1.
</event>
<event>
12    1  0.8113184E-002  0.2042031E+03  0.7818608E-02  0.1146661E+00
         21   -1    0    0  501  502  0.00000000000E+00  0.00000000000E+00  0.37281630338E+03  0.37281630338E+03  0.00000000000E+00 0. -1.
         21   -1    0    0  502  503 -0.00000000000E+00 -0.00000000000E+00 -0.11473634466E+03  0.11473634466E+03  0.00000000000E+00 0.  1.
         -6    2    1    2    0  503  0.10300440679E+03  0.28969705387E+02  0.84143128013E+02  0.22085960858E+03  0.17392454991E+03 0.  0.
        -24    2    3    3    0    0  0.12104179552E+03  0.62940323096E+02  0.41065894021E+02  0.16291922242E+03  0.79016864321E+02 0.  0.
          6    2    1    2  501    0 -0.10300440679E+03 -0.28969705387E+02  0.17393683071E+03  0.26669303946E+03  0.17152843663E+03 0.  0.
         24    2    5    5    0    0 -0.63801474704E+02  0.46389405128E+02  0.65732115930E+02  0.12904778628E+03  0.78166584915E+02 0.  0.
          5    1    5    5  501    0 -0.39202932082E+02 -0.75359110515E+02  0.10820471478E+03  0.13764525318E+03  0.47000000000E+01 0. -1.
        -13    1    6    6    0    0 -0.71239410188E+02  0.10997561014E+02  0.56861391754E+02  0.91810771614E+02  0.00000000000E+00 0.  1.
         14    1    6    6    0    0  0.74379354836E+01  0.35391844114E+02  0.88707241765E+01  0.37237014669E+02  0.00000000000E+00 0. -1.
         -5    1    3    3    0  503 -0.18037388738E+02 -0.33970617709E+02  0.43077233992E+02  0.57940386160E+02  0.47000000000E+01 0.  1.
         13    1    4    4    0    0  0.86865460113E+02  0.45337335127E+02  0.65046117322E+02  0.11760986139E+03  0.00000000000E+00 0. -1.
        -14    1    4    4    0    0  0.34176335411E+02  0.17602987969E+02 -0.23980223301E+02  0.45309361032E+02  0.00000000000E+00 0.  1.
</event>
<event>
12    1  0.8113184E-002  0.2018901E+03  0.7818608E-02  0.1148289E+00
         21   -1    0    0  503  502  0.00000000000E+00  0.00000000000E+00  0.39438545282E+03  0.39438545282E+03  0.00000000000E+00 0.  1.
         21   -1    0    0  501  503 -0.00000000000E+00 -0.00000000000E+00 -0.10304843479E+03  0.10304843479E+03  0.00000000000E+00 0. -1.
          6    2    1    2  501    0 -0.37725356847E+02 -0.10065418670E+03  0.15005209087E+03  0.25154571416E+03  0.17089513886E+03 0.  0.
         24    2    3    3    0    0 -0.59982948146E+02 -0.42327983447E+02  0.15464706422E+03  0.18877191281E+03  0.79558207257E+02 0.  0.
         -6    2    1    2    0  502  0.37725356847E+02  0.10065418670E+03  0.14128492716E+03  0.24588817345E+03  0.17013258168E+03 0.  0.
        -24    2    5    5    0    0 -0.11439891180E+01  0.43436366545E+02  0.82935201815E+01  0.95909810575E+02  0.85099251688E+02 0.  0.
          5    1    3    3  501    0  0.22257591299E+02 -0.58326203253E+02 -0.45949733447E+01  0.62773801354E+02  0.47000000000E+01 0. -1.
        -13    1    4    4    0    0  0.17525180718E+02 -0.10863657983E+02  0.54586251075E+02  0.58350748328E+02  0.00000000000E+00 0.  1.
         14    1    4    4    0    0 -0.77508128864E+02 -0.31464325463E+02  0.10006081314E+03  0.13042116448E+03  0.00000000000E+00 0. -1.
         -5    1    5    5    0  502  0.38869345965E+02  0.57217820155E+02  0.13299140698E+03  0.14997836287E+03  0.47000000000E+01 0.  1.
         13    1    6    6    0    0 -0.13371898225E+02  0.66439384571E+02  0.14091792341E+02  0.69221225759E+02  0.00000000000E+00 0. -1.
        -14    1    6    6    0    0  0.12227909107E+02 -0.23003018026E+02 -0.57982721600E+01  0.26688584816E+02  0.00000000000E+00 0.  1.
</event>
<event>
12    1  0.8113184E-002  0.2591951E+03  0.7818608E-02  0.1107724E+00
         21   -1    0    0  503  502  0.00000000000E+00  0.00000000000E+00  0.67143453258E+03  0.67143453258E+03  0.00000000000E+00 0. -1.
         21   -1    0    0  501  503 -0.00000000000E+00 -0.00000000000E+00 -0.12899408994E+03  0.12899408994E+03  0.00000000000E+00 0.  1.
          6    2    1    2  501    0 -0.17270615056E+03  0.88144941462E+02  0.80609511827E+02  0.27083451740E+03  0.17104530766E+03 0.  0.
         24    2    3    3    0    0 -0.18883655519E+03  0.70991509666E+02  0.10104662674E+03  0.23930364614E+03  0.79729387674E+02 0.  0.
         -6    2    1    2    0  502  0.17270615056E+03 -0.88144941462E+02  0.46183093081E+03  0.52959410512E+03  0.17200337898E+03 0.  0.
        -24    2    5    5    0    0  0.12312596502E+03 -0.28495755782E+02  0.41003770805E+03  0.43620862405E+03  0.78581361126E+02 0.  0.
          5    1    3    3  501    0  0.16130404637E+02  0.17153431796E+02 -0.20437114916E+02  0.31530871257E+02  0.47000000000E+01 0. -1.
        -13    1    4    4    0    0 -0.13589352984E+03  0.11387632704E+02  0.53561709010E+02  0.14651138626E+03  0.00000000000E+00 0.  1.
         14    1    4    4    0    0 -0.52943025355E+02  0.59603876963E+02  0.47484917734E+02  0.92792259887E+02  0.00000000000E+00 0. -1.
         -5    1    5    5    0  502  0.49580185537E+02 -0.59649185680E+02  0.51793222760E+02  0.93385481067E+02  0.47000000000E+01 0.  1.
         13    1    6    6    0    0  0.48415978064E+02 -0.27234664604E+02  0.77334142516E+02  0.95217663733E+02  0.00000000000E+00 0. -1.
        -14    1    6    6    0    0  0.74709986956E+02 -0.12610911779E+01  0.33270356553E+03  0.34099096032E+03  0.00000000000E+00 0.  1.
</event>
<event>
12    1  0.8113184E-002  0.1844183E+03  0.7818608E-02  0.1163702E+00
         21   -1    0    0  501  502  0.00000000000E+00  0.00000000000E+00  0.19790865132E+03  0.19790865132E+03  0.00000000000E+00 0.  1.
         21   -1    0    0  502  503 -0.00000000000E+00 -0.00000000000E+00 -0.18998269804E+03  0.18998269804E+03  0.00000000000E+00 0.  1.
         -6    2    1    2    0  503 -0.69691131950E+02  0.12111401337E+02  0.64590488836E+02  0.19540225688E+03  0.17031315519E+03 0.  0.
        -24    2    3    3    0    0  0.37244180440E+01 -0.18448044462E+02 -0.14364312710E+02  0.83243113713E+02  0.79805268415E+02 0.  0.
          6    2    1    2  501    0  0.69691131950E+02 -0.12111401337E+02 -0.56664535557E+02  0.19248909248E+03  0.16981649278E+03 0.  0.
         24    2    5    5    0    0  0.42257578605E+02 -0.23200078486E+02 -0.10367019030E+03  0.13674700616E+03  0.75021921777E+02 0.  0.
          5    1    5    5  501    0  0.27433553345E+02  0.11088677149E+02  0.47005654738E+02  0.55742086321E+02  0.47000000000E+01 0. -1.
        -11    1    6    6    0    0  0.37203080103E+02  0.19411582727E+00 -0.10634421084E+03  0.11266409379E+03  0.00000000000E+00 0.  1.
         12    1    6    6    0    0  0.50544985024E+01 -0.23394194313E+02  0.26740205412E+01  0.24082912377E+02  0.00000000000E+00 0. -1.
         -5    1    3    3    0  503 -0.73415549994E+02  0.30559445799E+02  0.78954801546E+02  0.11215914317E+03  0.47000000000E+01 0.  1.
         11    1    4    4    0    0 -0.10778319021E+02  0.19333981786E+02 -0.32153387372E+02  0.39036077315E+02  0.00000000000E+00 0. -1.
        -12    1    4    4    0    0  0.14502737065E+02 -0.37782026248E+02  0.17789074662E+02  0.44207036398E+02  0.00000000000E+00 0.  1.
</event>
<event>
12    1  0.8113184E-002  0.1755194E+03  0.7818608E-02  0.1172348E+00
         21   -1    0    0  503  502  0.00000000000E+00  0.00000000000E+00  0.53540096630E+03  0.53540096630E+03  0.00000000000E+00 0.  1.
         21   -1    0    0  501  503 -0.00000000000E+00 -0.00000000000E+00 -0.21548542086E+03  0.21548542086E+03  0.00000000000E+00 0.  1.
          6    2    1    2  501    0  0.33694346011E+02 -0.16776299021E+02 -0.16172128059E+03  0.23826460573E+03  0.17087860190E+03 0.  0.
         24    2    3    3    0    0  0.72247117127E+02  0.33675887541E+02 -0.10553735668E+03  0.15335016293E+03  0.77617185478E+02 0.  0.
         -6    2    1    2    0  502 -0.33694346011E+02  0.16776299021E+02  0.48163682603E+03  0.51262178143E+03  0.17143600978E+03 0.  0.
        -24    2    5    5    0    0  0.26489943897E+02 -0.31886968433E+02  0.33148166379E+03  0.34362792031E+03  0.80508125680E+02 0.  0.
          5    1    3    3  501    0 -0.38552771116E+02 -0.50452186563E+02 -0.56183923912E+02  0.84914442799E+02  0.47000000000E+01 0. -1.
        -11    1    4    4    0    0  0.28881359564E+02  0.51324053544E+02 -0.81973761640E+02  0.10093556856E+03  0.00000000000E+00 0.  1.
         12    1    4    4    0    0  0.43365757562E+02 -0.17648166003E+02 -0.23563595036E+02  0.52414594373E+02  0.00000000000E+00 0. -1.
         -5    1    5    5    0  502 -0.60184289908E+02  0.48663267454E+02  0.15015516223E+03  0.16899386112E+03  0.47000000000E+01 0.  1.
         13    1    6    6    0    0 -0.99111406812E+01  0.13613112890E+02  0.17502137439E+02  0.24287288179E+02  0.00000000000E+00 0. -1.
        -14    1    6    6    0    0  0.36401084578E+02 -0.45500081323E+02  0.31397952635E+03  0.31934063213E+03  0.00000000000E+00 0.  1.
</event>
<event>
12    1  0.8113184E-002  0.2706108E+03  0.7818608E-02  0.1102303E+00
         21   -1    0    0  501  502  0.00000000000E+00  0.00000000000E+00  0.20439963222E+04  0.20439963222E+04  0.00000000000E+00 0. -1.
         21   -1    0    0  502  503 -0.00000000000E+00 -0.00000000000E+00 -0.93050155973E+02  0.93050155973E+02  0.00000000000E+00 0. -1.
         -6    2    1    2    0  503 -0.19593062213E+03 -0.19739796246E+02  0.13500009033E+03  0.30241566532E+03  0.18561180458E+03 0.  0.
        -24    2    3    3    0    0 -0.32608117422E+02 -0.21182498731E+02 -0.26769265512E+01  0.88749166047E+02  0.79732433576E+02 0.  0.
          6    2    1    2  501    0  0.19593062213E+03  0.19739796246E+02  0.18159460759E+04  0.18346308129E+04  0.17155640667E+03 0.  0.
         24    2    5    5    0    0  0.24226994817E+02 -0.64079277181E+01  0.72223483818E+03  0.72720487826E+03  0.81091088737E+02 0.  0.
          5    1    5    5  501    0  0.17170362731E+03  0.26147723964E+02  0.10937112377E+04  0.11074259346E+04  0.47000000000E+01 0. -1.
        -11    1    6    6    0    0  0.49490306564E+02 -0.23076097553E+02  0.46189905052E+03  0.46511560885E+03  0.00000000000E+00 0.  1.
         12    1    6    6    0    0 -0.25263311747E+02  0.16668169835E+02  0.26033578766E+03  0.26208926941E+03  0.00000000000E+00 0. -1.
         -5    1    3    3    0  503 -0.16332250471E+03  0.14427024849E+01  0.13767701688E+03  0.21366649927E+03  0.47000000000E+01 0.  1.
         11    1    4    4    0    0  0.11997139356E+02  0.18546441668E+02  0.14708633608E+02  0.26537629018E+02  0.00000000000E+00 0. -1.
        -12    1    4    4    0    0 -0.44605256778E+02 -0.39728940399E+02 -0.17385560159E+02  0.62211537029E+02  0.00000000000E+00 0.  1.
</event>
<event>
12    1  0.8113184E-002  0.2804004E+03  0.7818608E-02  0.1095962E+00
         21   -1    0    0  501  502  0.00000000000E+00  0.00000000000E+00  0.61898416944E+03  0.61898416944E+03  0.00000000000E+00 0.  1.
         21   -1    0    0  502  503 -0.00000000000E+00 -0.00000000000E+00 -0.53766675840E+03  0.53766675840E+03  0.00000000000E+00 0.  1.
         -6    2    1    2    0  503  0.57594970686E+02 -0.21134136022E+03 -0.46568761036E+03  0.54358929368E+03  0.17504861775E+03 0.  0.
        -24    2    3    3    0    0  0.28511108985E+02 -0.20460232574E+03 -0.28741141026E+03  0.36276955162E+03  0.79507444928E+02 0.  0.
          6    2    1    2  501    0 -0.57594970686E+02  0.21134136022E+03  0.54700502140E+03  0.61306163416E+03  0.16925638143E+03 0.  0.
         24    2    5    5    0    0 -0.19723128617E+02  0.16283396663E+03  0.25072933302E+03  0.31042552068E+03  0.81209007903E+02 0.  0.
          5    1    5    5  501    0 -0.37871842069E+02  0.48507393588E+02  0.29627568838E+03  0.30263611348E+03  0.47000000000E+01 0. -1.
        -13    1    6    6    0    0  0.17698520603E+02  0.65810913460E+02  0.15399023532E+03  0.16839627827E+03  0.00000000000E+00 0.  1.
         14    1    6    6    0    0 -0.37421649220E+02  0.97023053166E+02  0.96739097704E+02  0.14202924241E+03  0.00000000000E+00 0. -1.
         -5    1    3    3    0  503  0.29083861701E+02 -0.67390344710E+01 -0.17827620010E+03  0.18081974206E+03  0.47000000000E+01 0.  1.
         13    1    4    4    0    0  0.20310018087E+02 -0.28698449130E+02 -0.14617293498E+02  0.38075754574E+02  0.00000000000E+00 0. -1.
        -14    1    4    4    0    0  0.82010908972E+01 -0.17590387661E+03 -0.27279411676E+03  0.32469379704E+03  0.00000000000E+00 0.  1.
</event>
<event>
12    1  0.8113184E-002  0.3594165E+03  0.7818608E-02  0.1058842E+00
         21   -1    0    0  503  502  0.00000000000E+00  0.00000000000E+00  0.91303196857E+02  0.91303196857E+02  0.00000000000E+00 0. -1.
         21   -1    0    0  501  503 -0.00000000000E+00 -0.00000000000E+00 -0.16315096750E+04  0.16315096750E+04  0.00000000000E+00 0. -1.
          6    2    1    2  501    0 -0.11309598144E+03 -0.29431816867E+03 -0.10845308275E+04  0.11424504431E+04  0.17196515264E+03 0.  0.
         24    2    3    3    0    0 -0.35209883334E+02 -0.83633164745E+02 -0.53668394533E+03  0.55032485553E+03  0.81200660758E+02 0.  0.
         -6    2    1    2    0  502  0.11309598144E+03  0.29431816867E+03 -0.45567565066E+03  0.58036242877E+03  0.17252931546E+03 0.  0.
        -24    2    5    5    0    0  0.61026215707E+02  0.23970574416E+03 -0.25038324216E+03  0.36159122316E+03  0.82905982454E+02 0.  0.
          5    1    3    3  501    0 -0.77886098109E+02 -0.21068500392E+03 -0.54784688213E+03  0.59212558754E+03  0.47000000000E+01 0. -1.
        -13    1    4    4    0    0 -0.14146540813E+02 -0.21154551256E+02 -0.29873886962E+02  0.39243964861E+02  0.00000000000E+00 0.  1.
         14    1    4    4    0    0 -0.21063342520E+02 -0.62478613489E+02 -0.50681005837E+03  0.51108089067E+03  0.00000000000E+00 0. -1.
         -5    1    5    5    0  502  0.52069765736E+02  0.54612424510E+02 -0.20529240850E+03  0.21877120561E+03  0.47000000000E+01 0.  1.
         11    1    6    6    0    0  0.64576117713E+02  0.15053467903E+03 -0.20203576267E+03  0.26009462502E+03  0.00000000000E+00 0. -1.
        -12    1    6    6    0    0 -0.35499020057E+01  0.89171065128E+02 -0.48347479492E+02  0.10149659814E+03  0.00000000000E+00 0.  1.
</event>
<event>
12    1  0.8113184E-002  0.2326146E+03  0.7818608E-02  0.1125043E+00
         21   -1    0    0  503  502  0.00000000000E+00  0.00000000000E+00  0.34133096725E+03  0.34133096725E+03  0.00000000000E+00 0.  1.
         21   -1    0    0  501  503 -0.00000000000E+00 -0.00000000000E+00 -0.27674414511E+03  0.27674414511E+03  0.00000000000E+00 0. -1.
          6    2    1    2  501    0 -0.61045494915E+02  0.14294416921E+03 -0.17040399601E+03  0.28835236992E+03  0.17306062355E+03 0.  0.
         24    2    3    3    0    0 -0.30934977540E+02  0.16863947799E+03 -0.12415219472E+03  0.22729328974E+03  0.82778171851E+02 0.  0.
         -6    2    1    2    0  502  0.61045494915E+02 -0.14294416921E+03  0.23499081815E+03  0.32972274244E+03  0.17127992967E+03 0.  0.
        -24    2    5    5    0    0  0.73388965615E+02 -0.72664259055E+02  0.68027644845E+02  0.14809009593E+03  0.81467056106E+02 0.  0.
          5    1    3    3  501    0 -0.30110517375E+02 -0.25695308781E+02 -0.46251801290E+02  0.61059080181E+02  0.47000000000E+01 0. -1.
        -11    1    4    4    0    0 -0.32276007116E+01 -0.92532173979E-01 -0.33694318906E+02  0.33848679370E+02  0.00000000000E+00 0.  1.
         12    1    4    4    0    0 -0.27707376828E+02  0.16873201016E+03 -0.90457875815E+02  0.19344461037E+03  0.00000000000E+00 0. -1.
         -5    1    5    5    0  502 -0.12343470700E+02 -0.70279910153E+02  0.16696317330E+03  0.18163264651E+03  0.47000000000E+01 0.  1.
         13    1    6    6    0    0  0.89735198666E+02 -0.50421448733E+02  0.45847936172E+02  0.11267990781E+03  0.00000000000E+00 0. -1.
        -14    1    6    6    0    0 -0.16346233051E+02 -0.22242810322E+02  0.22179708674E+02  0.35410188122E+02  0.00000000000E+00 0.  1.
</event>
<event>
12    1  0.8113184E-002  0.1869579E+03  0.7818608E-02  0.1162405E+00
         21   -1    0    0  503  502  0.00000000000E+00  0.00000000000E+00  0.74567693807E+02  0.74567693807E+02  0.00000000000E+00 0.  1.
         21   -1    0    0  501  503 -0.00000000000E+00 -0.00000000000E+00 -0.51334113181E+03  0.51334113181E+03  0.00000000000E+00 0.  1.
          6    2    1    2  501    0  0.68234232576E+02  0.89911889516E+01 -0.12402907614E+03  0.22435793676E+03  0.17382899668E+03 0.  0.
         24    2    3    3    0    0  0.96279403617E+02 -0.18743956311E+02 -0.40063633868E+02  0.13147061041E+03  0.77835513645E+02 0.  0.
         -6    2    1    2    0  502 -0.68234232576E+02 -0.89911889516E+01 -0.31474436187E+03  0.36355088886E+03  0.16842946145E+03 0.  0.
        -24    2    5    5    0    0 -0.91344576490E+02  0.27250797876E+02 -0.16458790346E+03  0.20729269992E+03  0.82429653880E+02 0.  0.
          5    1    3    3  501    0 -0.28045171041E+02  0.27735145262E+02 -0.83965442268E+02  0.92887326352E+02  0.47000000000E+01 0. -1.
        -13    1    4    4    0    0  0.40984713914E+02  0.23064643210E+02  0.71902941962E+01  0.47575465018E+02  0.00000000000E+00 0.  1.
         14    1    4    4    0    0  0.55294689702E+02 -0.41808599521E+02 -0.47253928064E+02  0.83895145394E+02  0.00000000000E+00 0. -1.
         -5    1    5    5    0  502  0.23110343915E+02 -0.36241986827E+02 -0.15015645842E+03  0.15625818893E+03  0.47000000000E+01 0.  1.
         11    1    6    6    0    0 -0.30851902031E+02  0.40729796207E+02 -0.30327607832E+02  0.59418178656E+02  0.00000000000E+00 0. -1.
        -12    1    6    6    0    0 -0.60492674460E+02 -0.13478998331E+02 -0.13426029562E+03  0.14787452127E+03  0.00000000000E+00 0.  1.
</event>
<event>
12    1  0.8113184E-002  0.1988114E+03  0.7818608E-02  0.1151237E+00
         21   -1    0    0  503  502  0.00000000000E+00  0.00000000000E+00  0.21884121244E+03  0.21884121244E+03  0.00000000000E+00 0. -1.
         21   -1    0    0  501  503 -0.00000000000E+00 -0.00000000000E+00 -0.38310524870E+03  0.38310524870E+03  0.00000000000E+00 0.  1.
          6    2    1    2  501    0 -0.96808148229E+02 -0.20355647036E+02 -0.30228654600E+03  0.36180538733E+03  0.17245234842E+03 0.  0.
         24    2    3    3    0    0 -0.12199141537E+03  0.16633618981E+02 -0.18620257434E+03  0.23730646676E+03  0.80525634268E+02 0.  0.
         -6    2    1    2    0  502  0.96808148229E+02  0.20355647036E+02  0.13802250975E+03  0.24014107382E+03  0.16979797468E+03 0.  0.
        -24    2    5    5    0    0  0.93222402424E+02 -0.39856123730E+02  0.12188392224E+03  0.17752431154E+03  0.79876553334E+02 0.  0.
          5    1    3    3  501    0  0.25183267138E+02 -0.36989266017E+02 -0.11608397166E+03  0.12449892056E+03  0.47000000000E+01 0. -1.
        -11    1    4    4    0    0 -0.75959627324E+01 -0.13716687478E+01 -0.79390811933E+02  0.79765162473E+02  0.00000000000E+00 0.  1.
         12    1    4    4    0    0 -0.11439545263E+03  0.18005287729E+02 -0.10681176241E+03  0.15754130429E+03  0.00000000000E+00 0. -1.
         -5    1    5    5    0  502  0.35857458057E+01  0.60211770766E+02  0.16138587502E+02  0.62616762279E+02  0.47000000000E+01 0.  1.
         11    1    6    6    0    0  0.60477468796E+02  0.13009184859E+02  0.85320122667E+02  0.10538636750E+03  0.00000000000E+00 0. -1.
        -12    1    6    6    0    0  0.32744933628E+02 -0.52865308589E+02  0.36563799578E+02  0.72137944038E+02  0.00000000000E+00 0.  1.
</event>
<event>
12    1  0.8113184E-002  0.3239390E+03  0.7818608E-02  0.1073953E+00
         21   -1    0    0  501  502  0.00000000000E+00  0.00000000000E+00  0.49792621324E+03  0.49792621324E+03  0.00000000000E+00 0.  1.
         21   -1    0    0  502  503 -0.00000000000E+00 -0.00000000000E+00 -0.31022748205E+03  0.31022748205E+03  0.00000000000E+00 0. -1.
         -6    2    1    2    0  503  0.15741884117E+03 -0.22436065158E+03 -0.13572957210E+03  0.35039573822E+03  0.17098614882E+03 0.  0.
        -24    2    3    3    0    0  0.17626726771E+03 -0.15506928832E+03 -0.12464304056E+03  0.27758394393E+03  0.80002028233E+02 0.  0.
          6    2    1    2  501    0 -0.15741884117E+03  0.22436065158E+03  0.32342830330E+03  0.45775795707E+03  0.17267914278E+03 0.  0.
         24    2    5    5    0    0 -0.76248519443E+01  0.57718962332E+02  0.96079716917E+02  0.13851328361E+03  0.81024692241E+02 0.  0.
          5    1    5    5  501    0 -0.14979398923E+03  0.16664168925E+03  0.22734858639E+03  0.31924467346E+03  0.47000000000E+01 0. -1.
        -13    1    6    6    0    0 -0.34988984633E+02  0.59309378136E+02  0.83840617315E+02  0.10849461043E+03  0.00000000000E+00 0.  1.
         14    1    6    6    0    0  0.27364132689E+02 -0.15904158034E+01  0.12239099602E+02  0.30018673177E+02  0.00000000000E+00 0. -1.
         -5    1    3    3    0  503 -0.18848426543E+02 -0.69291363262E+02 -0.11086531538E+02  0.72811794288E+02  0.47000000000E+01 0.  1.
         11    1    4    4    0    0  0.15568309001E+03 -0.16156234967E+03 -0.12316910913E+03  0.25594969582E+03  0.00000000000E+00 0. -1.
        -12    1    4    4    0    0  0.20584177702E+02  0.64930613545E+01 -0.14739314319E+01  0.21634248110E+02  0.00000000000E+00 0.  1.
</event>
<event>
12    1  0.8113184E-002  0.2268062E+03  0.7818608E-02  0.1129029E+00
         21   -1    0    0  501  502  0.00000000000E+00  0.00000000000E+00  0.66914950032E+02  0.66914950032E+02  0.00000000000E+00 0. -1.
         21   -1    0    0  502  503 -0.00000000000E+00 -0.00000000000E+00 -0.10337697359E+04  0.10337697359E+04  0.00000000000E+00 0. -1.
         -6    2    1    2    0  503 -0.34366824841E+02  0.14430797449E+03 -0.76379965660E+03  0.79676280160E+03  0.17156682792E+03 0.  0.
        -24    2    3    3    0    0 -0.43675806671E+02  0.62790507664E+02 -0.59118488954E+03  0.60558303712E+03  0.10668185078E+03 0.  0.
          6    2    1    2  501    0  0.34366824841E+02 -0.14430797449E+03 -0.20305512927E+03  0.30392188434E+03  0.17067880977E+03 0.  0.
         24    2    5    5    0    0  0.48114659434E+01 -0.12405722066E+03 -0.21879929559E+03  0.26450639191E+03  0.81713862993E+02 0.  0.
          5    1    5    5  501    0  0.29555358897E+02 -0.20250753830E+02  0.15744166321E+02  0.39415492428E+02  0.47000000000E+01 0. -1.
        -13    1    6    6    0    0  0.40270032382E+02 -0.50915617437E+02 -0.12121819293E+03  0.13750609406E+03  0.00000000000E+00 0.  1.
         14    1    6    6    0    0 -0.35458566438E+02 -0.73141603221E+02 -0.97581102669E+02  0.12700029785E+03  0.00000000000E+00 0. -1.
         -5    1    3    3    0  503  0.93089818307E+01  0.81517466824E+02 -0.17261476706E+03  0.19117976448E+03  0.47000000000E+01 0.  1.
         13    1    4    4    0    0 -0.47583556196E+01  0.82359593560E+02 -0.46045130571E+03  0.46778322921E+03  0.00000000000E+00 0. -1.
        -14    1    4    4    0    0 -0.38917451052E+02 -0.19569085896E+02 -0.13073358383E+03  0.13779980791E+03  0.00000000000E+00 0.  1.
</event>
<event>
12    1  0.8113184E-002  0.1930047E+03  0.7818608E-02  0.1156337E+00
         21   -1    0    0  503  502  0.00000000000E+00  0.00000000000E+00  0.60686648350E+03  0.60686648350E+03  0.00000000000E+00 0.  1.
         21   -1    0    0  501  503 -0.00000000000E+00 -0.00000000000E+00 -0.10788322897E+03  0.10788322897E+03  0.00000000000E+00 0.  1.
          6    2    1    2  501    0 -0.78202149529E+02  0.24691823251E+02  0.13786639668E+02  0.19349650310E+03  0.17471566315E+03 0.  0.
         24    2    3    3    0    0 -0.10968256937E+03  0.61360150670E+02  0.48908896698E+00  0.14315270582E+03  0.68535566402E+02 0.  0.
         -6    2    1    2    0  502  0.78202149529E+02 -0.24691823251E+02  0.48519661486E+03  0.52125320937E+03  0.17194153331E+03 0.  0.
        -24    2    5    5    0    0 -0.59759447790E+01  0.34172080079E+02  0.20630248058E+03  0.22400762266E+03  0.80095309141E+02 0.  0.
          5    1    3    3  501    0  0.31480419845E+02 -0.36668327419E+02  0.13297550701E+02  0.50343797274E+02  0.47000000000E+01 0. -1.
        -13    1    4    4    0    0 -0.53556023022E+02  0.36667097525E+02  0.34003452102E+02  0.73273176523E+02  0.00000000000E+00 0.  1.
         14    1    4    4    0    0 -0.56126546352E+02  0.24693053145E+02 -0.33514363135E+02  0.69879529302E+02  0.00000000000E+00 0. -1.
         -5    1    5    5    0  502  0.84178094308E+02 -0.58863903330E+02  0.27889413428E+03  0.29724558670E+03  0.47000000000E+01 0.  1.
         13    1    6    6    0    0  0.20311341744E+01 -0.22150619390E+02  0.22649976800E+02  0.31745816960E+02  0.00000000000E+00 0. -1.
        -14    1    6    6    0    0 -0.80070789534E+01  0.56322699470E+02  0.18365250378E+03  0.19226180570E+03  0.00000000000E+00 0.  1.
</event>
<event>
12    1  0.8113184E-002  0.2547990E+03  0.7818608E-02  0.1110456E+00
         21   -1    0    0  501  502  0.00000000000E+00  0.00000000000E+00  0.68022147020E+02  0.68022147020E+02  0.00000000000E+00 0. -1.
         21   -1    0    0  502  503 -0.00000000000E+00 -0.00000000000E+00 -0.20240424734E+04  0.20240424734E+04  0.00000000000E+00 0.  1.
         -6    2    1    2    0  503 -0.18274054068E+03  0.45531196506E+02 -0.17405409865E+04  0.17590922237E+04  0.17162555366E+03 0.  0.
        -24    2    3    3    0    0 -0.11422954243E+03 -0.37068459192E+02 -0.11264078135E+04  0.11356356460E+04  0.80319980431E+02 0.  0.
          6    2    1    2  501    0  0.18274054068E+03 -0.45531196506E+02 -0.21547933992E+03  0.33297239678E+03  0.17021185628E+03 0.  0.
         24    2    5    5    0    0  0.87116043042E+02 -0.57744382268E+02 -0.17051608874E+03  0.22649709254E+03  0.10630887908E+03 0.  0.
          5    1    5    5  501    0  0.95624497641E+02  0.12213185761E+02 -0.44963251183E+02  0.10647530424E+03  0.47000000000E+01 0. -1.
        -13    1    6    6    0    0  0.68949788688E+02 -0.77279869272E+02 -0.76467340996E+02  0.12873812875E+03  0.00000000000E+00 0.  1.
         14    1    6    6    0    0  0.18166254355E+02  0.19535487004E+02 -0.94048747745E+02  0.97758963794E+02  0.00000000000E+00 0. -1.
         -5    1    3    3    0  503 -0.68510998249E+02  0.82599655699E+02 -0.61413317304E+03  0.62345657767E+03  0.47000000000E+01 0.  1.
         13    1    4    4    0    0 -0.19794280972E+02  0.18967738259E+02 -0.11220871003E+03  0.11550923452E+03  0.00000000000E+00 0. -1.
        -14    1    4    4    0    0 -0.94435261462E+02 -0.56036197452E+02 -0.10141991034E+04  0.10201264115E+04  0.00000000000E+00 0.  1.
</event>
<event>
12    1  0.8113184E-002  0.3092966E+03  0.7818608E-02  0.1080774E+00
         21   -1    0    0  503  502  0.00000000000E+00  0.00000000000E+00  0.12261110577E+04  0.12261110577E+04  0.00000000000E+00 0.  1.
         21   -1    0    0  501  503 -0.00000000000E+00 -0.00000000000E+00 -0.79283984989E+02  0.79283984989E+02  0.00000000000E+00 0. -1.
          6    2    1    2  501    0  0.73668906596E+02  0.24649138320E+03  0.48579184031E+03  0.57589764190E+03  0.17169528836E+03 0.  0.
         24    2    3    3    0    0  0.61048988982E+02  0.66154588022E+02  0.14346571279E+03  0.18874148530E+03  0.83291830052E+02 0.  0.
         -6    2    1    2    0  502 -0.73668906596E+02 -0.24649138320E+03  0.66103523237E+03  0.72949740076E+03  0.17033428745E+03 0.  0.
        -24    2    5    5    0    0  0.20424410198E+02 -0.16359678967E+03  0.37150403649E+03  0.41394159065E+03  0.78430384548E+02 0.  0.
          5    1    3    3  501    0  0.12619917614E+02  0.18033679518E+03  0.34232612752E+03  0.38715615661E+03  0.47000000000E+01 0. -1.
        -13    1    4    4    0    0  0.38729327136E+02 -0.95438065226E+01  0.71809046605E+02  0.82143680206E+02  0.00000000000E+00 0.  1.
         14    1    4    4    0    0  0.22319661846E+02  0.75698394544E+02  0.71656666188E+02  0.10659780509E+03  0.00000000000E+00 0. -1.
         -5    1    5    5    0  502 -0.94093316794E+02 -0.82894593525E+02  0.28953119588E+03  0.31555581011E+03  0.47000000000E+01 0.  1.
         13    1    6    6    0    0 -0.15308680441E+02 -0.12749819133E+03  0.29906706916E+03  0.32547082257E+03  0.00000000000E+00 0. -1.
        -14    1    6    6    0    0  0.35733090639E+02 -0.36098598341E+02  0.72436967331E+02  0.88470768082E+02  0.00000000000E+00 0.  1.
</event>
<event>
12    1  0.8113184E-002  0.2571928E+03  0.7818608E-02  0.1109398E+00
         21   -1    0    0  501  502  0.00000000000E+00  0.00000000000E+00  0.10881234799E+03  0.10881234799E+03  0.00000000000E+00 0. -1.
         21   -1    0    0  502  503 -0.00000000000E+00 -0.00000000000E+00 -0.77683134965E+03  0.77683134965E+03  0.00000000000E+00 0.  1.
         -6    2    1    2    0  503 -0.58460374598E+02 -0.17682260057E+03 -0.54382638957E+03  0.60003564231E+03  0.17208074438E+03 0.  0.
        -24    2    3    3    0    0 -0.11924257051E+02 -0.74401193136E+02 -0.13382407168E+03  0.17485362763E+03  0.83589374251E+02 0.  0.
          6    2    1    2  501    0  0.58460374598E+02  0.17682260057E+03 -0.12419261209E+03  0.28560805533E+03  0.17738181672E+03 0.  0.
         24    2    5    5    0    0  0.51940711003E+02  0.14682281000E+03 -0.16087743550E+03  0.23754185394E+03  0.79308310555E+02 0.  0.
          5    1    5    5  501    0  0.65196635941E+01  0.29999790563E+02  0.36684823414E+02  0.48066201391E+02  0.47000000000E+01 0. -1.
        -11    1    6    6    0    0 -0.20062281596E+02  0.48931876278E+02 -0.55973497940E+02  0.77005559089E+02  0.00000000000E+00 0.  1.
         12    1    6    6    0    0  0.72002992599E+02  0.97890933726E+02 -0.10490393756E+03  0.16053629485E+03  0.00000000000E+00 0. -1.
         -5    1    3    3    0  503 -0.46536117547E+02 -0.10242140743E+03 -0.41000231789E+03  0.42518201468E+03  0.47000000000E+01 0.  1.
         13    1    4    4    0    0  0.19689117202E+01  0.74748055361E+01  0.76057445872E+01  0.10844200380E+02  0.00000000000E+00 0. -1.
        -14    1    4    4    0    0 -0.13893168771E+02 -0.81875998672E+02 -0.14142981627E+03  0.16400942725E+03  0.00000000000E+00 0.  1.
</event>
<event>
12    1  0.8113184E-002  0.1776535E+03  0.7818608E-02  0.1170679E+00
         21   -1    0    0  501  502  0.00000000000E+00  0.00000000000E+00  0.92412042427E+02  0.92412042427E+02  0.00000000000E+00 0. -1.
         21   -1    0    0  502  503 -0.00000000000E+00 -0.00000000000E+00 -0.46524343822E+03  0.46524343822E+03  0.00000000000E+00 0. -1.
         -6    2    1    2    0  503  0.25848104330E+02 -0.22192586820E+02 -0.40930268843E+02  0.18230756545E+03  0.17435631937E+03 0.  0.
        -24    2    3    3    0    0  0.11243558490E+02  0.47579385068E+02 -0.56064465136E+02  0.10928322213E+03  0.80058621626E+02 0.  0.
          6    2    1    2  501    0 -0.25848104330E+02  0.22192586820E+02 -0.33190112695E+03  0.37534791520E+03  0.17195076029E+03 0.  0.
         24    2    5    5    0    0 -0.18264545896E+02 -0.54284115781E+02 -0.18385683615E+03  0.20847850986E+03  0.79872360743E+02 0.  0.
          5    1    5    5  501    0 -0.75835584339E+01  0.76476702602E+02 -0.14804429080E+03  0.16686940534E+03  0.47000000000E+01 0. -1.
        -11    1    6    6    0    0  0.94169683881E+01 -0.10438244839E+02  0.31576399204E+01  0.14408571713E+02  0.00000000000E+00 0.  1.
         12    1    6    6    0    0 -0.27681514284E+02 -0.43845870942E+02 -0.18701447607E+03  0.19406993814E+03  0.00000000000E+00 0. -1.
         -5    1    3    3    0  503  0.14604545840E+02 -0.69771971888E+02  0.15134196293E+02  0.73024343323E+02  0.47000000000E+01 0.  1.
         11    1    4    4    0    0 -0.30632744030E+02  0.37873762412E+02 -0.18205716485E+02  0.52002259555E+02  0.00000000000E+00 0. -1.
        -12    1    4    4    0    0  0.41876302520E+02  0.97056226553E+01 -0.37858748651E+02  0.57280962573E+02  0.00000000000E+00 0.  1.
</event>
<event>
12    1  0.8113184E-002  0.1984938E+03  0.7818608E-02  0.1151755E+00
         21   -1    0    0  501  502  0.00000000000E+00  0.00000000000E+00  0.15780360035E+03  0.15780360035E+03  0.00000000000E+00 0. -1.
         21   -1    0    0  502  503 -0.00000000000E+00 -0.00000000000E+00 -0.39251275310E+03  0.39251275310E+03  0.00000000000E+00 0. -1.
         -6    2    1    2    0  503 -0.91052898526E+02 -0.30285758025E+02 -0.28646143942E+03  0.34851104239E+03  0.17375826003E+03 0.  0.
        -24    2    3    3    0    0 -0.10832213628E+03 -0.65553655656E+02 -0.26253672930E+03  0.30228839719E+03  0.80135971095E+02 0.  0.
          6    2    1    2  501    0  0.91052898526E+02  0.30285758025E+02  0.51752286669E+02  0.20180531106E+03  0.16982116160E+03 0.  0.
         24    2    5    5    0    0 -0.12315898563E+02  0.39549667743E+02  0.12405552704E+02  0.90714430657E+02  0.79745549190E+02 0.  0.
          5    1    5    5  501    0  0.10336879709E+03 -0.92639097174E+01  0.39346733965E+02  0.11109088040E+03  0.47000000000E+01 0. -1.
        -13    1    6    6    0    0 -0.25080304707E+02 -0.18026448358E+02  0.40037655630E+01  0.31144897869E+02  0.00000000000E+00 0.  1.
         14    1    6    6    0    0  0.12764406144E+02  0.57576116101E+02  0.84017871415E+01  0.59569532788E+02  0.00000000000E+00 0. -1.
         -5    1    3    3    0  503  0.17269237750E+02  0.35267897630E+02 -0.23924710113E+02  0.46222645204E+02  0.47000000000E+01 0.  1.
         13    1    4    4    0    0 -0.50612079573E+02  0.12945720316E+02 -0.98607103389E+02  0.11159092755E+03  0.00000000000E+00 0. -1.
        -14    1    4    4    0    0 -0.57710056703E+02 -0.78499375972E+02 -0.16392962591E+03  0.19069746963E+03  0.00000000000E+00 0.  1.
</event>
<event>
12    1  0.8113184E-002  0.1965413E+03  0.7818608E-02  0.1152924E+00
         21   -1    0    0  503  502  0.00000000000E+00  0.00000000000E+00  0.96397102714E+02  0.96397102714E+02  0.00000000000E+00 0.  1.
         21   -1    0    0  501  503 -0.00000000000E+00 -0.00000000000E+00 -0.40606507925E+03  0.40606507925E+03  0.00000000000E+00 0. -1.
          6    2    1    2  501    0  0.91729210920E+02 -0.21168384755E+02 -0.18949172237E+03  0.27301208270E+03  0.17252865214E+03 0.  0.
         24    2    3    3    0    0  0.56338839905E+02  0.18702453361E+02 -0.19516806831E+03  0.21919319201E+03  0.80194974234E+02 0.  0.
         -6    2    1    2    0  502 -0.91729210920E+02  0.21168384755E+02 -0.12017625417E+03  0.22945009926E+03  0.17129701496E+03 0.  0.
        -24    2    5    5    0    0 -0.93811965217E+02 -0.66243820513E+01 -0.14537221213E+03  0.19158584105E+03  0.82021260510E+02 0.  0.
          5    1    3    3  501    0  0.35390371015E+02 -0.39870838116E+02  0.56763459398E+01  0.53818890697E+02  0.47000000000E+01 0. -1.
        -13    1    4    4    0    0  0.31930471067E+02  0.93619418340E+01 -0.13917190587E+02  0.36067840679E+02  0.00000000000E+00 0.  1.
         14    1    4    4    0    0  0.24408368838E+02  0.93405115274E+01 -0.18125087772E+03  0.18312535133E+03  0.00000000000E+00 0. -1.
         -5    1    5    5    0  502  0.20827542976E+01  0.27792766806E+02  0.25195957961E+02  0.37864258210E+02  0.47000000000E+01 0.  1.
         13    1    6    6    0    0 -0.20964236885E+02 -0.35404843134E+02 -0.78354520067E+02  0.88501033669E+02  0.00000000000E+00 0. -1.
        -14    1    6    6    0    0 -0.72847728332E+02  0.28780461082E+02 -0.67017692060E+02  0.10308480738E+03  0.00000000000E+00 0.  1.
</event>
<event>
12    1  0.8113184E-002  0.1867891E+03  0.7818608E-02  0.1161504E+00
         21   -1    0    0  503  502  0.00000000000E+00  0.00000000000E+00  0.72085749138E+03  0.72085749138E+03  0.00000000000E+00 0.  1.
         21   -1    0    0  501  503 -0.00000000000E+00 -0.00000000000E+00 -0.48584925378E+02  0.48584925378E+02  0.00000000000E+00 0. -1.
          6    2    1    2  501    0 -0.39303226451E+02  0.61944813139E+02  0.30486267097E+03  0.35727717208E+03  0.17124201020E+03 0.  0.
         24    2    3    3    0    0 -0.17508482698E+02 -0.17120420837E+02  0.23890684263E+03  0.25192735780E+03  0.76100317821E+02 0.  0.
         -6    2    1    2    0  502  0.39303226451E+02 -0.61944813139E+02  0.36740989503E+03  0.41216524468E+03  0.17177966837E+03 0.  0.
        -24    2    5    5    0    0  0.10017456787E+01 -0.64007069754E+02  0.10020283475E+03  0.14217828314E+03  0.77949648062E+02 0.  0.
          5    1    3    3  501    0 -0.21794743753E+02  0.79065233976E+02  0.65955828335E+02  0.10534981429E+03  0.47000000000E+01 0. -1.
        -11    1    4    4    0    0 -0.24643824869E+02  0.23385472635E+02  0.15239891126E+03  0.15613976619E+03  0.00000000000E+00 0.  1.
         12    1    4    4    0    0  0.71353421715E+01 -0.40505893472E+02  0.86507931378E+02  0.95787591603E+02  0.00000000000E+00 0. -1.
         -5    1    5    5    0  502  0.38301480772E+02  0.20622566145E+01  0.26720706029E+03  0.26998696153E+03  0.47000000000E+01 0.  1.
         11    1    6    6    0    0 -0.18493720216E+02  0.10958840973E+02  0.11374619343E+02  0.24320687657E+02  0.00000000000E+00 0. -1.
        -12    1    6    6    0    0  0.19495465895E+02 -0.74965910727E+02  0.88828215406E+02  0.11785759549E+03  0.00000000000E+00 0.  1.
</event>
<event>
12    1  0.8113184E-002  0.2087079E+03  0.7818608E-02  0.1142711E+00
         21   -1    0    0  501  502  0.00000000000E+00  0.00000000000E+00  0.80782746921E+02  0.80782746921E+02  0.00000000000E+00 0. -1.
         21   -1    0    0  502  503 -0.00000000000E+00 -0.00000000000E+00 -0.64206511513E+03  0.64206511513E+03  0.00000000000E+00 0.  1.
         -6    2    1    2    0  503  0.82136223094E+02  0.87749153306E+02 -0.13525360718E+03  0.24870166284E+03  0.17062445836E+03 0.  0.
        -24    2    3    3    0    0  0.66348082731E+01  0.44327333938E+02 -0.60700745488E+01  0.92828659591E+02  0.81064055052E+02 0.  0.
          6    2    1    2  501    0 -0.82136223094E+02 -0.87749153306E+02 -0.42602876103E+03  0.47414619922E+03  0.16990538531E+03 0.  0.
         24    2    5    5    0    0 -0.38897442312E+02  0.20870369903E+02 -0.21074844885E+03  0.22912478016E+03  0.78324152288E+02 0.  0.
          5    1    5    5  501    0 -0.43238780782E+02 -0.10861952321E+03 -0.21528031218E+03  0.24502141906E+03  0.47000000000E+01 0. -1.
        -11    1    6    6    0    0  0.15537168018E+02 -0.16187804294E+02 -0.74351823668E+02  0.77663648386E+02  0.00000000000E+00 0.  1.
         12    1    6    6    0    0 -0.54434610330E+02  0.37058174197E+02 -0.13639662518E+03  0.15146113177E+03  0.00000000000E+00 0. -1.
         -5    1    3    3    0  503  0.75501414821E+02  0.43421819368E+02 -0.12918353263E+03  0.15587300325E+03  0.47000000000E+01 0.  1.
         13    1    4    4    0    0  0.32636814503E+02  0.52665656750E+02 -0.15626376354E+02  0.63898487461E+02  0.00000000000E+00 0. -1.
        -14    1    4    4    0    0 -0.26002006230E+02 -0.83383228124E+01  0.95563018049E+01  0.28930172130E+02  0.00000000000E+00 0.  1.
</event>
<event>
12    1  0.8113184E-002  0.1896079E+03  0.7818608E-02  0.1159005E+00
         21   -1    0    0  501  502  0.00000000000E+00  0.00000000000E+00  0.12080461448E+03  0.12080461448E+03  0.00000000000E+00 0.  1.
         21   -1    0    0  502  503 -0.00000000000E+00 -0.00000000000E+00 -0.56981848863E+03  0.56981848863E+03  0.00000000000E+00 0.  1.
         -6    2    1    2    0  503 -0.60202700560E+02 -0.53110834929E+02 -0.46349510468E+03  0.50046300802E+03  0.17085193706E+03 0.  0.
        -24    2    3    3    0    0 -0.97779187735E+02 -0.12682954850E+02 -0.25973297537E+03  0.28930548100E+03  0.80714409784E+02 0.  0.
          6    2    1    2  501    0  0.60202700560E+02  0.53110834929E+02  0.14481230526E+02  0.19016009510E+03  0.17177319287E+03 0.  0.
         24    2    5    5    0    0  0.51275790389E+02  0.48325060771E+01 -0.50605592943E+02  0.10849693724E+03  0.80982094060E+02 0.  0.
          5    1    5    5  501    0  0.89269101707E+01  0.48278328852E+02  0.65086823468E+02  0.81663157856E+02  0.47000000000E+01 0. -1.
        -13    1    6    6    0    0  0.16352360855E+02 -0.37202457614E+02 -0.15235135263E+02  0.43399676318E+02  0.00000000000E+00 0.  1.
         14    1    6    6    0    0  0.34923429534E+02  0.42034963691E+02 -0.35370457679E+02  0.65097260921E+02  0.00000000000E+00 0. -1.
         -5    1    3    3    0  503  0.37576487176E+02 -0.40427880079E+02 -0.20376212931E+03  0.21115752702E+03  0.47000000000E+01 0.  1.
         11    1    4    4    0    0 -0.52224636840E+02 -0.21745452635E+02 -0.53345655038E+02  0.77756262223E+02  0.00000000000E+00 0. -1.
        -12    1    4    4    0    0 -0.45554550895E+02  0.90624977853E+01 -0.20638732033E+03  0.21154921878E+03  0.00000000000E+00 0.  1.
</event>
<event>
12    1  0.8113184E-002  0.1911083E+03  0.7818608E-02  0.1158066E+00
         21   -1    0    0  501  502  0.00000000000E+00  0.00000000000E+00  0.62889635992E+02  0.62889635992E+02  0.00000000000E+00 0. -1.
         21   -1    0    0  502  503 -0.00000000000E+00 -0.00000000000E+00 -0.72971485089E+03  0.72971485089E+03  0.00000000000E+00 0. -1.
         -6    2    1    2    0  503  0.63520687995E+01  0.73831681256E+02 -0.51909291720E+03  0.55315443336E+03  0.17615590969E+03 0.  0.
        -24    2    3    3    0    0 -0.59401911445E+02  0.19577078412E+02 -0.33958885485E+03  0.35438082784E+03  0.79707789596E+02 0.  0.
          6    2    1    2  501    0 -0.63520687995E+01 -0.73831681256E+02 -0.14773229769E+03  0.23945005352E+03  0.17326289394E+03 0.  0.
         24    2    5    5    0    0  0.61660356519E+02 -0.28998484648E+02 -0.72796402911E+02  0.12866565100E+03  0.81318028705E+02 0.  0.
          5    1    5    5  501    0 -0.68012425318E+02 -0.44833196608E+02 -0.74935894783E+02  0.11078440252E+03  0.47000000000E+01 0. -1.
        -13    1    6    6    0    0 -0.22192847094E+01  0.23076663857E+02 -0.21308979883E+02  0.31488573531E+02  0.00000000000E+00 0.  1.
         14    1    6    6    0    0  0.63879641228E+02 -0.52075148505E+02 -0.51487423028E+02  0.97177077468E+02  0.00000000000E+00 0. -1.
         -5    1    3    3    0  503  0.65753980244E+02  0.54254602843E+02 -0.17950406235E+03  0.19877360552E+03  0.47000000000E+01 0.  1.
         11    1    4    4    0    0 -0.76008522138E+01  0.37316342269E+02 -0.21419002162E+03  0.21754918459E+03  0.00000000000E+00 0. -1.
        -12    1    4    4    0    0 -0.51801059231E+02 -0.17739263856E+02 -0.12539883322E+03  0.13683164325E+03  0.00000000000E+00 0.  1.
</event>
<event>
12    1  0.8113184E-002  0.1744377E+03  0.7818608E-02  0.1173475E+00
         21   -1    0    0  501  502  0.00000000000E+00  0.00000000000E+00  0.45571143297E+02  0.45571143297E+02  0.00000000000E+00 0.  1.
         21   -1    0    0  502  503 -0.00000000000E+00 -0.00000000000E+00 -0.93641161767E+03  0.93641161767E+03  0.00000000000E+00 0.  1.
         -6    2    1    2    0  503 -0.15069745763E+02  0.16672006200E+02 -0.71037883129E+03  0.73148247579E+03  0.17298403226E+03 0.  0.
        -24    2    3    3    0    0 -0.27500753851E+02 -0.56948157865E+02 -0.28860492492E+03  0.30312540907E+03  0.67770397572E+02 0.  0.
          6    2    1    2  501    0  0.15069745763E+02 -0.16672006200E+02 -0.18046164309E+03  0.25050028518E+03  0.17227575343E+03 0.  0.
         24    2    5    5    0    0 -0.56247462444E+02  0.41526815970E+01 -0.11566644547E+03  0.15180722847E+03  0.80533758216E+02 0.  0.
          5    1    5    5  501    0  0.71317208207E+02 -0.20824687797E+02 -0.64795197615E+02  0.98693056708E+02  0.47000000000E+01 0. -1.
        -11    1    6    6    0    0 -0.31111984473E+02 -0.36513310174E+02 -0.40779458577E+02  0.62961429777E+02  0.00000000000E+00 0.  1.
         12    1    6    6    0    0 -0.25135477971E+02  0.40665991771E+02 -0.74886986896E+02  0.88845798696E+02  0.00000000000E+00 0. -1.
         -5    1    3    3    0  503  0.12431008088E+02  0.73620164065E+02 -0.42177390636E+03  0.42835706672E+03  0.47000000000E+01 0.  1.
         13    1    4    4    0    0 -0.12193472041E+02 -0.35254392494E+02 -0.26495797183E+03  0.26757107427E+03  0.00000000000E+00 0. -1.
        -14    1    4    4    0    0 -0.15307281810E+02 -0.21693765371E+02 -0.23646953095E+02  0.35554334800E+02  0.00000000000E+00 0.  1.
</event>
<event>
12    1  0.8113184E-002  0.2030738E+03  0.7818608E-02  0.1147259E+00
         21   -1    0    0  503  502  0.00000000000E+00  0.00000000000E+00  0.21424025464E+03  0.21424025464E+03  0.00000000000E+00 0.  1.
         21   -1    0    0  501  503 -0.00000000000E+00 -0.00000000000E+00 -0.42156707972E+03  0.42156707972E+03  0.00000000000E+00 0.  1.
          6    2    1    2  501    0  0.10083506094E+03  0.32258633219E+02 -0.33816342605E+03  0.39423498114E+03  0.17279580062E+03 0.  0.
         24    2    3    3    0    0 -0.12160202659E+02  0.15729825563E+02 -0.93364808468E+02  0.12406913533E+03  0.79251908114E+02 0.  0.
         -6    2    1    2    0  502 -0.10083506094E+03 -0.32258633219E+02  0.13083660096E+03  0.24157235321E+03  0.17329355658E+03 0.  0.
        -24    2    5    5    0    0 -0.88258960039E+02 -0.37094073237E+02  0.16649214507E+02  0.12649677361E+03  0.80985326408E+02 0.  0.
          5    1    3    3  501    0  0.11299526360E+03  0.16528807656E+02 -0.24479861758E+03  0.27016584582E+03  0.47000000000E+01 0. -1.
        -11    1    4    4    0    0  0.30848330482E+02  0.21065933965E+02 -0.53025559375E+02  0.64862184779E+02  0.00000000000E+00 0.  1.
         12    1    4    4    0    0 -0.43008533141E+02 -0.53361084014E+01 -0.40339249093E+02  0.59206950549E+02  0.00000000000E+00 0. -1.
         -5    1    5    5    0  502 -0.12576100897E+02  0.48354400180E+01  0.11418738646E+03  0.11507557960E+03  0.47000000000E+01 0.  1.
         13    1    6    6    0    0 -0.96934084732E+02 -0.49860024612E+02  0.92996800171E+01  0.10940165851E+03  0.00000000000E+00 0. -1.
        -14    1    6    6    0    0  0.86751246923E+01  0.12765951375E+02  0.73495344896E+01  0.17095115096E+02  0.00000000000E+00 0.  1.
</event>
<event>
12    1  0.8113184E-002  0.4139658E+03  0.7818608E-02  0.1039050E+00
         21   -1    0    0  501  502  0.00000000000E+00  0.00000000000E+00  0.94986365187E+03  0.94986365187E+03  0.00000000000E+00 0. -1.
         21   -1    0    0  502  503 -0.00000000000E+00 -0.00000000000E+00 -0.25627709100E+03  0.25627709100E+03  0.00000000000E+00 0.  1.
         -6    2    1    2    0  503  0.54318673060E+02 -0.37281062393E+03  0.18663648162E+02  0.41438632056E+03  0.17155002578E+03 0.  0.
        -24    2    3    3    0    0 -0.16410478390E+01 -0.65445736221E+02 -0.31677702508E+01  0.10117175291E+03  0.77070431360E+02 0.  0.
          6    2    1    2  501    0 -0.54318673060E+02  0.37281062393E+03  0.67492291270E+03  0.79175442231E+03  0.17151048833E+03 0.  0.
         24    2    5    5    0    0  0.21554444073E+02  0.10480930778E+03  0.25143225384E+03  0.28485417226E+03  0.80462016668E+02 0.  0.
          5    1    5    5  501    0 -0.75873117133E+02  0.26800131615E+03  0.42349065886E+03  0.50690025006E+03  0.47000000000E+01 0. -1.
        -13    1    6    6    0    0  0.77989316078E+01  0.69695280829E+02  0.68350843027E+02  0.97929021472E+02  0.00000000000E+00 0.  1.
         14    1    6    6    0    0  0.13755512465E+02  0.35114026950E+02  0.18308141081E+03  0.18692515078E+03  0.00000000000E+00 0. -1.
         -5    1    3    3    0  503  0.55959720899E+02 -0.30736488771E+03  0.21831418413E+02  0.31321456765E+03  0.47000000000E+01 0.  1.
         11    1    4    4    0    0 -0.59545858328E+01 -0.81094967918E+02 -0.12772420558E+02  0.82310300940E+02  0.00000000000E+00 0. -1.
        -12    1    4    4    0    0  0.43135379938E+01  0.15649231696E+02  0.96046503068E+01  0.18861451965E+02  0.00000000000E+00 0.  1.
</event>
<event>
12    1  0.8113184E-002  0.1944584E+03  0.7818608E-02  0.1154555E+00
         21   -1    0    0  501  502  0.00000000000E+00  0.00000000000E+00  0.58585732130E+02  0.58585732130E+02  0.00000000000E+00 0. -1.
         21   -1    0    0  502  503 -0.00000000000E+00 -0.00000000000E+00 -0.66361595325E+03  0.66361595325E+03  0.00000000000E+00 0.  1.
         -6    2    1    2    0  503 -0.80691509575E+02 -0.39522645780E+02 -0.36342494177E+03  0.41206108084E+03  0.17217283989E+03 0.  0.
        -24    2    3    3    0    0 -0.16134537632E+02 -0.14921166909E+02 -0.62476008701E+02  0.10324853947E+03  0.79208867647E+02 0.  0.
          6    2    1    2  501    0  0.80691509575E+02  0.39522645780E+02 -0.24160527935E+03  0.31014060454E+03  0.17245557204E+03 0.  0.
         24    2    5    5    0    0 -0.19404290402E+02  0.46479119330E+02 -0.10717131912E+03  0.14232480862E+03  0.78954572299E+02 0.  0.
          5    1    5    5  501    0  0.10009579998E+03 -0.69564735505E+01 -0.13443396023E+03  0.16781579592E+03  0.47000000000E+01 0. -1.
        -11    1    6    6    0    0 -0.34433022649E+02  0.22690465675E+01 -0.82690526979E+02  0.89601924495E+02  0.00000000000E+00 0.  1.
         12    1    6    6    0    0  0.15028732247E+02  0.44210072763E+02 -0.24480792143E+02  0.52722884126E+02  0.00000000000E+00 0. -1.
         -5    1    3    3    0  503 -0.64556971943E+02 -0.24601478871E+02 -0.30094893307E+03  0.30881254137E+03  0.47000000000E+01 0.  1.
         13    1    4    4    0    0 -0.19114583967E+02 -0.43837811343E+02 -0.55672691418E+02  0.73393253050E+02  0.00000000000E+00 0. -1.
        -14    1    4    4    0    0  0.29800463351E+01  0.28916644433E+02 -0.68033172830E+01  0.29855286425E+02  0.00000000000E+00 0.  1.
</event>
<event>
12    1  0.8113184E-002  0.1767117E+03  0.7818608E-02  0.1171122E+00
         21   -1    0    0  501  502  0.00000000000E+00  0.00000000000E+00  0.23141644814E+03  0.23141644814E+03  0.00000000000E+00 0.  1.
         21   -1    0    0  502  503 -0.00000000000E+00 -0.00000000000E+00 -0.18239209627E+03  0.18239209627E+03  0.00000000000E+00 0.  1.
         -6    2    1    2    0  503  0.35749251445E+02  0.76035953216E+01 -0.81338629509E+02  0.19453272884E+03  0.17289067730E+03 0.  0.
        -24    2    3    3    0    0 -0.30328936114E+02 -0.36687343700E+02 -0.26746546487E+02  0.97938734823E+02  0.81306903005E+02 0.  0.
          6    2    1    2  501    0 -0.35749251445E+02 -0.76035953216E+01  0.13036298138E+03  0.21927581557E+03  0.17248638421E+03 0.  0.
         24    2    5    5    0    0 -0.50708490087E+02  0.47355153148E+02  0.11856118884E+03  0.16091816688E+03  0.83809542620E+02 0.  0.
          5    1    5    5  501    0  0.14959238642E+02 -0.54958748470E+02  0.11801792537E+02  0.58357648695E+02  0.47000000000E+01 0. -1.
        -13    1    6    6    0    0  0.12762836735E+02  0.80346661208E+01  0.70563900283E+02  0.72157535187E+02  0.00000000000E+00 0.  1.
         14    1    6    6    0    0 -0.63471326822E+02  0.39320487028E+02  0.47997288562E+02  0.88760631690E+02  0.00000000000E+00 0. -1.
         -5    1    3    3    0  503  0.66078187559E+02  0.44290939022E+02 -0.54592083023E+02  0.96593994013E+02  0.47000000000E+01 0.  1.
         11    1    4    4    0    0 -0.80782276738E+01  0.93123164471E+01  0.23334185715E+02  0.26390551774E+02  0.00000000000E+00 0. -1.
        -12    1    4    4    0    0 -0.22250708441E+02 -0.45999660147E+02 -0.50080732202E+02  0.71548183049E+02  0.00000000000E+00 0.  1.
</event>
<event>
12    1  0.8113184E-002  0.1820937E+03  0.7818608E-02  0.1166147E+00
         21   -1    0    0  501  502  0.00000000000E+00  0.00000000000E+00  0.13699236426E+03  0.13699236426E+03  0.00000000000E+00 0. -1.
         21   -1    0    0  502  503 -0.00000000000E+00 -0.00000000000E+00 -0.32812199946E+03  0.32812199946E+03  0.00000000000E+00 0. -1.
         -6    2    1    2    0  503 -0.15852249949E+02  0.57802359944E+02 -0.21574454098E+03  0.28136455329E+03  0.17037575602E+03 0.  0.
        -24    2    3    3    0    0  0.61747548372E+01 -0.30082212166E+02 -0.12375742867E+03  0.15216468569E+03  0.83036879364E+02 0.  0.
          6    2    1    2  501    0  0.15852249949E+02 -0.57802359944E+02  0.24614905782E+02  0.18374981043E+03  0.17194677259E+03 0.  0.
         24    2    5    5    0    0  0.73428570855E+02 -0.46230263675E+02  0.38345141256E+02  0.12325555031E+03  0.78693001769E+02 0.  0.
          5    1    5    5  501    0 -0.57576320907E+02 -0.11572096269E+02 -0.13730235474E+02  0.60494260119E+02  0.47000000000E+01 0. -1.
        -13    1    6    6    0    0  0.24632206666E+02  0.18480968018E+02 -0.52325662199E+01  0.31235741281E+02  0.00000000000E+00 0.  1.
         14    1    6    6    0    0  0.48796364189E+02 -0.64711231693E+02  0.43577707476E+02  0.92019809031E+02  0.00000000000E+00 0. -1.
         -5    1    3    3    0  503 -0.22027004786E+02  0.87884572110E+02 -0.91987112311E+02  0.12919986759E+03  0.47000000000E+01 0.  1.
         13    1    4    4    0    0 -0.28904651449E+02  0.13705594007E+02 -0.37835835289E+02  0.49546671074E+02  0.00000000000E+00 0. -1.
        -14    1    4    4    0    0  0.35079406287E+02 -0.43787806173E+02 -0.85921593382E+02  0.10261801462E+03  0.00000000000E+00 0.  1.
</event>
<event>
12    1  0.8113184E-002  0.2069864E+03  0.7818608E-02  0.1144304E+00
         21   -1    0    0  503  502  0.00000000000E+00  0.00000000000E+00  0.37532836199E+02  0.37532836199E+02  0.00000000000E+00 0.  1.
         21   -1    0    0  501  503 -0.00000000000E+00 -0.00000000000E+00 -0.12490317619E+04  0.12490317619E+04  0.00000000000E+00 0.  1.
          6    2    1    2  501    0  0.11039462349E+03 -0.26233720992E+02 -0.41146428223E+03  0.46059333807E+03  0.17311321877E+03 0.  0.
         24    2    3    3    0    0  0.55484206054E+02  0.43483955450E+02 -0.29741037170E+03  0.31600394407E+03  0.80226005561E+02 0.  0.
         -6    2    1    2    0  502 -0.11039462349E+03  0.26233720992E+02 -0.80003464347E+03  0.82597126003E+03  0.17116632446E+03 0.  0.
        -24    2    5    5    0    0 -0.14499086048E+03  0.34898849671E+02 -0.67328199220E+03  0.69421273593E+03  0.79889939113E+02 0.  0.
          5    1    3    3  501    0  0.54910417433E+02 -0.69717676443E+02 -0.11405391053E+03  0.14458939400E+03  0.47000000000E+01 0. -1.
        -11    1    4    4    0    0 -0.80293845223E+00  0.49955086222E+02 -0.14848159817E+03  0.15666186627E+03  0.00000000000E+00 0.  1.
         12    1    4    4    0    0  0.56287144506E+02 -0.64711307714E+01 -0.14892877353E+03  0.15934207780E+03  0.00000000000E+00 0. -1.
         -5    1    5    5    0  502  0.34596236995E+02 -0.86651286789E+01 -0.12675265126E+03  0.13175852410E+03  0.47000000000E+01 0.  1.
         13    1    6    6    0    0 -0.23463943397E+02 -0.29661452165E+01 -0.27658054148E+03  0.27758989640E+03  0.00000000000E+00 0. -1.
        -14    1    6    6    0    0 -0.12152691708E+03  0.37864994887E+02 -0.39670145073E+03  0.41662283953E+03  0.00000000000E+00 0.  1.
</event>
<event>
12    1  0.8113184E-002  0.1738418E+03  0.7818608E-02  0.1174093E+00
         21   -1    0    0  501  502  0.00000000000E+00  0.00000000000E+00  0.34861034137E+04  0.34861034137E+04  0.00000000000E+00 0.  1.
         21   -1    0    0  502  503 -0.00000000000E+00 -0.00000000000E+00 -0.13772369173E+02  0.13772369173E+02  0.00000000000E+00 0.  1.
         -6    2    1    2    0  503 -0.19080792046E+02 -0.62624094187E+01  0.66936640732E+03  0.69157238993E+03  0.17267799186E+03 0.  0.
        -24    2    3    3    0    0  0.16653386676E+02 -0.56925716798E+02  0.27858019561E+03  0.29587091722E+03  0.80092457512E+02 0.  0.
          6    2    1    2  501    0  0.19080792046E+02  0.62624094187E+01  0.28029646372E+04  0.28083033929E+04  0.17191246310E+03 0.  0.
         24    2    5    5    0    0  0.26865667824E+02  0.32019936896E+02  0.27081913999E+04  0.27096722061E+04  0.79219728727E+02 0.  0.
          5    1    5    5  501    0 -0.77848757787E+01 -0.25757527477E+02  0.94773237298E+02  0.98631186856E+02  0.47000000000E+01 0. -1.
        -11    1    6    6    0    0  0.51663199058E+01  0.54375138881E+02  0.13172251167E+04  0.13183570664E+04  0.00000000000E+00 0.  1.
         12    1    6    6    0    0  0.21699347919E+02 -0.22355201985E+02  0.13909662833E+04  0.13913151397E+04  0.00000000000E+00 0. -1.
         -5    1    3    3    0  503 -0.35734178722E+02  0.50663307380E+02  0.39078621171E+03  0.39570147271E+03  0.47000000000E+01 0.  1.
         11    1    4    4    0    0  0.23657551149E+01 -0.24890915898E+02  0.24823180288E+03  0.24948784029E+03  0.00000000000E+00 0. -1.
        -12    1    4    4    0    0  0.14287631561E+02 -0.32034800900E+02  0.30348392732E+02  0.46383076933E+02  0.00000000000E+00 0.  1.
</event>
<event>
12    1  0.8113184E-002  0.2274426E+03  0.7818608E-02  0.1128515E+00
         21   -1    0    0  501  502  0.00000000000E+00  0.00000000000E+00  0.17393182467E+03  0.17393182467E+03  0.00000000000E+00 0. -1.
         21   -1    0    0  502  503 -0.00000000000E+00 -0.00000000000E+00 -0.31208280464E+03  0.31208280464E+03  0.00000000000E+00 0.  1.
         -6    2    1    2    0  503  0.11705571107E+03 -0.91077609162E+02 -0.12252231817E+03  0.25803570086E+03  0.17196957314E+03 0.  0.
        -24    2    3    3    0    0  0.10116384406E+03 -0.28618246255E+02 -0.14513618739E+02  0.13217191495E+03  0.78775901190E+02 0.  0.
          6    2    1    2  501    0 -0.11705571107E+03  0.91077609162E+02 -0.15628661804E+02  0.22797892844E+03  0.17243249798E+03 0.  0.
         24    2    5    5    0    0 -0.27460990827E+02 -0.16597804209E+01 -0.45003497798E+02  0.95644472191E+02  0.79785270309E+02 0.  0.
          5    1    5    5  501    0 -0.89594720243E+02  0.92737389583E+02  0.29374835994E+02  0.13233445625E+03  0.47000000000E+01 0. -1.
        -13    1    6    6    0    0 -0.30458053402E+02  0.12561936672E+02 -0.63847266016E+02  0.71846841599E+02  0.00000000000E+00 0.  1.
         14    1    6    6    0    0  0.29970625747E+01 -0.14221717093E+02  0.18843768218E+02  0.23797630592E+02  0.00000000000E+00 0. -1.
         -5    1    3    3    0  503  0.15891867008E+02 -0.62459362907E+02 -0.10800869943E+03  0.12586378591E+03  0.47000000000E+01 0.  1.
         11    1    4    4    0    0  0.89147533239E+02 -0.53150626076E+02 -0.14889504107E+02  0.10485212953E+03  0.00000000000E+00 0. -1.
        -12    1    4    4    0    0  0.12016310823E+02  0.24532379820E+02  0.37588536763E+00  0.27319785418E+02  0.00000000000E+00 0.  1.
</event>
<event>
12    1  0.8113184E-002  0.1992175E+03  0.7818608E-02  0.1151150E+00
         21   -1    0    0  501  502  0.00000000000E+00  0.00000000000E+00  0.27223511234E+02  0.27223511234E+02  0.00000000000E+00 0. -1.
         21   -1    0    0  502  503 -0.00000000000E+00 -0.00000000000E+00 -0.14548562214E+04  0.14548562214E+04  0.00000000000E+00 0.  1.
         -6    2    1    2    0  503 -0.40141136409E+02 -0.91858700085E+02 -0.62788423744E+03  0.65873075668E+03  0.17215766773E+03 0.  0.
        -24    2    3    3    0    0  0.98247240109E+01 -0.10760252862E+03 -0.31519715442E+03  0.34165070807E+03  0.75505832869E+02 0.  0.
          6    2    1    2  501    0  0.40141136409E+02  0.91858700085E+02 -0.79974847267E+03  0.82334897590E+03  0.16809695107E+03 0.  0.
         24    2    5    5    0    0  0.23730024091E+02  0.60642847393E+02 -0.22642570516E+03  0.24892331508E+03  0.80333976915E+02 0.  0.
          5    1    5    5  501    0  0.16411112318E+02  0.31215852692E+02 -0.57332276751E+03  0.57442566082E+03  0.47000000000E+01 0. -1.
        -13    1    6    6    0    0 -0.14986642899E+02  0.47393156943E+02 -0.18137157836E+03  0.18805945928E+03  0.00000000000E+00 0.  1.
         14    1    6    6    0    0  0.38716666990E+02  0.13249690451E+02 -0.45054126808E+02  0.60863855795E+02  0.00000000000E+00 0. -1.
         -5    1    3    3    0  503 -0.49965860420E+02  0.15743828536E+02 -0.31268708302E+03  0.31708004862E+03  0.47000000000E+01 0.  1.
         11    1    4    4    0    0  0.22930768000E+02 -0.10415532497E+03 -0.30873585085E+03  0.32663737912E+03  0.00000000000E+00 0. -1.
        -12    1    4    4    0    0 -0.13106043989E+02 -0.34472036490E+01 -0.64613035750E+01  0.15013328942E+02  0.00000000000E+00 0.  1.
</event>
<event>
12    1  0.8113184E-002  0.3066504E+03  0.7818608E-02  0.1082299E+00
         21   -1    0    0  501  502  0.00000000000E+00  0.00000000000E+00  0.38097450743E+03  0.38097450743E+03  0.00000000000E+00 0.  1.
         21   -1    0    0  502  503 -0.00000000000E+00 -0.00000000000E+00 -0.39420322612E+03  0.39420322612E+03  0.00000000000E+00 0.  1.
         -6    2    1    2    0  503  0.23650969350E+03  0.83032010735E+02 -0.24535227022E+03  0.39057950222E+03  0.17182392478E+03 0.  0.
        -24    2    3    3    0    0  0.55588260404E+02 -0.15556555102E+02 -0.74240410827E+02  0.12271082415E+03  0.78830493221E+02 0.  0.
          6    2    1    2  501    0 -0.23650969350E+03 -0.83032010735E+02  0.23212355153E+03  0.38459823132E+03  0.17664457658E+03 0.  0.
         24    2    5    5    0    0 -0.23973875683E+03 -0.85518131222E+02  0.24999744421E+03  0.36567275419E+03  0.80186150619E+02 0.  0.
          5    1    5    5  501    0  0.32290633283E+01  0.24861204869E+01 -0.17873892682E+02  0.18925477132E+02  0.47000000000E+01 0. -1.
        -11    1    6    6    0    0 -0.95615081813E+02  0.42772394354E+01  0.72836619425E+02  0.12027348742E+03  0.00000000000E+00 0.  1.
         12    1    6    6    0    0 -0.14412367502E+03 -0.89795370657E+02  0.17716082478E+03  0.24539926677E+03  0.00000000000E+00 0. -1.
         -5    1    3    3    0  503  0.18092143310E+03  0.98588565836E+02 -0.17111185940E+03  0.26786867808E+03  0.47000000000E+01 0.  1.
         11    1    4    4    0    0  0.62590721266E+02  0.27339341634E+01 -0.80630605830E+02  0.10210958516E+03  0.00000000000E+00 0. -1.
        -12    1    4    4    0    0 -0.70024608621E+01 -0.18290489265E+02  0.63901950029E+01  0.20601238988E+02  0.00000000000E+00 0.  1.
</event>
<event>
12    1  0.8113184E-002  0.1913446E+03  0.7818608E-02  0.1157275E+00
         21   -1    0    0  503  502  0.00000000000E+00  0.00000000000E+00  0.68967159677E+02  0.68967159677E+02  0.00000000000E+00 0. -1.
         21   -1    0    0  501  503 -0.00000000000E+00 -0.00000000000E+00 -0.53177224131E+03  0.53177224131E+03  0.00000000000E+00 0.  1.
          6    2    1    2  501    0 -0.18598332552E+02 -0.82817375402E+02 -0.24548872311E+03  0.31125144223E+03  0.17148799222E+03 0.  0.
         24    2    3    3    0    0 -0.41075190092E+02 -0.99694193857E+02 -0.24874161672E+03  0.28256856506E+03  0.79664914118E+02 0.  0.
         -6    2    1    2    0  502  0.18598332552E+02  0.82817375402E+02 -0.21731635852E+03  0.28948795876E+03  0.17138338000E+03 0.  0.
        -24    2    5    5    0    0  0.57588215260E+02  0.12167267564E+01 -0.13261376503E+03  0.16548999040E+03  0.80514863754E+02 0.  0.
          5    1    3    3  501    0  0.22476857540E+02  0.16876818455E+02  0.32528936085E+01  0.28682877172E+02  0.47000000000E+01 0. -1.
        -13    1    4    4    0    0 -0.47194705798E+02 -0.40898310923E+02 -0.18672773716E+03  0.19689403220E+03  0.00000000000E+00 0.  1.
         14    1    4    4    0    0  0.61195157059E+01 -0.58795882935E+02 -0.62013879564E+02  0.85674532862E+02  0.00000000000E+00 0. -1.
         -5    1    5    5    0  502 -0.38989882708E+02  0.81600648646E+02 -0.84702593495E+02  0.12399796836E+03  0.47000000000E+01 0.  1.
         13    1    6    6    0    0  0.66074815541E+02  0.57506567120E+01 -0.51933454873E+02  0.84237966716E+02  0.00000000000E+00 0. -1.
        -14    1    6    6    0    0 -0.84866002815E+01 -0.45339299556E+01 -0.80680310157E+02  0.81252023680E+02  0.00000000000E+00 0.  1.
</event>
<event>
12    1  0.8113184E-002  0.2289406E+03  0.7818608E-02  0.1127569E+00
         21   -1    0    0  503  502  0.00000000000E+00  0.00000000000E+00  0.62537833924E+03  0.62537833924E+03  0.00000000000E+00 0. -1.
         21   -1    0    0  501  503 -0.00000000000E+00 -0.00000000000E+00 -0.23533999121E+03  0.23533999121E+03  0.00000000000E+00 0.  1.
          6    2    1    2  501    0 -0.93943046027E+01  0.15232280261E+03 -0.15088755691E+03  0.27333888541E+03  0.16928261072E+03 0.  0.
         24    2    3    3    0    0 -0.61996437820E+02  0.94605856066E+02 -0.53857239088E+02  0.14869859130E+03  0.80105196770E+02 0.  0.
         -6    2    1    2    0  502  0.93943046027E+01 -0.15232280261E+03  0.54092590494E+03  0.58737944505E+03  0.17065546776E+03 0.  0.
        -24    2    5    5    0    0  0.33015144348E+02 -0.73097310779E+02  0.45062061593E+03  0.46485696610E+03  0.81239416690E+02 0.  0.
          5    1    3    3  501    0  0.52602133217E+02  0.57716946544E+02 -0.97030317822E+02  0.12464029410E+03  0.47000000000E+01 0. -1.
        -11    1    4    4    0    0 -0.20909504383E+02  0.60328651767E+02  0.10816950263E+02  0.64759246525E+02  0.00000000000E+00 0.  1.
         12    1    4    4    0    0 -0.41086933437E+02  0.34277204299E+02 -0.64674189351E+02  0.83939344779E+02  0.00000000000E+00 0. -1.
         -5    1    5    5    0  502 -0.23620839745E+02 -0.79225491831E+02  0.90305289005E+02  0.12252247895E+03  0.47000000000E+01 0.  1.
         13    1    6    6    0    0 -0.16178411893E+02 -0.33347619040E+02  0.71896988258E+02  0.80888699010E+02  0.00000000000E+00 0. -1.
        -14    1    6    6    0    0  0.49193556241E+02 -0.39749691739E+02  0.37872362768E+03  0.38396826709E+03  0.00000000000E+00 0.  1.
</event>
<event>
12    1  0.8113184E-002  0.2055031E+03  0.7818608E-02  0.1145192E+00
         21   -1    0    0  501  502  0.00000000000E+00  0.00000000000E+00  0.59933972601E+02  0.59933972601E+02  0.00000000000E+00 0.  1.
         21   -1    0    0  502  503 -0.00000000000E+00 -0.00000000000E+00 -0.18395141880E+04  0.18395141880E+04  0.00000000000E+00 0.  1.
         -6    2    1    2    0  503  0.58522086448E+02 -0.95932429642E+02 -0.16359035082E+04  0.16487606857E+04  0.17205709728E+03 0.  0.
        -24    2    3    3    0    0  0.40735221266E+02 -0.11515426970E+03 -0.15742995491E+04  0.15816563677E+04  0.91092980806E+02 0.  0.
          6    2    1    2  501    0 -0.58522086448E+02  0.95932429642E+02 -0.14367670722E+03  0.25068747498E+03  0.17196903283E+03 0.  0.
         24    2    5    5    0    0 -0.77910778054E+02  0.12289938544E+03 -0.96580989497E+02  0.19286676333E+03  0.81825134197E+02 0.  0.
          5    1    5    5  501    0  0.19388691605E+02 -0.26966955801E+02 -0.47095717721E+02  0.57820711644E+02  0.47000000000E+01 0. -1.
        -11    1    6    6    0    0 -0.37409907444E+02  0.38496121748E+02 -0.82165500394E+02  0.98145922074E+02  0.00000000000E+00 0.  1.
         12    1    6    6    0    0 -0.40500870609E+02  0.84403263696E+02 -0.14415489103E+02  0.94720841258E+02  0.00000000000E+00 0. -1.
         -5    1    3    3    0  503  0.17786865183E+02  0.19221840055E+02 -0.61603959106E+02  0.67104317936E+02  0.47000000000E+01 0.  1.
         13    1    4    4    0    0 -0.21719088816E+02 -0.11357369038E+02 -0.13033483280E+03  0.13261929457E+03  0.00000000000E+00 0. -1.
        -14    1    4    4    0    0  0.62454310082E+02 -0.10379690066E+03 -0.14439647163E+04  0.14490370732E+04  0.00000000000E+00 0.  1.
</event>
<event>
12    1  0.8113184E-002  0.2338323E+03  0.7818608E-02  0.1124109E+00
         21   -1    0    0  501  502  0.00000000000E+00  0.00000000000E+00  0.57659570325E+03  0.57659570325E+03  0.00000000000E+00 0.  1.
         21   -1    0    0  502  503 -0.00000000000E+00 -0.00000000000E+00 -0.52249141053E+03  0.52249141053E+03  0.00000000000E+00 0.  1.
         -6    2    1    2    0  503 -0.27301879340E+02 -0.15615089922E+03 -0.47030682436E+03  0.52522953991E+03  0.17189841363E+03 0.  0.
        -24    2    3    3    0    0  0.13193776038E+02 -0.15735989347E+03 -0.34483369590E+03  0.39329411731E+03  0.10408541242E+03 0.  0.
          6    2    1    2  501    0  0.27301879340E+02  0.15615089922E+03  0.52441111708E+03  0.57385757387E+03  0.17081276133E+03 0.  0.
         24    2    5    5    0    0  0.21800447592E+02  0.18571124507E+03  0.45460459266E+03  0.49770561625E+03  0.77984733892E+02 0.  0.
          5    1    5    5  501    0  0.55014317478E+01 -0.29560345850E+02  0.69806524421E+02  0.76151957623E+02  0.47000000000E+01 0. -1.
        -13    1    6    6    0    0  0.30051488855E+02  0.28559676177E+02  0.13887534101E+03  0.14493138868E+03  0.00000000000E+00 0.  1.
         14    1    6    6    0    0 -0.82510412630E+01  0.15715156889E+03  0.31572925165E+03  0.35277422757E+03  0.00000000000E+00 0. -1.
         -5    1    3    3    0  503 -0.40495655378E+02  0.12089942527E+01 -0.12547312846E+03  0.13193542260E+03  0.47000000000E+01 0.  1.
         13    1    4    4    0    0 -0.33593109223E+02 -0.31067518056E+02 -0.14708822618E+03  0.15404101384E+03  0.00000000000E+00 0. -1.
        -14    1    4    4    0    0  0.46786885261E+02 -0.12629237542E+03 -0.19774546972E+03  0.23925310346E+03  0.00000000000E+00 0.  1.
</event>
<event>
12    1  0.8113184E-002  0.1787377E+03  0.7818608E-02  0.1169060E+00
         21   -1    0    0  503  502  0.00000000000E+00  0.00000000000E+00  0.17780893753E+04  0.17780893753E+04  0.00000000000E+00 0.  1.
         21   -1    0    0  501  503 -0.00000000000E+00 -0.00000000000E+00 -0.19806172375E+02  0.19806172375E+02  0.00000000000E+00 0.  1.
          6    2    1    2  501    0 -0.47273377170E+02 -0.12779035749E+02  0.60458656062E+03  0.63045387344E+03  0.17189852038E+03 0.  0.
         24    2    3    3    0    0 -0.49739376346E+01  0.55909741610E+02  0.29101979729E+03  0.30664282393E+03  0.78655322702E+02 0.  0.
         -6    2    1    2    0  502  0.47273377170E+02  0.12779035749E+02  0.11536966423E+04  0.11674416743E+04  0.17177323521E+03 0.  0.
        -24    2    5    5    0    0  0.62901144787E+02 -0.40740343258E+02  0.52116502058E+03  0.53244018326E+03  0.79140637459E+02 0.  0.
          5    1    3    3  501    0 -0.42299439535E+02 -0.68688777359E+02  0.31356676333E+03  0.32381104951E+03  0.47000000000E+01 0. -1.
        -13    1    4    4    0    0 -0.23857422713E+02 -0.81049143429E+01  0.12859480690E+03  0.13104003440E+03  0.00000000000E+00 0.  1.
         14    1    4    4    0    0  0.18883485078E+02  0.64014655953E+02  0.16242499040E+03  0.17560278953E+03  0.00000000000E+00 0. -1.
         -5    1    5    5    0  502 -0.15627767617E+02  0.53519379006E+02  0.63253162177E+03  0.63500149102E+03  0.47000000000E+01 0.  1.
         11    1    6    6    0    0  0.19869091734E+02 -0.14783275494E+02  0.40640581366E+03  0.40715968786E+03  0.00000000000E+00 0. -1.
        -12    1    6    6    0    0  0.43032053053E+02 -0.25957067764E+02  0.11475920692E+03  0.12528049540E+03  0.00000000000E+00 0.  1.
</event>
<event>
12    1  0.8113184E-002  0.1747186E+03  0.7818608E-02  0.1173456E+00
         21   -1    0    0  503  502  0.00000000000E+00  0.00000000000E+00  0.41618842231E+03  0.41618842231E+03  0.00000000000E+00 0.  1.
         21   -1    0    0  501  503 -0.00000000000E+00 -0.00000000000E+00 -0.76132668609E+02  0.76132668609E+02  0.00000000000E+00 0.  1.
          6    2    1    2  501    0 -0.25544429993E+02 -0.17571784769E+01  0.22211100632E+03  0.28151890695E+03  0.17106720978E+03 0.  0.
         24    2    3    3    0    0 -0.46485989105E+02 -0.29666627951E+02  0.22591791899E+03  0.24610607238E+03  0.80549591841E+02 0.  0.
         -6    2    1    2    0  502  0.25544429993E+02  0.17571784769E+01  0.11794474738E+03  0.21080218397E+03  0.17283226479E+03 0.  0.
        -24    2    5    5    0    0 -0.34474226385E+01  0.57530380298E+02  0.10894139579E+03  0.14712857955E+03  0.80355222752E+02 0.  0.
          5    1    3    3  501    0  0.20941559112E+02  0.27909449474E+02 -0.38069126709E+01  0.35412834567E+02  0.47000000000E+01 0. -1.
        -11    1    4    4    0    0 -0.12653744358E+02 -0.19544082929E+02  0.20226943939E+03  0.20360504546E+03  0.00000000000E+00 0.  1.
         12    1    4    4    0    0 -0.33832244747E+02 -0.10122545022E+02  0.23648479597E+02  0.42501026924E+02  0.00000000000E+00 0. -1.
         -5    1    5    5    0  502  0.28991852632E+02 -0.55773201821E+02  0.90033515957E+01  0.63673604424E+02  0.47000000000E+01 0.  1.
         11    1    6    6    0    0  0.19675413756E+02  0.62050214725E+02  0.10455559620E+03  0.12316340264E+03  0.00000000000E+00 0. -1.
        -12    1    6    6    0    0 -0.23122836395E+02 -0.45198344276E+01  0.43857995925E+01  0.23965176909E+02  0.00000000000E+00 0.  1.
</event>
<event>
12    1  0.8113184E-002  0.1885768E+03  0.7818608E-02  0.1159980E+00
         21   -1    0    0  503  502  0.00000000000E+00  0.00000000000E+00  0.23071982064E+03  0.23071982064E+03  0.00000000000E+00 0. -1.
         21   -1    0    0  501  503 -0.00000000000E+00 -0.00000000000E+00 -0.19173181536E+03  0.19173181536E+03  0.00000000000E+00 0. -1.
          6    2    1    2  501    0 -0.39840973380E+02  0.63179168076E+02 -0.75096830726E+02  0.20205074097E+03  0.17206410870E+03 0.  0.
         24    2    3    3    0    0 -0.91937867486E+02  0.25528472151E+02 -0.43856615885E+02  0.13042880088E+03  0.77356285937E+02 0.  0.
         -6    2    1    2    0  502  0.39840973380E+02 -0.63179168076E+02  0.11408483600E+03  0.22040089502E+03  0.17315396120E+03 0.  0.
        -24    2    5    5    0    0  0.22053331309E+02 -0.60372941669E+02 -0.57336418504E+01  0.99145656978E+02  0.75271144147E+02 0.  0.
          5    1    3    3  501    0  0.52096894106E+02  0.37650695925E+02 -0.31240214841E+02  0.71621940091E+02  0.47000000000E+01 0. -1.
        -11    1    4    4    0    0 -0.35989420064E+02  0.35439743585E+02  0.10730265425E+02  0.51636734773E+02  0.00000000000E+00 0.  1.
         12    1    4    4    0    0 -0.55948447422E+02 -0.99112714335E+01 -0.54586881310E+02  0.78792066108E+02  0.00000000000E+00 0. -1.
         -5    1    5    5    0  502  0.17787642071E+02 -0.28062264069E+01  0.11981847785E+03  0.12125523804E+03  0.47000000000E+01 0.  1.
         13    1    6    6    0    0  0.17663843913E+02 -0.17102909410E+02  0.32831847430E+02  0.41017692497E+02  0.00000000000E+00 0. -1.
        -14    1    6    6    0    0  0.43894873954E+01 -0.43270032259E+02 -0.38565489281E+02  0.58127964482E+02  0.00000000000E+00 0.  1.
</event>
<event>
12    1  0.8113184E-002  0.2654529E+03  0.7818608E-02  0.1103943E+00
         21   -1    0    0  501  502  0.00000000000E+00  0.00000000000E+00  0.10959035433E+04  0.10959035433E+04  0.00000000000E+00 0.  1.
         21   -1    0    0  502  503 -0.00000000000E+00 -0.00000000000E+00 -0.76204513273E+02  0.76204513273E+02  0.00000000000E+00 0.  1.
         -6    2    1    2    0  503 -0.17502076364E+03  0.10287646099E+03  0.27750330537E+03  0.38386968670E+03  0.17068104154E+03 0.  0.
        -24    2    3    3    0    0 -0.17861462889E+03  0.13147131429E+03  0.24480826250E+03  0.34003320268E+03  0.80644909351E+02 0.  0.
          6    2    1    2  501    0  0.17502076364E+03 -0.10287646099E+03  0.74219572469E+03  0.78823836991E+03  0.17102455998E+03 0.  0.
         24    2    5    5    0    0  0.16127627792E+03 -0.74989321653E+02  0.72819389444E+03  0.75381824965E+03  0.79637738705E+02 0.  0.
          5    1    5    5  501    0  0.13744485724E+02 -0.27887139339E+02  0.14001830251E+02  0.34420120260E+02  0.47000000000E+01 0. -1.
        -13    1    6    6    0    0  0.11346508900E+03 -0.53501488608E+02  0.34585184260E+03  0.36789975909E+03  0.00000000000E+00 0.  1.
         14    1    6    6    0    0  0.47811188912E+02 -0.21487833045E+02  0.38234205184E+03  0.38591849056E+03  0.00000000000E+00 0. -1.
         -5    1    3    3    0  503  0.35938652468E+01 -0.28594853298E+02  0.32695042868E+02  0.43836484014E+02  0.47000000000E+01 0.  1.
         13    1    4    4    0    0  0.54952250017E+01  0.19903926831E+02  0.19209446425E+02  0.28202245178E+02  0.00000000000E+00 0. -1.
        -14    1    4    4    0    0 -0.18410985389E+03  0.11156738746E+03  0.22559881608E+03  0.31183095751E+03  0.00000000000E+00 0.  1.
</event>
<event>
12    1  0.8113184E-002  0.2287251E+03  0.7818608E-02  0.1127620E+00
         21   -1    0    0  501  502  0.00000000000E+00  0.00000000000E+00  0.14189090810E+03  0.14189090810E+03  0.00000000000E+00 0. -1.
         21   -1    0    0  502  503 -0.00000000000E+00 -0.00000000000E+00 -0.37002054924E+03  0.37002054924E+03  0.00000000000E+00 0. -1.
         -6    2    1    2    0  503  0.99445115188E+02 -0.11153712348E+03 -0.95134980672E+02  0.24772131675E+03  0.17316271358E+03 0.  0.
        -24    2    3    3    0    0  0.75131154964E+02 -0.11075714024E+03 -0.13134699023E+03  0.20384448150E+03  0.79929382788E+02 0.  0.
          6    2    1    2  501    0 -0.99445115188E+02  0.11153712348E+03 -0.13299466046E+03  0.26419014059E+03  0.17256589995E+03 0.  0.
         24    2    5    5    0    0 -0.16731048870E+02  0.11809116662E+03 -0.96561089670E+02  0.17344837882E+03  0.80838384751E+02 0.  0.
          5    1    5    5  501    0 -0.82714066318E+02 -0.65540431322E+01 -0.36433570791E+02  0.90741761768E+02  0.47000000000E+01 0. -1.
        -11    1    6    6    0    0 -0.89407676393E+01  0.52784765695E+02  0.35629776483E+01  0.53655042868E+02  0.00000000000E+00 0.  1.
         12    1    6    6    0    0 -0.77902812309E+01  0.65306400920E+02 -0.10012406732E+03  0.11979333595E+03  0.00000000000E+00 0. -1.
         -5    1    3    3    0  503  0.24313960224E+02 -0.77998324192E+00  0.36212009560E+02  0.43876835255E+02  0.47000000000E+01 0.  1.
         11    1    4    4    0    0  0.40356613753E+02 -0.44235571879E+02 -0.11092290003E+03  0.12605289304E+03  0.00000000000E+00 0. -1.
        -12    1    4    4    0    0  0.34774541211E+02 -0.66521568362E+02 -0.20424090203E+02  0.77791588455E+02  0.00000000000E+00 0.  1.
</event>
<event>
12    1  0.8113184E-002  0.2756559E+03  0.7818608E-02  0.1098105E+00
         21   -1    0    0  501  502  0.00000000000E+00  0.00000000000E+00  0.18339590890E+04  0.18339590890E+04  0.00000000000E+00 0. -1.
         21   -1    0    0  502  503 -0.00000000000E+00 -0.00000000000E+00 -0.41476603445E+02  0.41476603445E+02  0.00000000000E+00 0. -1.
         -6    2    1    2    0  503 -0.65210758255E+01 -0.21610178627E+03  0.93353064334E+03  0.97337846528E+03  0.17100780142E+03 0.  0.
        -24    2    3    3    0    0 -0.40781594533E+02 -0.21198652286E+03  0.70433077707E+03  0.74154795125E+03  0.84912285008E+02 0.  0.
          6    2    1    2  501    0  0.65210758255E+01  0.21610178627E+03  0.85895184220E+03  0.90205722716E+03  0.17078192933E+03 0.  0.
         24    2    5    5    0    0 -0.35310311000E+02  0.12392271562E+03  0.32472334990E+03  0.35830267041E+03  0.79573187362E+02 0.  0.
          5    1    5    5  501    0  0.41831386825E+02  0.92179070653E+02  0.53422849231E+03  0.54375455674E+03  0.47000000000E+01 0. -1.
        -13    1    6    6    0    0 -0.51056953952E+02  0.52372815164E+02  0.20807404706E+03  0.22055505746E+03  0.00000000000E+00 0.  1.
         14    1    6    6    0    0  0.15746642952E+02  0.71549900456E+02  0.11664930284E+03  0.13774761295E+03  0.00000000000E+00 0. -1.
         -5    1    3    3    0  503  0.34260518707E+02 -0.41152634087E+01  0.22919986627E+03  0.23183051402E+03  0.47000000000E+01 0.  1.
         13    1    4    4    0    0 -0.33556964867E+02 -0.17307053190E+03  0.65495146520E+03  0.67826315001E+03  0.00000000000E+00 0. -1.
        -14    1    4    4    0    0 -0.72246296657E+01 -0.38915990963E+02  0.49379311880E+02  0.63284801241E+02  0.00000000000E+00 0.  1.
</event>
<event>
12    1  0.8113184E-002  0.1816216E+03  0.7818608E-02  0.1168185E+00
         21   -1    0    0  503  502  0.00000000000E+00  0.00000000000E+00  0.13265362302E+03  0.13265362302E+03  0.00000000000E+00 0. -1.
         21   -1    0    0  501  503 -0.00000000000E+00 -0.00000000000E+00 -0.35587168545E+03  0.35587168545E+03  0.00000000000E+00 0. -1.
          6    2    1    2  501    0 -0.15590622744E+02  0.36820345020E+01 -0.25387076044E+03  0.31214864312E+03  0.18091375707E+03 0.  0.
         24    2    3    3    0    0  0.40840485432E+02 -0.50367901727E+02 -0.13507627230E+03  0.16988098696E+03  0.80056727491E+02 0.  0.
         -6    2    1    2    0  502  0.15590622744E+02 -0.36820345020E+01  0.30652698017E+02  0.17637666536E+03  0.17295234977E+03 0.  0.
        -24    2    5    5    0    0  0.58274974597E+02  0.38361312828E+02 -0.73310541284E+01  0.10528199344E+03  0.78504718340E+02 0.  0.
          5    1    3    3  501    0 -0.56431108176E+02  0.54049936229E+02 -0.11879448814E+03  0.14226765616E+03  0.47000000000E+01 0. -1.
        -13    1    4    4    0    0  0.92020396089E+01 -0.16328579352E+01  0.99483274540E+01  0.13649651173E+02  0.00000000000E+00 0.  1.
         14    1    4    4    0    0  0.31638445823E+02 -0.48735043792E+02 -0.14502459975E+03  0.15623133578E+03  0.00000000000E+00 0. -1.
         -5    1    5    5    0  502 -0.42684351853E+02 -0.42043347331E+02  0.37983752146E+02  0.71094671916E+02  0.47000000000E+01 0.  1.
         11    1    6    6    0    0  0.24443807419E+02  0.49990562247E+01  0.34092183697E+02  0.42246506051E+02  0.00000000000E+00 0. -1.
        -12    1    6    6    0    0  0.33831167178E+02  0.33362256604E+02 -0.41423237825E+02  0.63035487388E+02  0.00000000000E+00 0.  1.
</event>
<event>
12    1  0.8113184E-002  0.2129667E+03  0.7818608E-02  0.1139955E+00
         21   -1    0    0  503  502  0.00000000000E+00  0.00000000000E+00  0.18367580151E+04  0.18367580151E+04  0.00000000000E+00 0. -1.
         21   -1    0    0  501  503 -0.00000000000E+00 -0.00000000000E+00 -0.28821529749E+02  0.28821529749E+02  0.00000000000E+00 0. -1.
          6    2    1    2  501    0  0.68299854289E+02  0.10600895323E+03  0.12680071128E+04  0.12851671477E+04  0.16706223772E+03 0.  0.
         24    2    3    3    0    0 -0.22259674858E+02  0.72555788874E+02  0.57463771092E+03  0.58509332308E+03  0.79786353919E+02 0.  0.
         -6    2    1    2    0  502 -0.68299854289E+02 -0.10600895323E+03  0.53992937260E+03  0.58041239715E+03  0.17161601065E+03 0.  0.
        -24    2    5    5    0    0 -0.92917149866E+02 -0.23959795639E+02  0.33462245878E+03  0.35790151120E+03  0.83148260695E+02 0.  0.
          5    1    3    3  501    0  0.90559529147E+02  0.33453164355E+02  0.69336940184E+03  0.70007382463E+03  0.47000000000E+01 0. -1.
        -11    1    4    4    0    0  0.15627311616E+02  0.38483447097E+02  0.42486081433E+03  0.42688628476E+03  0.00000000000E+00 0.  1.
         12    1    4    4    0    0 -0.37886986474E+02  0.34072341777E+02  0.14977689660E+03  0.15820703831E+03  0.00000000000E+00 0. -1.
         -5    1    5    5    0  502  0.24617295576E+02 -0.82049157590E+02  0.20530691382E+03  0.22251088595E+03  0.47000000000E+01 0.  1.
         13    1    6    6    0    0 -0.78532282214E+02 -0.48279819334E+02  0.19828531130E+03  0.21866715570E+03  0.00000000000E+00 0. -1.
        -14    1    6    6    0    0 -0.14384867651E+02  0.24320023695E+02  0.13633714748E+03  0.13923435550E+03  0.00000000000E+00 0.  1.
</event>
<event>
12    1  0.8113184E-002  0.2220494E+03  0.7818608E-02  0.1132398E+00
         21   -1    0    0  503  502  0.00000000000E+00  0.00000000000E+00  0.69742220450E+03  0.69742220450E+03  0.00000000000E+00 0. -1.
         21   -1    0    0  501  503 -0.00000000000E+00 -0.00000000000E+00 -0.71035738041E+02  0.71035738041E+02  0.00000000000E+00 0.  1.
          6    2    1    2  501    0 -0.81790848978E+01 -0.14039234612E+03  0.34177019292E+03  0.40746988038E+03  0.17160399287E+03 0.  0.
         24    2    3    3    0    0  0.48868737166E+02 -0.72974767685E+02  0.26490404442E+03  0.29029446201E+03  0.79895254760E+02 0.  0.
         -6    2    1    2    0  502  0.81790848978E+01  0.14039234612E+03  0.28461627354E+03  0.36098806216E+03  0.17184018617E+03 0.  0.
        -24    2    5    5    0    0 -0.23131937765E+02  0.10515384332E+03  0.92083779401E+02  0.16271304226E+03  0.80023086557E+02 0.  0.
          5    1    3    3  501    0 -0.57047822064E+02 -0.67417578434E+02  0.76866148496E+02  0.11717541836E+03  0.47000000000E+01 0. -1.
        -13    1    4    4    0    0  0.34106797671E+02 -0.28031409044E+02  0.37207767520E+02  0.57736050299E+02  0.00000000000E+00 0.  1.
         14    1    4    4    0    0  0.14761939495E+02 -0.44943358641E+02  0.22769627690E+03  0.23255841171E+03  0.00000000000E+00 0. -1.
         -5    1    5    5    0  502  0.31311022663E+02  0.35238502801E+02  0.19253249414E+03  0.19827501991E+03  0.47000000000E+01 0.  1.
         13    1    6    6    0    0  0.95212362442E+01 -0.62507955988E+01  0.27729696053E+02  0.29977698852E+02  0.00000000000E+00 0. -1.
        -14    1    6    6    0    0 -0.32653174009E+02  0.11140463892E+03  0.64354083348E+02  0.13273534340E+03  0.00000000000E+00 0.  1.
</event>
<event>
12    1  0.8113184E-002  0.1903822E+03  0.7818608E-02  0.1159096E+00
         21   -1    0    0  501  502  0.00000000000E+00  0.00000000000E+00  0.83662091838E+03  0.83662091838E+03  0.00000000000E+00 0.  1.
         21   -1    0    0  502  503 -0.00000000000E+00 -0.00000000000E+00 -0.42821074757E+02  0.42821074757E+02  0.00000000000E+00 0. -1.
         -6    2    1    2    0  503  0.69627217592E+02  0.29036333210E+02  0.35530813555E+03  0.40309954514E+03  0.17479792340E+03 0.  0.
        -24    2    3    3    0    0  0.88036474896E+02 -0.34422761918E+02  0.22439237562E+03  0.25637877733E+03  0.80267003040E+02 0.  0.
          6    2    1    2  501    0 -0.69627217592E+02 -0.29036333210E+02  0.43849170808E+03  0.47634244800E+03  0.17010611876E+03 0.  0.
         24    2    5    5    0    0 -0.11126212108E+03 -0.23364963981E+02  0.28329514296E+03  0.31548942987E+03  0.79701074061E+02 0.  0.
          5    1    5    5  501    0  0.41634903490E+02 -0.56713692298E+01  0.15519656512E+03  0.16085301813E+03  0.47000000000E+01 0. -1.
        -13    1    6    6    0    0 -0.67231598097E+02  0.40646127538E+01  0.23553534491E+03  0.24497654492E+03  0.00000000000E+00 0.  1.
         14    1    6    6    0    0 -0.44030522986E+02 -0.27429576734E+02  0.47759798047E+02  0.70512884948E+02  0.00000000000E+00 0. -1.
         -5    1    3    3    0  503 -0.18409257303E+02  0.63459095129E+02  0.13091575993E+03  0.14672076781E+03  0.47000000000E+01 0.  1.
         11    1    4    4    0    0  0.71390987425E+02 -0.90935431658E+01  0.75004790364E+02  0.10394750690E+03  0.00000000000E+00 0. -1.
        -12    1    4    4    0    0  0.16645487471E+02 -0.25329218753E+02  0.14938758526E+03  0.15243127043E+03  0.00000000000E+00 0.  1.
</event>
<event>
12    1  0.8113184E-002  0.1802226E+03  0.7818608E-02  0.1167666E+00
         21   -1    0    0  501  502  0.00000000000E+00  0.00000000000E+00  0.25037162148E+03  0.25037162148E+03  0.00000000000E+00 0.  1.
         21   -1    0    0  502  503 -0.00000000000E+00 -0.00000000000E+00 -0.14316786276E+03  0.14316786276E+03  0.00000000000E+00 0.  1.
         -6    2    1    2    0  503 -0.52376456860E+02  0.13296253501E+02 -0.72506944555E+01  0.18004472361E+03  0.17159092733E+03 0.  0.
        -24    2    3    3    0    0  0.35087865109E+02  0.24501419356E+02 -0.18623866974E+02  0.91011008582E+02  0.78132435222E+02 0.  0.
          6    2    1    2  501    0  0.52376456860E+02 -0.13296253501E+02  0.11445445317E+03  0.21349476063E+03  0.17193053067E+03 0.  0.
         24    2    5    5    0    0  0.74346357970E+02  0.20181352118E+02  0.32946186159E+02  0.12256009054E+03  0.89447508040E+02 0.  0.
          5    1    5    5  501    0 -0.21969901109E+02 -0.33477605619E+02  0.81508267012E+02  0.90934670088E+02  0.47000000000E+01 0. -1.
        -11    1    6    6    0    0  0.46438920952E+02 -0.14752154159E+02 -0.20512903411E+02  0.52867557518E+02  0.00000000000E+00 0.  1.
         12    1    6    6    0    0  0.27907437017E+02  0.34933506277E+02  0.53459089570E+02  0.69692533024E+02  0.00000000000E+00 0. -1.
         -5    1    3    3    0  503 -0.87464321969E+02 -0.11205165855E+02  0.11373172518E+02  0.89033715032E+02  0.47000000000E+01 0.  1.
         13    1    4    4    0    0  0.44733753258E+02  0.13089611921E+01  0.16613759529E+02  0.47737187450E+02  0.00000000000E+00 0. -1.
        -14    1    4    4    0    0 -0.96458881489E+01  0.23192458164E+02 -0.35237626502E+02  0.43273821132E+02  0.00000000000E+00 0.  1.
</event>
<event>
12    1  0.8113184E-002  0.2016118E+03  0.7818608E-02  0.1150197E+00
         21   -1    0    0  503  502  0.00000000000E+00  0.00000000000E+00  0.90511322768E+02  0.90511322768E+02  0.00000000000E+00 0. -1.
         21   -1    0    0  501  503 -0.00000000000E+00 -0.00000000000E+00 -0.60869513324E+03  0.60869513324E+03  0.00000000000E+00 0. -1.
          6    2    1    2  501    0  0.56883314894E+02  0.85279509587E+02 -0.45220535064E+03  0.49511310977E+03  0.17360589289E+03 0.  0.
         24    2    3    3    0    0  0.20053196335E+01 -0.12483399940E+02 -0.13314308653E+03  0.15689424687E+03  0.82029669192E+02 0.  0.
         -6    2    1    2    0  502 -0.56883314894E+02 -0.85279509587E+02 -0.65978459830E+02  0.20409334624E+03  0.16368454585E+03 0.  0.
        -24    2    5    5    0    0  0.25310817615E+02 -0.42626406396E+02  0.50519578729E+01  0.87291921292E+02  0.71670839495E+02 0.  0.
          5    1    3    3  501    0  0.54877995260E+02  0.97762909527E+02 -0.31906226411E+03  0.33821886290E+03  0.47000000000E+01 0. -1.
        -11    1    4    4    0    0  0.40961044645E+02 -0.81782169111E+01 -0.85847905727E+02  0.95470169833E+02  0.00000000000E+00 0.  1.
         12    1    4    4    0    0 -0.38955725012E+02 -0.43051830285E+01 -0.47295180804E+02  0.61424077033E+02  0.00000000000E+00 0. -1.
         -5    1    5    5    0  502 -0.82194132509E+02 -0.42653103191E+02 -0.71030417702E+02  0.11680142495E+03  0.47000000000E+01 0.  1.
         13    1    6    6    0    0  0.30370376728E+02  0.34299771227E+01 -0.18074101725E+02  0.35507712949E+02  0.00000000000E+00 0. -1.
        -14    1    6    6    0    0 -0.50595591132E+01 -0.46056383519E+02  0.23126059598E+02  0.51784208344E+02  0.00000000000E+00 0.  1.
</event>
<event>
12    1  0.8113184E-002  0.1978244E+03  0.7818608E-02  0.1154785E+00
         21   -1    0    0  501  502  0.00000000000E+00  0.00000000000E+00  0.76421763339E+02  0.76421763339E+02  0.00000000000E+00 0. -1.
         21   -1    0    0  502  503 -0.00000000000E+00 -0.00000000000E+00 -0.87995659651E+03  0.87995659651E+03  0.00000000000E+00 0. -1.
         -6    2    1    2    0  503  0.43950038518E+02 -0.46730878650E+02 -0.73397316211E+03  0.76016517651E+03  0.18713394129E+03 0.  0.
        -24    2    3    3    0    0  0.72003279165E+02 -0.63507705320E+02 -0.70588570899E+03  0.71681265356E+03  0.79549011931E+02 0.  0.
          6    2    1    2  501    0 -0.43950038518E+02  0.46730878650E+02 -0.69561671062E+02  0.19621318334E+03  0.17188777248E+03 0.  0.
         24    2    5    5    0    0 -0.75651435035E+02  0.37720897356E+02 -0.27371527214E+01  0.12155553433E+03  0.87305499257E+02 0.  0.
          5    1    5    5  501    0  0.31701396516E+02  0.90099812933E+01 -0.66824518340E+02  0.74657649008E+02  0.47000000000E+01 0. -1.
        -11    1    6    6    0    0 -0.46315045372E+02 -0.21930728595E+02  0.13767638265E+02  0.53062115939E+02  0.00000000000E+00 0.  1.
         12    1    6    6    0    0 -0.29336389662E+02  0.59651625952E+02 -0.16504790986E+02  0.68493418389E+02  0.00000000000E+00 0. -1.
         -5    1    3    3    0  503 -0.28053240646E+02  0.16776826670E+02 -0.28087453121E+02  0.43352522957E+02  0.47000000000E+01 0.  1.
         13    1    4    4    0    0 -0.76286340694E+01 -0.18725356542E+02 -0.41378550456E+02  0.46054527174E+02  0.00000000000E+00 0. -1.
        -14    1    4    4    0    0  0.79631913234E+02 -0.44782348778E+02 -0.66450715853E+03  0.67075812638E+03  0.00000000000E+00 0.  1.
</event>
<event>
12    1  0.8113184E-002  0.2129943E+03  0.7818608E-02  0.1139512E+00
         21   -1    0    0  501  502  0.00000000000E+00  0.00000000000E+00  0.20369145946E+03  0.20369145946E+03  0.00000000000E+00 0.  1.
         21   -1    0    0  502  503 -0.00000000000E+00 -0.00000000000E+00 -0.72135027743E+03  0.72135027743E+03  0.00000000000E+00 0. -1.
         -6    2    1    2    0  503 -0.10957402262E+03 -0.57666159049E+02 -0.64426662360E+03  0.67856174507E+03  0.17330524301E+03 0.  0.
        -24    2    3    3    0    0 -0.81028268148E+02  0.27336862480E+02 -0.36185621822E+03  0.38222055517E+03  0.88542339236E+02 0.  0.
          6    2    1    2  501    0  0.10957402262E+03  0.57666159049E+02  0.12660780563E+03  0.24647999181E+03  0.17143802840E+03 0.  0.
         24    2    5    5    0    0  0.92106382637E+02  0.99253918703E+02  0.12532731925E+03  0.20111051038E+03  0.80022336475E+02 0.  0.
          5    1    5    5  501    0  0.17467639987E+02 -0.41587759654E+02  0.12804863880E+01  0.45369481429E+02  0.47000000000E+01 0. -1.
        -13    1    6    6    0    0  0.73299605853E+01  0.41377944201E+02  0.40390300066E+01  0.42215830584E+02  0.00000000000E+00 0.  1.
         14    1    6    6    0    0  0.84776422052E+02  0.57875974502E+02  0.12128828924E+03  0.15889467979E+03  0.00000000000E+00 0. -1.
         -5    1    3    3    0  503 -0.28545754477E+02 -0.85003021528E+02 -0.28241040538E+03  0.29634118991E+03  0.47000000000E+01 0.  1.
         13    1    4    4    0    0 -0.56716882634E+02  0.29605984801E+02 -0.34862891132E+03  0.35445089493E+03  0.00000000000E+00 0. -1.
        -14    1    4    4    0    0 -0.24311385514E+02 -0.22691223214E+01 -0.13227306908E+02  0.27769660239E+02  0.00000000000E+00 0.  1.
</event>
<event>
12    1  0.8113184E-002  0.2261994E+03  0.7818608E-02  0.1129604E+00
         21   -1    0    0  503  502  0.00000000000E+00  0.00000000000E+00  0.18312125167E+04  0.18312125167E+04  0.00000000000E+00 0.  1.
         21   -1    0    0  501  503 -0.00000000000E+00 -0.00000000000E+00 -0.42740065024E+02  0.42740065024E+02  0.00000000000E+00 0. -1.
          6    2    1    2  501    0  0.14454124904E+03  0.11359380460E+02  0.34144195066E+03  0.40957142524E+03  0.17362297804E+03 0.  0.
         24    2    3    3    0    0  0.16289139314E+03 -0.55151689427E+00  0.21870479675E+03  0.28481127049E+03  0.82169103352E+02 0.  0.
         -6    2    1    2    0  502 -0.14454124904E+03 -0.11359380460E+02  0.14470305010E+04  0.14643811565E+04  0.17173727725E+03 0.  0.
        -24    2    5    5    0    0 -0.11141992486E+03  0.52032893955E+02  0.10097128035E+04  0.10212282922E+04  0.90914561593E+02 0.  0.
          5    1    3    3  501    0 -0.18350144097E+02  0.11910897354E+02  0.12273715391E+03  0.12476015475E+03  0.47000000000E+01 0. -1.
        -13    1    4    4    0    0 -0.74663930354E+01 -0.86708142484E+00  0.28474447833E+02  0.29449839296E+02  0.00000000000E+00 0.  1.
         14    1    4    4    0    0  0.17035778617E+03  0.31556453057E+00  0.19023034892E+03  0.25536143119E+03  0.00000000000E+00 0. -1.
         -5    1    5    5    0  502 -0.33121324183E+02 -0.63392274415E+02  0.43731769753E+03  0.44315286430E+03  0.47000000000E+01 0.  1.
         11    1    6    6    0    0 -0.37281911675E+02  0.63394183177E+02  0.62151816869E+03  0.62585429407E+03  0.00000000000E+00 0. -1.
        -12    1    6    6    0    0 -0.74138013183E+02 -0.11361289222E+02  0.38819463481E+03  0.39537399812E+03  0.00000000000E+00 0.  1.
</event>
<event>
12    1  0.8113184E-002  0.1939653E+03  0.7818608E-02  0.1155616E+00
         21   -1    0    0  501  502  0.00000000000E+00  0.00000000000E+00  0.64896909546E+03  0.64896909546E+03  0.00000000000E+00 0.  1.
         21   -1    0    0  502  503 -0.00000000000E+00 -0.00000000000E+00 -0.14269205475E+03  0.14269205475E+03  0.00000000000E+00 0. -1.
         -6    2    1    2    0  503 -0.86394982428E+02 -0.24113812940E+02 -0.54319923316E+02  0.19845673495E+03  0.16848991844E+03 0.  0.
        -24    2    3    3    0    0 -0.96231806629E+02  0.33337899496E+02 -0.54770607496E+02  0.13997805945E+03  0.78880045209E+02 0.  0.
          6    2    1    2  501    0  0.86394982428E+02  0.24113812940E+02  0.56059696403E+03  0.59320441526E+03  0.17197951403E+03 0.  0.
         24    2    5    5    0    0  0.11962988697E+03  0.13570021765E+02  0.32853642278E+03  0.35849200567E+03  0.78005651649E+02 0.  0.
          5    1    5    5  501    0 -0.33234904544E+02  0.10543791176E+02  0.23206054124E+03  0.23471240959E+03  0.47000000000E+01 0. -1.
        -13    1    6    6    0    0  0.98874392398E+01  0.24070539389E+02  0.11803464515E+03  0.12086906046E+03  0.00000000000E+00 0.  1.
         14    1    6    6    0    0  0.10974244773E+03 -0.10500517624E+02  0.21050177763E+03  0.23762294521E+03  0.00000000000E+00 0. -1.
         -5    1    3    3    0  503  0.98368242011E+01 -0.57451712437E+02  0.45068417926E+00  0.58478675502E+02  0.47000000000E+01 0.  1.
         11    1    4    4    0    0  0.12342867654E+02 -0.37435770612E+01 -0.11742570713E+02  0.17442726796E+02  0.00000000000E+00 0. -1.
        -12    1    4    4    0    0 -0.10857467428E+03  0.37081476557E+02 -0.43028036783E+02  0.12253533265E+03  0.00000000000E+00 0.  1.
</event>
<event>
12    1  0.8113184E-002  0.1900806E+03  0.7818608E-02  0.1158422E+00
         21   -1    0    0  503  502  0.00000000000E+00  0.00000000000E+00  0.51423114288E+03  0.51423114288E+03  0.00000000000E+00 0. -1.
         21   -1    0    0  501  503 -0.00000000000E+00 -0.00000000000E+00 -0.17091402046E+03  0.17091402046E+03  0.00000000000E+00 0. -1.
          6    2    1    2  501    0 -0.71451166364E+02  0.44534228406E+02 -0.91277093391E+02  0.21086044065E+03  0.17041728486E+03 0.  0.
         24    2    3    3    0    0 -0.28567910901E+02  0.39595367705E+02 -0.12542420962E+03  0.15562022441E+03  0.78118520272E+02 0.  0.
         -6    2    1    2    0  502  0.71451166364E+02 -0.44534228406E+02  0.43459421582E+03  0.47428472269E+03  0.17025069480E+03 0.  0.
        -24    2    5    5    0    0  0.55315726829E+02 -0.95623971318E+02  0.31098576225E+03  0.33948244514E+03  0.79576458255E+02 0.  0.
          5    1    3    3  501    0 -0.42883255463E+02  0.49388607015E+01  0.34147116225E+02  0.55240216244E+02  0.47000000000E+01 0. -1.
        -13    1    4    4    0    0  0.17934031782E+02  0.17454181704E+02 -0.89223426334E+02  0.92666594638E+02  0.00000000000E+00 0.  1.
         14    1    4    4    0    0 -0.46501942683E+02  0.22141186000E+02 -0.36200783283E+02  0.62953629769E+02  0.00000000000E+00 0. -1.
         -5    1    5    5    0  502  0.16135439535E+02  0.51089742912E+02  0.12360845356E+03  0.13480227755E+03  0.47000000000E+01 0.  1.
         11    1    6    6    0    0  0.71177124634E+02 -0.96877323851E+02  0.27259769589E+03  0.29792768040E+03  0.00000000000E+00 0. -1.
        -12    1    6    6    0    0 -0.15861397805E+02  0.12533525333E+01  0.38388066369E+02  0.41554764738E+02  0.00000000000E+00 0.  1.
</event>
<event>
12    1  0.8113184E-002  0.1726231E+03  0.7818608E-02  0.1175919E+00
         21   -1    0    0  501  502  0.00000000000E+00  0.00000000000E+00  0.71324046796E+02  0.71324046796E+02  0.00000000000E+00 0.  1.
         21   -1    0    0  502  503 -0.00000000000E+00 -0.00000000000E+00 -0.49526163690E+03  0.49526163690E+03  0.00000000000E+00 0.  1.
         -6    2    1    2    0  503 -0.41258678579E+01 -0.18538254331E+02 -0.96335408347E+02  0.19768474507E+03  0.17157522511E+03 0.  0.
        -24    2    3    3    0    0 -0.66343399152E+02 -0.15519235480E+02 -0.78615842489E+02  0.13275240575E+03  0.82464885017E+02 0.  0.
          6    2    1    2  501    0  0.41258678579E+01  0.18538254331E+02 -0.32760218176E+03  0.36890093863E+03  0.16853493220E+03 0.  0.
         24    2    5    5    0    0  0.32238866229E+02 -0.30225601124E+02 -0.28166836103E+03  0.29609805295E+03  0.79900312249E+02 0.  0.
          5    1    5    5  501    0 -0.28112998371E+02  0.48763855455E+02 -0.45933820726E+02  0.72802885676E+02  0.47000000000E+01 0. -1.
        -13    1    6    6    0    0  0.83062579260E+01 -0.36039217555E+02 -0.45436350487E+02  0.58585672893E+02  0.00000000000E+00 0.  1.
         14    1    6    6    0    0  0.23932608303E+02  0.58136164305E+01 -0.23623201054E+03  0.23751238006E+03  0.00000000000E+00 0. -1.
         -5    1    3    3    0  503  0.62217531294E+02 -0.30190188511E+01 -0.17719565858E+02  0.64932339318E+02  0.47000000000E+01 0.  1.
         11    1    4    4    0    0 -0.20636929246E+02 -0.40268556344E+02 -0.64685861719E+02  0.78941118468E+02  0.00000000000E+00 0. -1.
        -12    1    4    4    0    0 -0.45706469906E+02  0.24749320864E+02 -0.13929980770E+02  0.53811287280E+02  0.00000000000E+00 0.  1.
</event>
<event>
12    1  0.8113184E-002  0.2968930E+03  0.7818608E-02  0.1086908E+00
         21   -1    0    0  503  502  0.00000000000E+00  0.00000000000E+00  0.29663801372E+03  0.29663801372E+03  0.00000000000E+00 0.  1.
         21   -1    0    0  501  503 -0.00000000000E+00 -0.00000000000E+00 -0.62062695853E+03  0.62062695853E+03  0.00000000000E+00 0. -1.
          6    2    1    2  501    0  0.80877040355E+02  0.22428069301E+03 -0.49362755316E+03  0.57603263871E+03  0.17692516698E+03 0.  0.
         24    2    3    3    0    0  0.44346255110E+02  0.28376583485E+02 -0.18916115789E+03  0.21211672226E+03  0.80247986737E+02 0.  0.
         -6    2    1    2    0  502 -0.80877040355E+02 -0.22428069301E+03  0.16963860835E+03  0.34123233354E+03  0.17555433089E+03 0.  0.
        -24    2    5    5    0    0 -0.83453628679E+02 -0.24165553050E+03  0.17725753336E+03  0.32151782610E+03  0.81188520169E+02 0.  0.
          5    1    3    3  501    0  0.36530785246E+02  0.19590410953E+03 -0.30446639527E+03  0.36391591646E+03  0.47000000000E+01 0. -1.
        -11    1    4    4    0    0 -0.43515235399E+01  0.40293276057E+02 -0.51009227573E+02  0.65149252874E+02  0.00000000000E+00 0.  1.
         12    1    4    4    0    0  0.48697778650E+02 -0.11916692571E+02 -0.13815193032E+03  0.14696746938E+03  0.00000000000E+00 0. -1.
         -5    1    5    5    0  502  0.25765883235E+01  0.17374837488E+02 -0.76189250077E+01  0.19714507435E+02  0.47000000000E+01 0.  1.
         13    1    6    6    0    0  0.13000593023E+02 -0.83570122198E+01  0.14185291186E+02  0.20978025603E+02  0.00000000000E+00 0. -1.
        -14    1    6    6    0    0 -0.96454221701E+02 -0.23329851828E+03  0.16307224217E+03  0.30053980050E+03  0.00000000000E+00 0.  1.
</event>
<event>
12    1  0.8113184E-002  0.1933617E+03  0.7818608E-02  0.1155615E+00
         21   -1    0    0  501  502  0.00000000000E+00  0.00000000000E+00  0.69851528227E+02  0.69851528227E+02  0.00000000000E+00 0.  1.
         21   -1    0    0  502  503 -0.00000000000E+00 -0.00000000000E+00 -0.10774626360E+04  0.10774626360E+04  0.00000000000E+00 0.  1.
         -6    2    1    2    0  503  0.73569560030E+02  0.42885550164E+02 -0.91189950155E+03  0.93217458049E+03  0.17360039459E+03 0.  0.
        -24    2    3    3    0    0  0.10038094549E+02  0.23304832050E+02 -0.77846012275E+03  0.78301758453E+03  0.80451826789E+02 0.  0.
          6    2    1    2  501    0 -0.73569560030E+02 -0.42885550164E+02 -0.95711606205E+02  0.21513958372E+03  0.17283714400E+03 0.  0.
         24    2    5    5    0    0 -0.11195915672E+03 -0.47871464008E+01 -0.80450553394E+02  0.15874597383E+03  0.78550767807E+02 0.  0.
          5    1    5    5  501    0  0.38389596690E+02 -0.38098403763E+02 -0.15261052811E+02  0.56393609888E+02  0.47000000000E+01 0. -1.
        -11    1    6    6    0    0 -0.26788724229E+02 -0.34236203050E+02 -0.43033470004E+02  0.61168888217E+02  0.00000000000E+00 0.  1.
         12    1    6    6    0    0 -0.85170432491E+02  0.29449056649E+02 -0.37417083391E+02  0.97577085618E+02  0.00000000000E+00 0. -1.
         -5    1    3    3    0  503  0.63531465481E+02  0.19580718114E+02 -0.13343937880E+03  0.14915699596E+03  0.47000000000E+01 0.  1.
         13    1    4    4    0    0  0.25000210486E+02 -0.18829796238E+02 -0.50111323301E+03  0.50208967730E+03  0.00000000000E+00 0. -1.
        -14    1    4    4    0    0 -0.14962115937E+02  0.42134628287E+02 -0.27734688973E+03  0.28092790723E+03  0.00000000000E+00 0.  1.
</event>
<event>
12    1  0.8113184E-002  0.2273128E+03  0.7818608E-02  0.1128621E+00
         21   -1    0    0  501  502  0.00000000000E+00  0.00000000000E+00  0.15874563928E+03  0.15874563928E+03  0.00000000000E+00 0. -1.
         21   -1    0    0  502  503 -0.00000000000E+00 -0.00000000000E+00 -0.42195377819E+03  0.42195377819E+03  0.00000000000E+00 0. -1.
         -6    2    1    2    0  503 -0.69813778305E+01  0.14799763424E+03  0.75564275659E+01  0.22743831730E+03  0.17239213788E+03 0.  0.
        -24    2    3    3    0    0  0.37644930983E+02  0.14940003679E+03  0.21752687368E+02  0.18035224756E+03  0.91193431619E+02 0.  0.
          6    2    1    2  501    0  0.69813778305E+01 -0.14799763424E+03 -0.27076456648E+03  0.35326110017E+03  0.17183688504E+03 0.  0.
         24    2    5    5    0    0 -0.29438795996E+02 -0.72207750907E+02 -0.61271185614E+02  0.12747336335E+03  0.80091810913E+02 0.  0.
          5    1    5    5  501    0  0.36420173827E+02 -0.75789883330E+02 -0.20949338086E+03  0.22578773683E+03  0.47000000000E+01 0. -1.
        -11    1    6    6    0    0 -0.40317922255E+02 -0.71865315566E+02 -0.73980864754E+02  0.11073990602E+03  0.00000000000E+00 0.  1.
         12    1    6    6    0    0  0.10879126259E+02 -0.34243534121E+00  0.12709679140E+02  0.16733457322E+02  0.00000000000E+00 0. -1.
         -5    1    3    3    0  503 -0.44626308813E+02 -0.14024025566E+01 -0.14196259802E+02  0.47086069740E+02  0.47000000000E+01 0.  1.
         11    1    4    4    0    0 -0.18836949327E+02  0.97529777789E+02 -0.41249923113E+01  0.99417824242E+02  0.00000000000E+00 0. -1.
        -12    1    4    4    0    0  0.56481880310E+02  0.51870259005E+02  0.25877679679E+02  0.80934423320E+02  0.00000000000E+00 0.  1.
</event>
<event>
12    1  0.8113184E-002  0.2097812E+03  0.7818608E-02  0.1141787E+00
         21   -1    0    0  503  502  0.00000000000E+00  0.00000000000E+00  0.62912080216E+02  0.62912080216E+02  0.00000000000E+00 0.  1.
         21   -1    0    0  501  503 -0.00000000000E+00 -0.00000000000E+00 -0.92941344915E+03  0.92941344915E+03  0.00000000000E+00 0. -1.
          6    2    1    2  501    0 -0.90441061369E+02  0.74849197831E+02 -0.68026018377E+03  0.71180113578E+03  0.17356540922E+03 0.  0.
         24    2    3    3    0    0 -0.48440808875E+00 -0.11823025492E+02 -0.19975985917E+03  0.21530649763E+03  0.79453558799E+02 0.  0.
         -6    2    1    2    0  502  0.90441061369E+02 -0.74849197831E+02 -0.18624118516E+03  0.28052439358E+03  0.17385674663E+03 0.  0.
        -24    2    5    5    0    0  0.72903974406E+02  0.84110926349E+01 -0.46730666127E+02  0.11704625954E+03  0.78296460667E+02 0.  0.
          5    1    3    3  501    0 -0.89956653280E+02  0.86672223324E+02 -0.48050032461E+03  0.49649463815E+03  0.47000000000E+01 0. -1.
        -13    1    4    4    0    0 -0.24343409449E+02  0.73279059758E+01 -0.18395667515E+02  0.31379935833E+02  0.00000000000E+00 0.  1.
         14    1    4    4    0    0  0.23859001360E+02 -0.19150931468E+02 -0.18136419165E+03  0.18392656180E+03  0.00000000000E+00 0. -1.
         -5    1    5    5    0  502  0.17537086963E+02 -0.83260290466E+02 -0.13951051904E+03  0.16347813404E+03  0.47000000000E+01 0.  1.
         11    1    6    6    0    0 -0.15365870130E+02  0.55483414037E+01 -0.17685758627E+02  0.24076546999E+02  0.00000000000E+00 0. -1.
        -12    1    6    6    0    0  0.88269844536E+02  0.28627512312E+01 -0.29044907500E+02  0.92969712545E+02  0.00000000000E+00 0.  1.
</event>
<event>
12    1  0.8113184E-002  0.1848584E+03  0.7818608E-02  0.1163439E+00
         21   -1    0    0  503  502  0.00000000000E+00  0.00000000000E+00  0.19096716325E+04  0.19096716325E+04  0.00000000000E+00 0. -1.
         21   -1    0    0  501  503 -0.00000000000E+00 -0.00000000000E+00 -0.35127001429E+02  0.35127001429E+02  0.00000000000E+00 0. -1.
          6    2    1    2  501    0  0.20038987680E+02 -0.61017327010E+02  0.25551606045E+03  0.31537451630E+03  0.17334345434E+03 0.  0.
         24    2    3    3    0    0 -0.35412741018E+02  0.15982673380E+02  0.11542818060E+03  0.14610963998E+03  0.80714645159E+02 0.  0.
         -6    2    1    2    0  502 -0.20038987680E+02  0.61017327010E+02  0.16190285706E+04  0.16294241176E+04  0.17217655880E+03 0.  0.
        -24    2    5    5    0    0 -0.35194750260E+02 -0.16238964447E+02  0.54093418451E+03  0.54844871223E+03  0.81754654699E+02 0.  0.
          5    1    3    3  501    0  0.55451728698E+02 -0.77000000390E+02  0.14008787985E+03  0.16926487632E+03  0.47000000000E+01 0. -1.
        -13    1    4    4    0    0 -0.16025482536E+02  0.45922127280E+02  0.41145374426E+02  0.63707140111E+02  0.00000000000E+00 0.  1.
         14    1    4    4    0    0 -0.19387258482E+02 -0.29939453901E+02  0.74282806172E+02  0.82402499866E+02  0.00000000000E+00 0. -1.
         -5    1    5    5    0  502  0.15155762580E+02  0.77256291456E+02  0.10780943861E+04  0.10809754054E+04  0.47000000000E+01 0.  1.
         11    1    6    6    0    0 -0.10427746341E+02  0.16535562076E+02  0.29635946319E+02  0.35502845254E+02  0.00000000000E+00 0. -1.
        -12    1    6    6    0    0 -0.24767003919E+02 -0.32774526523E+02  0.51129823819E+03  0.51294586698E+03  0.00000000000E+00 0.  1.
</event>
<event>
12    1  0.8113184E-002  0.1864203E+03  0.7818608E-02  0.1162249E+00
         21   -1    0    0  503  502  0.00000000000E+00  0.00000000000E+00  0.41220595275E+03  0.41220595275E+03  0.00000000000E+00 0. -1.
         21   -1    0    0  501  503 -0.00000000000E+00 -0.00000000000E+00 -0.85935830009E+02  0.85935830009E+02  0.00000000000E+00 0. -1.
          6    2    1    2  501    0 -0.34814091290E+02 -0.57375596796E+02  0.20577274702E+03  0.27616851652E+03  0.17153030648E+03 0.  0.
         24    2    3    3    0    0 -0.97175834629E+01  0.94754792714E+01  0.31188634302E+02  0.87487294643E+02  0.80604464383E+02 0.  0.
         -6    2    1    2    0  502  0.34814091290E+02  0.57375596796E+02  0.12049737572E+03  0.22197326624E+03  0.17392105482E+03 0.  0.
        -24    2    5    5    0    0  0.62081214110E+01  0.29833289582E+02  0.14922041738E+03  0.17273930112E+03  0.81508080890E+02 0.  0.
          5    1    3    3  501    0 -0.25096507827E+02 -0.66851076067E+02  0.17458411272E+03  0.18868122188E+03  0.47000000000E+01 0. -1.
        -11    1    4    4    0    0 -0.39225761452E+02 -0.60847011095E+01 -0.28883711402E+01  0.39799832122E+02  0.00000000000E+00 0.  1.
         12    1    4    4    0    0  0.29508177990E+02  0.15560180381E+02  0.34077005442E+02  0.47687462520E+02  0.00000000000E+00 0. -1.
         -5    1    5    5    0  502  0.28605969879E+02  0.27542307214E+02 -0.28723041655E+02  0.49233965119E+02  0.47000000000E+01 0.  1.
         13    1    6    6    0    0  0.20133818433E+02  0.39132968280E+01 -0.13710061386E+00  0.20511053930E+02  0.00000000000E+00 0. -1.
        -14    1    6    6    0    0 -0.13925697022E+02  0.25919992754E+02  0.14935751799E+03  0.15222824719E+03  0.00000000000E+00 0.  1.
</event>
<event>
12    1  0.8113184E-002  0.1979983E+03  0.7818608E-02  0.1151461E+00
         21   -1    0    0  503  502  0.00000000000E+00  0.00000000000E+00  0.91203237173E+03  0.91203237173E+03  0.00000000000E+00 0. -1.
         21   -1    0    0  501  503 -0.00000000000E+00 -0.00000000000E+00 -0.51641509205E+02  0.51641509205E+02  0.00000000000E+00 0. -1.
          6    2    1    2  501    0 -0.43598689507E+02  0.85707442895E+02  0.62782072086E+03  0.65830249472E+03  0.17308005521E+03 0.  0.
         24    2    3    3    0    0 -0.57651421352E+02  0.69570185940E+02  0.62465488965E+03  0.63616648736E+03  0.79689217094E+02 0.  0.
         -6    2    1    2    0  502  0.43598689507E+02 -0.85707442895E+02  0.23257014166E+03  0.30537138622E+03  0.17296300539E+03 0.  0.
        -24    2    5    5    0    0  0.24605343930E+02 -0.12697770449E+03  0.18993948724E+03  0.24289383533E+03  0.78687013165E+02 0.  0.
          5    1    3    3  501    0  0.14052731845E+02  0.16137256955E+02  0.31658312096E+01  0.22136007354E+02  0.47000000000E+01 0. -1.
        -13    1    4    4    0    0 -0.63177721027E+02  0.20859920980E+02  0.26685707601E+03  0.27502592561E+03  0.00000000000E+00 0.  1.
         14    1    4    4    0    0  0.55262996745E+01  0.48710264960E+02  0.35779781364E+03  0.36114056176E+03  0.00000000000E+00 0. -1.
         -5    1    5    5    0  502  0.18993345578E+02  0.41270261597E+02  0.42630654420E+02  0.62477550887E+02  0.47000000000E+01 0.  1.
         13    1    6    6    0    0  0.34077497330E+02 -0.39848445352E+02  0.29719910983E+02  0.60269789531E+02  0.00000000000E+00 0. -1.
        -14    1    6    6    0    0 -0.94721534004E+01 -0.87129259139E+02  0.16021957626E+03  0.18262404580E+03  0.00000000000E+00 0.  1.
</event>
<event>
12    1  0.8113184E-002  0.1835356E+03  0.7818608E-02  0.1164936E+00
         21   -1    0    0  501  502  0.00000000000E+00  0.00000000000E+00  0.88002380673E+02  0.88002380673E+02  0.00000000000E+00 0. -1.
         21   -1    0    0  502  503 -0.00000000000E+00 -0.00000000000E+00 -0.38096442440E+03  0.38096442440E+03  0.00000000000E+00 0. -1.
         -6    2    1    2    0  503 -0.54547214949E+02 -0.29723717636E+02 -0.12600690545E+03  0.22085525665E+03  0.17041245882E+03 0.  0.
        -24    2    3    3    0    0 -0.62965713233E+02 -0.74819553378E+02 -0.12005085470E+03  0.17435719158E+03  0.80159690190E+02 0.  0.
          6    2    1    2  501    0  0.54547214949E+02  0.29723717636E+02 -0.16695513828E+03  0.24811154843E+03  0.17270328374E+03 0.  0.
         24    2    5    5    0    0 -0.18292799473E+02 -0.30970067658E+02 -0.87725114999E+02  0.12446329788E+03  0.80632779399E+02 0.  0.
          5    1    5    5  501    0  0.72840014422E+02  0.60693785294E+02 -0.79230023282E+02  0.12364825055E+03  0.47000000000E+01 0. -1.
        -11    1    6    6    0    0  0.32787679839E+01 -0.67347494020E+01 -0.91493952196E+02  0.91800056958E+02  0.00000000000E+00 0.  1.
         12    1    6    6    0    0 -0.21571567457E+02 -0.24235318256E+02  0.37688371975E+01  0.32663240919E+02  0.00000000000E+00 0. -1.
         -5    1    3    3    0  503  0.84184982844E+01  0.45095835742E+02 -0.59560507485E+01  0.46498065069E+02  0.47000000000E+01 0.  1.
         11    1    4    4    0    0 -0.46137596595E+02 -0.51671561136E+02 -0.22714888600E+02  0.72901263459E+02  0.00000000000E+00 0. -1.
        -12    1    4    4    0    0 -0.16828116638E+02 -0.23147992242E+02 -0.97335966101E+02  0.10145592812E+03  0.00000000000E+00 0.  1.
</event>
<event>
12    1  0.8113184E-002  0.2316463E+03  0.7818608E-02  0.1125622E+00
         21   -1    0    0  501  502  0.00000000000E+00  0.00000000000E+00  0.22244275474E+03  0.22244275474E+03  0.00000000000E+00 0.  1.
         21   -1    0    0  502  503 -0.00000000000E+00 -0.00000000000E+00 -0.30185107112E+03  0.30185107112E+03  0.00000000000E+00 0. -1.
         -6    2    1    2    0  503 -0.76144262717E+02 -0.13449951721E+03 -0.15791063629E+03  0.27970719018E+03  0.17150007088E+03 0.  0.
        -24    2    3    3    0    0 -0.35394080378E+02 -0.56212769910E+02 -0.16079941490E+03  0.19127740332E+03  0.79485701607E+02 0.  0.
          6    2    1    2  501    0  0.76144262717E+02  0.13449951721E+03  0.78502319909E+02  0.24458663568E+03  0.17254547008E+03 0.  0.
         24    2    5    5    0    0  0.10543825179E+03  0.10127370605E+03  0.99894659558E+02  0.19517191602E+03  0.82094733801E+02 0.  0.
          5    1    5    5  501    0 -0.29293989071E+02  0.33225811159E+02 -0.21392339649E+02  0.49414719654E+02  0.47000000000E+01 0. -1.
        -11    1    6    6    0    0  0.82780778878E+01  0.13669459152E+02  0.54345446155E+02  0.56646343260E+02  0.00000000000E+00 0.  1.
         12    1    6    6    0    0  0.97160173900E+02  0.87604246899E+02  0.45549213403E+02  0.13852557276E+03  0.00000000000E+00 0. -1.
         -5    1    3    3    0  503 -0.40750182339E+02 -0.78286747300E+02  0.28887786093E+01  0.88429786867E+02  0.47000000000E+01 0.  1.
         11    1    4    4    0    0 -0.69979210880E+01  0.20516724813E+02 -0.30417842063E+02  0.37351733726E+02  0.00000000000E+00 0. -1.
        -12    1    4    4    0    0 -0.28396159290E+02 -0.76729494722E+02 -0.13038157284E+03  0.15392566959E+03  0.00000000000E+00 0.  1.
</event>
<event>
12    1  0.8113184E-002  0.2194228E+03  0.7818608E-02  0.1134411E+00
         21   -1    0    0  503  502  0.00000000000E+00  0.00000000000E+00  0.11414404925E+03  0.11414404925E+03  0.00000000000E+00 0.  1.
         21   -1    0    0  501  503 -0.00000000000E+00 -0.00000000000E+00 -0.10388003952E+04  0.10388003952E+04  0.00000000000E+00 0.  1.
          6    2    1    2  501    0 -0.13328520398E+03  0.11346186366E+02 -0.90718133252E+03  0.93334041898E+03  0.17393299312E+03 0.  0.
         24    2    3    3    0    0 -0.10364765717E+03  0.28855598215E+02 -0.34946145367E+03  0.37453945537E+03  0.81123446894E+02 0.  0.
         -6    2    1    2    0  502  0.13328520398E+03 -0.11346186366E+02 -0.17475013445E+02  0.21960402547E+03  0.17328263146E+03 0.  0.
        -24    2    5    5    0    0  0.12556339629E+03  0.31852222747E+02 -0.56268216453E+02  0.16084407769E+03  0.76967360382E+02 0.  0.
          5    1    3    3  501    0 -0.29637546808E+02 -0.17509411849E+02 -0.55771987884E+03  0.55880096362E+03  0.47000000000E+01 0. -1.
        -13    1    4    4    0    0 -0.29841447151E+02  0.29596631815E+02 -0.23226483375E+03  0.23603691572E+03  0.00000000000E+00 0.  1.
         14    1    4    4    0    0 -0.73806210018E+02 -0.74103360041E+00 -0.11719661992E+03  0.13850253965E+03  0.00000000000E+00 0. -1.
         -5    1    5    5    0  502  0.77218076873E+01 -0.43198409113E+02  0.38793203008E+02  0.58759947783E+02  0.47000000000E+01 0.  1.
         13    1    6    6    0    0  0.97764606035E+02  0.30542035009E+02 -0.75303365843E+02  0.12712722369E+03  0.00000000000E+00 0. -1.
        -14    1    6    6    0    0  0.27798790254E+02  0.13101877381E+01  0.19035149390E+02  0.33716854002E+02  0.00000000000E+00 0.  1.
</event>
<event>
12    1  0.8113184E-002  0.2174268E+03  0.7818608E-02  0.1136006E+00
         21   -1    0    0  503  502  0.00000000000E+00  0.00000000000E+00  0.14850147889E+03  0.14850147889E+03  0.00000000000E+00 0.  1.
         21   -1    0    0  501  503 -0.00000000000E+00 -0.00000000000E+00 -0.33808757250E+03  0.33808757250E+03  0.00000000000E+00 0.  1.
          6    2    1    2  501    0 -0.12658589838E+03  0.43077972468E+02 -0.15593198131E+03  0.26756160276E+03  0.17144890521E+03 0.  0.
         24    2    3    3    0    0 -0.47001464748E+02  0.64736499152E+00 -0.14974684496E+03  0.17703876344E+03  0.81908787171E+02 0.  0.
         -6    2    1    2    0  502  0.12658589838E+03 -0.43077972468E+02 -0.33654112300E+02  0.21902744863E+03  0.17017850216E+03 0.  0.
        -24    2    5    5    0    0  0.21715064638E+02 -0.23602538095E+02 -0.60955908259E+02  0.10882462482E+03  0.84252907242E+02 0.  0.
          5    1    3    3  501    0 -0.79584433629E+02  0.42430607476E+02 -0.61851363520E+01  0.90522839319E+02  0.47000000000E+01 0. -1.
        -11    1    4    4    0    0 -0.25589995542E+02  0.48342199465E+01 -0.33734837249E+00  0.26044795224E+02  0.00000000000E+00 0.  1.
         12    1    4    4    0    0 -0.21411469206E+02 -0.41868549550E+01 -0.14940949658E+03  0.15099396822E+03  0.00000000000E+00 0. -1.
         -5    1    5    5    0  502  0.10487083374E+03 -0.19475434372E+02  0.27301795959E+02  0.11020282381E+03  0.47000000000E+01 0.  1.
         11    1    6    6    0    0 -0.74485739757E+01  0.10624384002E+02  0.15445697469E+02  0.20172465392E+02  0.00000000000E+00 0. -1.
        -12    1    6    6    0    0  0.29163638614E+02 -0.34226922097E+02 -0.76401605728E+02  0.88652159428E+02  0.00000000000E+00 0.  1.
</event>
<event>
12    1  0.8113184E-002  0.2909505E+03  0.7818608E-02  0.1089855E+00
         21   -1    0    0  501  502  0.00000000000E+00  0.00000000000E+00  0.15785136215E+03  0.15785136215E+03  0.00000000000E+00 0.  1.
         21   -1    0    0  502  503 -0.00000000000E+00 -0.00000000000E+00 -0.58242553357E+03  0.58242553357E+03  0.00000000000E+00 0. -1.
         -6    2    1    2    0  503 -0.23041970222E+03  0.37946126924E+02 -0.10808404003E+03  0.31037778161E+03  0.17354843672E+03 0.  0.
        -24    2    3    3    0    0 -0.22162251342E+03  0.74132832264E+02 -0.11381356670E+03  0.27240692897E+03  0.81484917077E+02 0.  0.
          6    2    1    2  501    0  0.23041970222E+03 -0.37946126924E+02 -0.31649013139E+03  0.42989911411E+03  0.17353413879E+03 0.  0.
         24    2    5    5    0    0  0.22172102209E+03 -0.59160169437E+02 -0.21025131719E+03  0.32111272581E+03  0.79041944654E+02 0.  0.
          5    1    5    5  501    0  0.86986801331E+01  0.21214042513E+02 -0.10623881421E+03  0.10878638830E+03  0.47000000000E+01 0. -1.
        -13    1    6    6    0    0  0.77295179204E+02 -0.47719702123E+02 -0.11969373526E+03  0.15026078982E+03  0.00000000000E+00 0.  1.
         14    1    6    6    0    0  0.14442584288E+03 -0.11440467314E+02 -0.90557581931E+02  0.17085193599E+03  0.00000000000E+00 0. -1.
         -5    1    3    3    0  503 -0.87971888001E+01 -0.36186705341E+02  0.57295266705E+01  0.37970852638E+02  0.47000000000E+01 0.  1.
         13    1    4    4    0    0 -0.71621463159E+02 -0.12829304185E+02 -0.20944888520E+02  0.75716004821E+02  0.00000000000E+00 0. -1.
        -14    1    4    4    0    0 -0.15000105026E+03  0.86962136449E+02 -0.92868678184E+02  0.19669092415E+03  0.00000000000E+00 0.  1.
</event>
<event>
12    1  0.8113184E-002  0.2205603E+03  0.7818608E-02  0.1133758E+00
         21   -1    0    0  503  502  0.00000000000E+00  0.00000000000E+00  0.24844192802E+03  0.24844192802E+03  0.00000000000E+00 0.  1.
         21   -1    0    0  501  503 -0.00000000000E+00 -0.00000000000E+00 -0.30104373686E+03  0.30104373686E+03  0.00000000000E+00 0.  1.
          6    2    1    2  501    0 -0.22250524598E+02  0.13221742011E+03 -0.18974716489E+03  0.28976331072E+03  0.17315385536E+03 0.  0.
         24    2    3    3    0    0 -0.48469900820E+02  0.98540053696E+02 -0.50302602279E+02  0.14385753036E+03  0.78135547466E+02 0.  0.
         -6    2    1    2    0  502  0.22250524598E+02 -0.13221742011E+03  0.13714535605E+03  0.25972235416E+03  0.17512943938E+03 0.  0.
        -24    2    5    5    0    0 -0.41401733695E+02 -0.71376550233E+02  0.82196726072E+02  0.15582498475E+03  0.10352008800E+03 0.  0.
          5    1    3    3  501    0  0.26219376221E+02  0.33677366418E+02 -0.13944456262E+03  0.14590578036E+03  0.47000000000E+01 0. -1.
        -13    1    4    4    0    0 -0.41944386216E+02  0.10412056701E+03 -0.22138787157E+02  0.11441394105E+03  0.00000000000E+00 0.  1.
         14    1    4    4    0    0 -0.65255146033E+01 -0.55805133095E+01 -0.28163815122E+02  0.29443589317E+02  0.00000000000E+00 0. -1.
         -5    1    5    5    0  502  0.63652258293E+02 -0.60840869881E+02  0.54948629982E+02  0.10389736941E+03  0.47000000000E+01 0.  1.
         11    1    6    6    0    0  0.14465491863E+02 -0.11721763305E+02  0.70916598781E+02  0.73319943893E+02  0.00000000000E+00 0. -1.
        -12    1    6    6    0    0 -0.55867225558E+02 -0.59654786928E+02  0.11280127291E+02  0.82505040856E+02  0.00000000000E+00 0.  1.
</event>
<event>
12    1  0.8113184E-002  0.1977043E+03  0.7818608E-02  0.1151838E+00
         21   -1    0    0  501  502  0.00000000000E+00  0.00000000000E+00  0.69863333523E+02  0.69863333523E+02  0.00000000000E+00 0. -1.
         21   -1    0    0  502  503 -0.00000000000E+00 -0.00000000000E+00 -0.56099338639E+03  0.56099338639E+03  0.00000000000E+00 0.  1.
         -6    2    1    2    0  503  0.58510910266E+02 -0.80161655930E+02 -0.27074694048E+03  0.33524750908E+03  0.17098996714E+03 0.  0.
        -24    2    3    3    0    0  0.39538510578E+02 -0.29601071947E+02 -0.26437877240E+03  0.28066758450E+03  0.80241139165E+02 0.  0.
          6    2    1    2  501    0 -0.58510910266E+02  0.80161655930E+02 -0.22038311239E+03  0.29560921084E+03  0.17019597998E+03 0.  0.
         24    2    5    5    0    0  0.88814469886E+01  0.66632473214E+02 -0.19474556144E+03  0.22209633700E+03  0.82958921282E+02 0.  0.
          5    1    5    5  501    0 -0.67392357254E+02  0.13529182717E+02 -0.25637550950E+02  0.73512873839E+02  0.47000000000E+01 0. -1.
        -11    1    6    6    0    0 -0.17667222322E+02  0.25063772069E+02 -0.15705561088E+03  0.16002121211E+03  0.00000000000E+00 0.  1.
         12    1    6    6    0    0  0.26548669310E+02  0.41568701145E+02 -0.37689950555E+02  0.62075124888E+02  0.00000000000E+00 0. -1.
         -5    1    3    3    0  503  0.18972399688E+02 -0.50560583984E+02 -0.63681680849E+01  0.54579924583E+02  0.47000000000E+01 0.  1.
         11    1    4    4    0    0  0.22512834288E+02 -0.54743726591E+01 -0.11130916554E+02  0.25703964033E+02  0.00000000000E+00 0. -1.
        -12    1    4    4    0    0  0.17025676291E+02 -0.24126699288E+02 -0.25324785584E+03  0.25496362046E+03  0.00000000000E+00 0.  1.
</event>
<event>
12    1  0.8113184E-002  0.2082161E+03  0.7818608E-02  0.1144825E+00
         21   -1    0    0  503  502  0.00000000000E+00  0.00000000000E+00  0.38323376020E+03  0.38323376020E+03  0.00000000000E+00 0. -1.
         21   -1    0    0  501  503 -0.00000000000E+00 -0.00000000000E+00 -0.14968222744E+03  0.14968222744E+03  0.00000000000E+00 0. -1.
          6    2    1    2  501    0  0.82547858150E+02 -0.55037158533E+02  0.25870491035E+03  0.33208762995E+03  0.18305934999E+03 0.  0.
         24    2    3    3    0    0 -0.74474882736E+01  0.23892532169E+01  0.42503554869E+02  0.90919490972E+02  0.79991424851E+02 0.  0.
         -6    2    1    2    0  502 -0.82547858150E+02  0.55037158533E+02 -0.25153377593E+02  0.20082835769E+03  0.17278917542E+03 0.  0.
        -24    2    5    5    0    0 -0.90865405462E+02  0.89981055846E+02 -0.36987646540E+02  0.16271802478E+03  0.93573272209E+02 0.  0.
          5    1    3    3  501    0  0.89995346424E+02 -0.57426411750E+02  0.21620135548E+03  0.24116813897E+03  0.47000000000E+01 0. -1.
        -13    1    4    4    0    0  0.31282269622E+02 -0.14871858743E+02  0.32179367568E+02  0.47278581538E+02  0.00000000000E+00 0.  1.
         14    1    4    4    0    0 -0.38729757896E+02  0.17261111960E+02  0.10324187301E+02  0.43640909434E+02  0.00000000000E+00 0. -1.
         -5    1    5    5    0  502  0.83175473125E+01 -0.34943897314E+02  0.11834268947E+02  0.38110332907E+02  0.47000000000E+01 0.  1.
         11    1    6    6    0    0 -0.97149245015E+02  0.69090525799E+02  0.65178981239E+00  0.11921367955E+03  0.00000000000E+00 0. -1.
        -12    1    6    6    0    0  0.62838395527E+01  0.20890530047E+02 -0.37639436353E+02  0.43504345233E+02  0.00000000000E+00 0.  1.
</event>
<event>
12    1  0.8113184E-002  0.2066998E+03  0.7818608E-02  0.1144411E+00
         21   -1    0    0  503  502  0.00000000000E+00  0.00000000000E+00  0.13236799292E+04  0.13236799292E+04  0.00000000000E+00 0. -1.
         21   -1    0    0  501  503 -0.00000000000E+00 -0.00000000000E+00 -0.41034987723E+02  0.41034987723E+02  0.00000000000E+00 0. -1.
          6    2    1    2  501    0 -0.33937664298E+02  0.10926868686E+03  0.32450018997E+03  0.38474043036E+03  0.17214358680E+03 0.  0.
         24    2    3    3    0    0 -0.21000475683E+02  0.11361570723E+03  0.33730766279E+03  0.36544305242E+03  0.80141227082E+02 0.  0.
         -6    2    1    2    0  502  0.33937664298E+02 -0.10926868686E+03  0.95814475146E+03  0.97997448651E+03  0.17093044927E+03 0.  0.
        -24    2    5    5    0    0 -0.24444654062E+02 -0.27497388385E+02  0.26560089440E+03  0.28016442350E+03  0.81207275583E+02 0.  0.
          5    1    3    3  501    0 -0.12937188615E+02 -0.43470203711E+01 -0.12807472818E+02  0.19297377940E+02  0.47000000000E+01 0. -1.
        -13    1    4    4    0    0 -0.59871762431E+01 -0.11662387724E+02  0.19420910224E+02  0.23431374708E+02  0.00000000000E+00 0.  1.
         14    1    4    4    0    0 -0.15013299440E+02  0.12527809495E+03  0.31788675257E+03  0.34201167771E+03  0.00000000000E+00 0. -1.
         -5    1    5    5    0  502  0.58382318360E+02 -0.81771298471E+02  0.69254385706E+03  0.69981006302E+03  0.47000000000E+01 0.  1.
         13    1    6    6    0    0 -0.35500155649E+02 -0.15583323570E+02  0.26014762958E+03  0.26302070298E+03  0.00000000000E+00 0. -1.
        -14    1    6    6    0    0  0.11055501586E+02 -0.11914064815E+02  0.54532648218E+01  0.17143720511E+02  0.00000000000E+00 0.  1.
</event>
<event>
12    1  0.8113184E-002  0.1858428E+03  0.7818608E-02  0.1162416E+00
         21   -1    0    0  501  502  0.00000000000E+00  0.00000000000E+00  0.14976235706E+03  0.14976235706E+03  0.00000000000E+00 0.  1.
         21   -1    0    0  502  503 -0.00000000000E+00 -0.00000000000E+00 -0.38942624524E+03  0.38942624524E+03  0.00000000000E+00 0.  1.
         -6    2    1    2    0  503 -0.68321881656E+02  0.16049383412E+02  0.52888601592E+02  0.19259878095E+03  0.17138151599E+03 0.  0.
        -24    2    3    3    0    0 -0.28056746830E+02  0.76380971751E+02  0.41752291888E+02  0.11906450984E+03  0.76235619870E+02 0.  0.
          6    2    1    2  501    0  0.68321881656E+02 -0.16049383412E+02 -0.29255248977E+03  0.34658982134E+03  0.17208161658E+03 0.  0.
         24    2    5    5    0    0 -0.26141291636E+02  0.18236069866E+02 -0.13180687590E+03  0.15695853227E+03  0.79038009503E+02 0.  0.
          5    1    5    5  501    0  0.94463173292E+02 -0.34285453278E+02 -0.16074561387E+03  0.18963128907E+03  0.47000000000E+01 0. -1.
        -11    1    6    6    0    0 -0.15248061879E+02  0.20961886261E+02 -0.14042886663E+03  0.14280115774E+03  0.00000000000E+00 0.  1.
         12    1    6    6    0    0 -0.10893229757E+02 -0.27258163953E+01  0.86219907340E+01  0.14157374537E+02  0.00000000000E+00 0. -1.
         -5    1    3    3    0  503 -0.40265134826E+02 -0.60331588339E+02  0.11136309704E+02  0.73534271111E+02  0.47000000000E+01 0.  1.
         11    1    4    4    0    0  0.12232262323E+02  0.42534281251E+01 -0.14249818628E+02  0.19255576420E+02  0.00000000000E+00 0. -1.
        -12    1    4    4    0    0 -0.40289009153E+02  0.72127543626E+02  0.56002110516E+02  0.99808933419E+02  0.00000000000E+00 0.  1.
</event>
<event>
12    1  0.8113184E-002  0.2773209E+03  0.7818608E-02  0.1097164E+00
         21   -1    0    0  503  502  0.00000000000E+00  0.00000000000E+00  0.44164016814E+03  0.44164016814E+03  0.00000000000E+00 0.  1.
         21   -1    0    0  501  503 -0.00000000000E+00 -0.00000000000E+00 -0.17839532039E+03  0.17839532039E+03  0.00000000000E+00 0. -1.
          6    2    1    2  501    0 -0.13428301220E+03  0.17101288997E+03  0.17958584857E+03  0.33039062943E+03  0.17213237671E+03 0.  0.
         24    2    3    3    0    0 -0.59616997791E+02  0.52917374061E+01  0.76360925491E+02  0.12130694079E+03  0.72816165996E+02 0.  0.
         -6    2    1    2    0  502  0.13428301220E+03 -0.17101288997E+03  0.83658999176E+02  0.28964485910E+03  0.17209875176E+03 0.  0.
        -24    2    5    5    0    0  0.13178408432E+03 -0.10958632709E+03  0.11452037994E+03  0.22069573227E+03  0.78838320976E+02 0.  0.
          5    1    3    3  501    0 -0.74666014406E+02  0.16572115256E+03  0.10322492308E+03  0.20908368865E+03  0.47000000000E+01 0. -1.
        -11    1    4    4    0    0 -0.46879371704E+02  0.18135860177E+02  0.83780302746E+01  0.50958574421E+02  0.00000000000E+00 0.  1.
         12    1    4    4    0    0 -0.12737626087E+02 -0.12844122771E+02  0.67982895217E+02  0.70348366364E+02  0.00000000000E+00 0. -1.
         -5    1    5    5    0  502  0.24989278729E+01 -0.61426562882E+02 -0.30861380763E+02  0.68949126830E+02  0.47000000000E+01 0.  1.
         13    1    6    6    0    0  0.68062668206E+02 -0.10041583884E+03  0.92863537331E+02  0.15277272027E+03  0.00000000000E+00 0. -1.
        -14    1    6    6    0    0  0.63721416118E+02 -0.91704882430E+01  0.21656842608E+02  0.67923011995E+02  0.00000000000E+00 0.  1.
</event>
<event>
12    1  0.8113184E-002  0.2880394E+03  0.7818608E-02  0.1091516E+00
         21   -1    0    0  501  502  0.00000000000E+00  0.00000000000E+00  0.94736846838E+03  0.94736846838E+03  0.00000000000E+00 0.  1.
         21   -1    0    0  502  503 -0.00000000000E+00 -0.00000000000E+00 -0.87752737741E+02  0.87752737741E+02  0.00000000000E+00 0. -1.
         -6    2    1    2    0  503 -0.12497869616E+03 -0.19293173780E+03  0.46796825423E+03  0.54895820263E+03  0.17180946224E+03 0.  0.
        -24    2    3    3    0    0 -0.73267068615E+02 -0.90739295504E+02  0.16205935817E+03  0.22227834347E+03  0.97686965938E+02 0.  0.
          6    2    1    2  501    0  0.12497869616E+03  0.19293173780E+03  0.39164747640E+03  0.48616300349E+03  0.17356379302E+03 0.  0.
         24    2    5    5    0    0  0.59359636753E+02  0.19832505781E+02  0.16885067867E+03  0.19645675888E+03  0.78535416623E+02 0.  0.
          5    1    5    5  501    0  0.65619059410E+02  0.17309923202E+03  0.22279679774E+03  0.28970624461E+03  0.47000000000E+01 0. -1.
        -11    1    6    6    0    0  0.26423597033E+02  0.39615681201E+02  0.14149259000E+03  0.14929086276E+03  0.00000000000E+00 0.  1.
         12    1    6    6    0    0  0.32936039720E+02 -0.19783175420E+02  0.27358088665E+02  0.47165896128E+02  0.00000000000E+00 0. -1.
         -5    1    3    3    0  503 -0.51711627548E+02 -0.10219244230E+03  0.30590889607E+03  0.32667985916E+03  0.47000000000E+01 0.  1.
         11    1    4    4    0    0 -0.70576821495E+02 -0.30638487677E+02  0.41208050577E+02  0.87280628388E+02  0.00000000000E+00 0. -1.
        -12    1    4    4    0    0 -0.26902471198E+01 -0.60100807827E+02  0.12085130759E+03  0.13499771508E+03  0.00000000000E+00 0.  1.
</event>
<event>
12    1  0.8113184E-002  0.2132945E+03  0.7818608E-02  0.1140644E+00
         21   -1    0    0  501  502  0.00000000000E+00  0.00000000000E+00  0.18896144517E+03  0.18896144517E+03  0.00000000000E+00 0.  1.
         21   -1    0    0  502  503 -0.00000000000E+00 -0.00000000000E+00 -0.26172143322E+03  0.26172143322E+03  0.00000000000E+00 0. -1.
         -6    2    1    2    0  503 -0.73716806919E+02 -0.87795453349E+02 -0.11371497872E+03  0.24171392969E+03  0.17986750170E+03 0.  0.
        -24    2    3    3    0    0  0.59317600059E+01 -0.51851854726E+02  0.34733584929E+01  0.95457193521E+02  0.79851180081E+02 0.  0.
          6    2    1    2  501    0  0.73716806919E+02  0.87795453349E+02  0.40954990672E+02  0.20896894870E+03  0.16984846484E+03 0.  0.
         24    2    5    5    0    0  0.95016931196E+02  0.96116976016E+02  0.67985209816E+02  0.17325248498E+03  0.84425970556E+02 0.  0.
          5    1    5    5  501    0 -0.21300124277E+02 -0.83215226670E+01 -0.27030219144E+02  0.35716463720E+02  0.47000000000E+01 0. -1.
        -11    1    6    6    0    0 -0.10961787743E+02  0.34295464262E+02  0.22183012068E+02  0.42289782263E+02  0.00000000000E+00 0.  1.
         12    1    6    6    0    0  0.10597871894E+03  0.61821511754E+02  0.45802197748E+02  0.13096270271E+03  0.00000000000E+00 0. -1.
         -5    1    3    3    0  503 -0.79648566925E+02 -0.35943598622E+02 -0.11718833722E+03  0.14625673617E+03  0.47000000000E+01 0.  1.
         13    1    4    4    0    0  0.54418457905E+01 -0.16677381374E+02 -0.37532408503E+02  0.41429825285E+02  0.00000000000E+00 0. -1.
        -14    1    4    4    0    0  0.48991421538E+00 -0.35174473352E+02  0.41005766996E+02  0.54027368236E+02  0.00000000000E+00 0.  1.
</event>
<event>
12    1  0.8113184E-002  0.1760639E+03  0.7818608E-02  0.1173221E+00
         21   -1    0    0  503  502  0.00000000000E+00  0.00000000000E+00  0.36894340367E+02  0.36894340367E+02  0.00000000000E+00 0.  1.
         21   -1    0    0  501  503 -0.00000000000E+00 -0.00000000000E+00 -0.81585193087E+03  0.81585193087E+03  0.00000000000E+00 0.  1.
          6    2    1    2  501    0 -0.80141348024E+01 -0.41522344591E+02 -0.41468068468E+03  0.44815247025E+03  0.16459718980E+03 0.  0.
         24    2    3    3    0    0  0.59815269467E+02 -0.34395326391E+02 -0.26441528051E+03  0.28306641947E+03  0.73825824254E+02 0.  0.
         -6    2    1    2    0  502  0.80141348024E+01  0.41522344591E+02 -0.36427690582E+03  0.40459380098E+03  0.17090976631E+03 0.  0.
        -24    2    5    5    0    0 -0.49332702056E+02  0.60739625751E+02 -0.26950929828E+03  0.29207290056E+03  0.80921565439E+02 0.  0.
          5    1    3    3  501    0 -0.67829404269E+02 -0.71270182007E+01 -0.15026540417E+03  0.16508605078E+03  0.47000000000E+01 0. -1.
        -11    1    4    4    0    0 -0.49100124942E+01 -0.26300846239E+02 -0.14056503781E+03  0.14308868784E+03  0.00000000000E+00 0.  1.
         12    1    4    4    0    0  0.64725281961E+02 -0.80944801518E+01 -0.12385024270E+03  0.13997773162E+03  0.00000000000E+00 0. -1.
         -5    1    5    5    0  502  0.57346836859E+02 -0.19217281159E+02 -0.94767607539E+02  0.11252090042E+03  0.47000000000E+01 0.  1.
         11    1    6    6    0    0 -0.31708788869E+02  0.66635012440E+02 -0.26171654387E+03  0.27192135170E+03  0.00000000000E+00 0. -1.
        -12    1    6    6    0    0 -0.17623913187E+02 -0.58953866893E+01 -0.77927544131E+01  0.20151548863E+02  0.00000000000E+00 0.  1.
</event>
<event>
12    1  0.8113184E-002  0.1938064E+03  0.7818608E-02  0.1155871E+00
         21   -1    0    0  503  502  0.00000000000E+00  0.00000000000E+00  0.22908858618E+03  0.22908858618E+03  0.00000000000E+00 0. -1.
         21   -1    0    0  501  503 -0.00000000000E+00 -0.00000000000E+00 -0.16934019570E+03  0.16934019570E+03  0.00000000000E+00 0. -1.
          6    2    1    2  501    0 -0.82358046798E+02 -0.37551575111E+02 -0.14788269829E+02  0.19078334233E+03  0.16729202647E+03 0.  0.
         24    2    3    3    0    0 -0.11375373377E+03 -0.35611056650E+01  0.68320172752E+01  0.13949427929E+03  0.80370293487E+02 0.  0.
         -6    2    1    2    0  502  0.82358046798E+02  0.37551575111E+02  0.74536660306E+02  0.20764543954E+03  0.17137078563E+03 0.  0.
        -24    2    5    5    0    0  0.14200706045E+02  0.79305583645E+02  0.53918061707E+02  0.12496510974E+03  0.78854838949E+02 0.  0.
          5    1    3    3  501    0  0.31395686969E+02 -0.33990469446E+02 -0.21620287105E+02  0.51289063044E+02  0.47000000000E+01 0. -1.
        -13    1    4    4    0    0 -0.68691317344E+02 -0.11145590454E+02 -0.34684893663E+02  0.77754505422E+02  0.00000000000E+00 0.  1.
         14    1    4    4    0    0 -0.45062416423E+02  0.75844847895E+01  0.41516910938E+02  0.61739773868E+02  0.00000000000E+00 0. -1.
         -5    1    5    5    0  502  0.68157340753E+02 -0.41754008534E+02  0.20618598600E+02  0.82680329797E+02  0.47000000000E+01 0.  1.
         11    1    6    6    0    0  0.19284119163E+02  0.18873430921E+02 -0.16814554490E+02  0.31793283714E+02  0.00000000000E+00 0. -1.
        -12    1    6    6    0    0 -0.50834131176E+01  0.60432152724E+02  0.70732616197E+02  0.93171826030E+02  0.00000000000E+00 0.  1.
</event>
<event>
12    1  0.8113184E-002  0.1770338E+03  0.7818608E-02  0.1171402E+00
         21   -1    0    0  501  502  0.00000000000E+00  0.00000000000E+00  0.60353046972E+03  0.60353046972E+03  0.00000000000E+00 0. -1.
         21   -1    0    0  502  503 -0.00000000000E+00 -0.00000000000E+00 -0.59268072012E+02  0.59268072012E+02  0.00000000000E+00 0. -1.
         -6    2    1    2    0  503  0.94478453583E+01 -0.40010087957E+02  0.14733919157E+03  0.22818491266E+03  0.16932054828E+03 0.  0.
        -24    2    3    3    0    0 -0.30424948372E+02  0.10521940902E+02  0.23830012932E+02  0.88829493570E+02  0.79286951560E+02 0.  0.
          6    2    1    2  501    0 -0.94478453583E+01  0.40010087957E+02  0.39692320613E+03  0.43461362907E+03  0.17219438460E+03 0.  0.
         24    2    5    5    0    0 -0.48679964767E+02  0.76530558487E+02  0.28948995330E+03  0.31445998671E+03  0.82788796476E+02 0.  0.
          5    1    5    5  501    0  0.39232119408E+02 -0.36520470530E+02  0.10743325283E+03  0.12015364237E+03  0.47000000000E+01 0. -1.
        -13    1    6    6    0    0 -0.46392921543E+02  0.15639927396E+02  0.62269540655E+02  0.79211149415E+02  0.00000000000E+00 0.  1.
         14    1    6    6    0    0 -0.22870432232E+01  0.60890631092E+02  0.22722041265E+03  0.23524883729E+03  0.00000000000E+00 0. -1.
         -5    1    3    3    0  503  0.39872793730E+02 -0.50532028859E+02  0.12350917864E+03  0.13935541909E+03  0.47000000000E+01 0.  1.
         11    1    4    4    0    0 -0.60426445725E+01  0.43230862047E+02  0.51311160924E+01  0.43951670493E+02  0.00000000000E+00 0. -1.
        -12    1    4    4    0    0 -0.24382303799E+02 -0.32708921145E+02  0.18698896840E+02  0.44877823076E+02  0.00000000000E+00 0.  1.
</event>
<event>
12    1  0.8113184E-002  0.1979188E+03  0.7818608E-02  0.1151917E+00
         21   -1    0    0  503  502  0.00000000000E+00  0.00000000000E+00  0.16703363679E+04  0.16703363679E+04  0.00000000000E+00 0.  1.
         21   -1    0    0  501  503 -0.00000000000E+00 -0.00000000000E+00 -0.48607205946E+02  0.48607205946E+02  0.00000000000E+00 0.  1.
          6    2    1    2  501    0 -0.78356377825E+02 -0.57212510063E+02  0.18792756054E+03  0.27154630069E+03  0.17031627096E+03 0.  0.
         24    2    3    3    0    0 -0.19390469346E+02 -0.83697646645E+02  0.16414439165E+03  0.20250884748E+03  0.81762862253E+02 0.  0.
         -6    2    1    2    0  502  0.78356377825E+02  0.57212510063E+02  0.14338016014E+04  0.14473972732E+04  0.17250750961E+03 0.  0.
        -24    2    5    5    0    0  0.72709925221E+02  0.95842125940E+02  0.83255935561E+03  0.84487054530E+03  0.78604779510E+02 0.  0.
          5    1    3    3  501    0 -0.58965908479E+02  0.26485136583E+02  0.23783168889E+02  0.69037453204E+02  0.47000000000E+01 0. -1.
        -11    1    4    4    0    0 -0.29494972259E+02 -0.91946251818E+02  0.10801498213E+03  0.14488375677E+03  0.00000000000E+00 0.  1.
         12    1    4    4    0    0  0.10104502913E+02  0.82486051725E+01  0.56129409523E+02  0.57625090714E+02  0.00000000000E+00 0. -1.
         -5    1    5    5    0  502  0.56464526042E+01 -0.38629615878E+02  0.60124224582E+03  0.60252672788E+03  0.47000000000E+01 0.  1.
         11    1    6    6    0    0  0.65198216179E+00  0.74016122708E+01  0.38924725289E+01  0.83881039177E+01  0.00000000000E+00 0. -1.
        -12    1    6    6    0    0  0.72057943059E+02  0.88440513670E+02  0.82866688308E+03  0.83648244138E+03  0.00000000000E+00 0.  1.
</event>
<event>
12    1  0.8113184E-002  0.2018295E+03  0.7818608E-02  0.1149300E+00
         21   -1    0    0  503  502  0.00000000000E+00  0.00000000000E+00  0.17330932477E+03  0.17330932477E+03  0.00000000000E+00 0. -1.
         21   -1    0    0  501  503 -0.00000000000E+00 -0.00000000000E+00 -0.44212825193E+03  0.44212825193E+03  0.00000000000E+00 0. -1.
          6    2    1    2  501    0  0.48018834473E+02 -0.83413828142E+02 -0.34711907608E+03  0.39895186316E+03  0.17148545405E+03 0.  0.
         24    2    3    3    0    0 -0.31379778245E+02 -0.67094315791E+02 -0.23960245043E+03  0.26422109097E+03  0.83169182787E+02 0.  0.
         -6    2    1    2    0  502 -0.48018834473E+02  0.83413828142E+02  0.78300148916E+02  0.21648571353E+03  0.17740201705E+03 0.  0.
        -24    2    5    5    0    0 -0.44501613327E+02  0.86447679952E+02  0.11906841094E+03  0.17518539525E+03  0.84018100837E+02 0.  0.
          5    1    3    3  501    0  0.79398612718E+02 -0.16319512351E+02 -0.10751662565E+03  0.13473077219E+03  0.47000000000E+01 0. -1.
        -11    1    4    4    0    0 -0.67211060291E+01  0.12628556131E+02 -0.48950826989E+01  0.15120037396E+02  0.00000000000E+00 0.  1.
         12    1    4    4    0    0 -0.24658672216E+02 -0.79722871922E+02 -0.23470736773E+03  0.24910105357E+03  0.00000000000E+00 0. -1.
         -5    1    5    5    0  502 -0.35172211464E+01 -0.30338518106E+01 -0.40768262026E+02  0.41300318280E+02  0.47000000000E+01 0.  1.
         11    1    6    6    0    0  0.17542727511E+02  0.44638569210E+02  0.22367905856E+02  0.52921379064E+02  0.00000000000E+00 0. -1.
        -12    1    6    6    0    0 -0.62044340838E+02  0.41809110742E+02  0.96700505086E+02  0.12226401619E+03  0.00000000000E+00 0.  1.
</event>
<event>
12    1  0.8113184E-002  0.1813902E+03  0.7818608E-02  0.1166929E+00
         21   -1    0    0  503  502  0.00000000000E+00  0.00000000000E+00  0.25198924640E+02  0.25198924640E+02  0.00000000000E+00 0.  1.
         21   -1    0    0  501  503 -0.00000000000E+00 -0.00000000000E+00 -0.13036420703E+04  0.13036420703E+04  0.00000000000E+00 0.  1.
          6    2    1    2  501    0 -0.39101078177E+02 -0.36039693560E+02 -0.69900493535E+03  0.72167458205E+03  0.17140171793E+03 0.  0.
         24    2    3    3    0    0 -0.17073371845E+02  0.46151226877E+02 -0.39803188324E+03  0.40886883507E+03  0.79516718040E+02 0.  0.
         -6    2    1    2    0  502  0.39101078177E+02  0.36039693560E+02 -0.57943821034E+03  0.60716641292E+03  0.17342047038E+03 0.  0.
        -24    2    5    5    0    0  0.22884099489E+02  0.49060178203E+01 -0.11733142083E+03  0.14370436369E+03  0.79602329170E+02 0.  0.
          5    1    3    3  501    0 -0.22027706332E+02 -0.82190920437E+02 -0.30097305211E+03  0.31280574698E+03  0.47000000000E+01 0. -1.
        -13    1    4    4    0    0 -0.35703497287E+02 -0.70803762139E+01 -0.18142480142E+03  0.18504007678E+03  0.00000000000E+00 0.  1.
         14    1    4    4    0    0  0.18630125442E+02  0.53231603091E+02 -0.21660708182E+03  0.22382875829E+03  0.00000000000E+00 0. -1.
         -5    1    5    5    0  502  0.16216978688E+02  0.31133675740E+02 -0.46210678951E+03  0.46346204923E+03  0.47000000000E+01 0.  1.
         11    1    6    6    0    0 -0.19680777983E+02  0.94121792308E+00 -0.91844481243E+02  0.93934166564E+02  0.00000000000E+00 0. -1.
        -12    1    6    6    0    0  0.42564877472E+02  0.39647998972E+01 -0.25486939586E+02  0.49770197125E+02  0.00000000000E+00 0.  1.
</event>
<event>
12    1  0.8113184E-002  0.2457474E+03  0.7818608E-02  0.1116050E+00
         21   -1    0    0  503  502  0.00000000000E+00  0.00000000000E+00  0.20967296853E+03  0.20967296853E+03  0.00000000000E+00 0.  1.
         21   -1    0    0  501  503 -0.00000000000E+00 -0.00000000000E+00 -0.80577523760E+03  0.80577523760E+03  0.00000000000E+00 0. -1.
          6    2    1    2  501    0 -0.16943993118E+03 -0.44703531041E+02 -0.70507953483E+03  0.74662142589E+03  0.17204100441E+03 0.  0.
         24    2    3    3    0    0 -0.18682739004E+03 -0.35851780292E+02 -0.50367158443E+03  0.54421606603E+03  0.79348835808E+02 0.  0.
         -6    2    1    2    0  502  0.16943993118E+03  0.44703531041E+02  0.10897726576E+03  0.26882678024E+03  0.17228899371E+03 0.  0.
        -24    2    5    5    0    0  0.14014773145E+02  0.37580751993E+02  0.53277172033E+02  0.10350193585E+03  0.79154702181E+02 0.  0.
          5    1    3    3  501    0  0.17387458853E+02 -0.88517507490E+01 -0.20140795040E+03  0.20240535987E+03  0.47000000000E+01 0. -1.
        -11    1    4    4    0    0 -0.14646192349E+01  0.11469244877E+02 -0.12128165974E+02  0.16756524026E+02  0.00000000000E+00 0.  1.
         12    1    4    4    0    0 -0.18536277080E+03 -0.47321025169E+02 -0.49154341845E+03  0.52745954200E+03  0.00000000000E+00 0. -1.
         -5    1    5    5    0  502  0.15542515804E+03  0.71227790481E+01  0.55700093726E+02  0.16532484439E+03  0.47000000000E+01 0.  1.
         11    1    6    6    0    0 -0.23067349164E+00  0.59371899317E+02  0.49286149052E+02  0.77163463680E+02  0.00000000000E+00 0. -1.
        -12    1    6    6    0    0  0.14245446637E+02 -0.21791147324E+02  0.39910229814E+01  0.26338472166E+02  0.00000000000E+00 0.  1.
</event>
<event>
12    1  0.8113184E-002  0.2183531E+03  0.7818608E-02  0.1136592E+00
         21   -1    0    0  503  502  0.00000000000E+00  0.00000000000E+00  0.60018296277E+03  0.60018296277E+03  0.00000000000E+00 0.  1.
         21   -1    0    0  501  503 -0.00000000000E+00 -0.00000000000E+00 -0.16153555551E+03  0.16153555551E+03  0.00000000000E+00 0.  1.
          6    2    1    2  501    0 -0.12138049680E+03  0.23385545048E+02 -0.58581326875E+02  0.21865820463E+03  0.17058584312E+03 0.  0.
         24    2    3    3    0    0 -0.13253039360E+03  0.35349463553E+02 -0.90146377363E+02  0.18279878526E+03  0.80468234358E+02 0.  0.
         -6    2    1    2    0  502  0.12138049680E+03 -0.23385545048E+02  0.49722873414E+03  0.54306031366E+03  0.17999439295E+03 0.  0.
        -24    2    5    5    0    0  0.12387954314E+03 -0.45496681259E+02  0.49681439079E+03  0.52031368187E+03  0.80533840286E+02 0.  0.
          5    1    3    3  501    0  0.11149896804E+02 -0.11963918505E+02  0.31565050488E+02  0.35859419363E+02  0.47000000000E+01 0. -1.
        -13    1    4    4    0    0 -0.68219208234E+02  0.30310170847E+02 -0.91735691880E+02  0.11827089242E+03  0.00000000000E+00 0.  1.
         14    1    4    4    0    0 -0.64311185369E+02  0.50392927060E+01  0.15893145170E+01  0.64527892846E+02  0.00000000000E+00 0. -1.
         -5    1    5    5    0  502 -0.24990463400E+01  0.22111136211E+02  0.41434335012E+00  0.22746631785E+02  0.47000000000E+01 0.  1.
         13    1    6    6    0    0 -0.76711576999E+01 -0.18061987720E+02  0.80045329812E+02  0.82415634958E+02  0.00000000000E+00 0. -1.
        -14    1    6    6    0    0  0.13155070084E+03 -0.27434693539E+02  0.41676906098E+03  0.43789804691E+03  0.00000000000E+00 0.  1.
</event>
<event>
12    1  0.8113184E-002  0.2320894E+03  0.7818608E-02  0.1125250E+00
         21   -1    0    0  503  502  0.00000000000E+00  0.00000000000E+00  0.14632761160E+03  0.14632761160E+03  0.00000000000E+00 0. -1.
         21   -1    0    0  501  503 -0.00000000000E+00 -0.00000000000E+00 -0.41334716758E+03  0.41334716758E+03  0.00000000000E+00 0.  1.
          6    2    1    2  501    0  0.15495606444E+03 -0.12205346015E+02 -0.22664267387E+03  0.32409934296E+03  0.17179385934E+03 0.  0.
         24    2    3    3    0    0  0.17505418607E+03  0.20157456081E+02 -0.19135946510E+03  0.27196221344E+03  0.79339205687E+02 0.  0.
         -6    2    1    2    0  502 -0.15495606444E+03  0.12205346015E+02 -0.40376882109E+02  0.23557543622E+03  0.17235179477E+03 0.  0.
        -24    2    5    5    0    0 -0.17305044785E+03 -0.22906705843E+02 -0.32051869544E+02  0.19493483176E+03  0.80629347121E+02 0.  0.
          5    1    3    3  501    0 -0.20098121632E+02 -0.32362802097E+02 -0.35283208772E+02  0.52137129514E+02  0.47000000000E+01 0. -1.
        -11    1    4    4    0    0  0.41480701122E+02  0.37737494757E+02 -0.76928823373E+02  0.95198796955E+02  0.00000000000E+00 0.  1.
         12    1    4    4    0    0  0.13357348495E+03 -0.17580038676E+02 -0.11443064173E+03  0.17676341649E+03  0.00000000000E+00 0. -1.
         -5    1    5    5    0  502  0.18094383410E+02  0.35112051858E+02 -0.83250125648E+01  0.40640604460E+02  0.47000000000E+01 0.  1.
         11    1    6    6    0    0 -0.46503964418E+02 -0.43936189601E+02 -0.12093769999E+02  0.65109651635E+02  0.00000000000E+00 0. -1.
        -12    1    6    6    0    0 -0.12654648343E+03  0.21029483758E+02 -0.19958099545E+02  0.12982518012E+03  0.00000000000E+00 0.  1.
</event>
<event>
12    1  0.8113184E-002  0.2576653E+03  0.7818608E-02  0.1108562E+00
         21   -1    0    0  501  502  0.00000000000E+00  0.00000000000E+00  0.25210332074E+04  0.25210332074E+04  0.00000000000E+00 0.  1.
         21   -1    0    0  502  503 -0.00000000000E+00 -0.00000000000E+00 -0.30893438650E+02  0.30893438650E+02  0.00000000000E+00 0.  1.
         -6    2    1    2    0  503  0.35094661257E+02  0.18880428337E+03  0.17353772212E+04  0.17543942592E+04  0.17171611562E+03 0.  0.
        -24    2    3    3    0    0  0.31331357365E+02  0.25671104313E+02  0.44930837508E+03  0.45800629127E+03  0.79063818364E+02 0.  0.
          6    2    1    2  501    0 -0.35094661257E+02 -0.18880428337E+03  0.75476254758E+03  0.79753238683E+03  0.17179264286E+03 0.  0.
         24    2    5    5    0    0 -0.83086543723E+02 -0.92274438781E+02  0.48999619901E+03  0.51162236424E+03  0.79014066781E+02 0.  0.
          5    1    5    5  501    0  0.47991882466E+02 -0.96529844593E+02  0.26476634857E+03  0.28591002258E+03  0.47000000000E+01 0. -1.
        -13    1    6    6    0    0  0.10383294377E+02 -0.16501277199E+02  0.27366773493E+02  0.33601268469E+02  0.00000000000E+00 0.  1.
         14    1    6    6    0    0 -0.93469838100E+02 -0.75773161582E+02  0.46262942552E+03  0.47802109578E+03  0.00000000000E+00 0. -1.
         -5    1    3    3    0  503  0.37633038921E+01  0.16313317906E+03  0.12860688461E+04  0.12963879679E+04  0.47000000000E+01 0.  1.
         13    1    4    4    0    0  0.34692985640E+02  0.44951406949E+02  0.19924418585E+03  0.20717740667E+03  0.00000000000E+00 0. -1.
        -14    1    4    4    0    0 -0.33616282751E+01 -0.19280302636E+02  0.25006418923E+03  0.25082888460E+03  0.00000000000E+00 0.  1.
</event>
<event>
12    1  0.8113184E-002  0.2427283E+03  0.7818608E-02  0.1119894E+00
         21   -1    0    0  503  502  0.00000000000E+00  0.00000000000E+00  0.86911133310E+03  0.86911133310E+03  0.00000000000E+00 0.  1.
         21   -1    0    0  501  503 -0.00000000000E+00 -0.00000000000E+00 -0.24022793597E+03  0.24022793597E+03  0.00000000000E+00 0. -1.
          6    2    1    2  501    0 -0.82940754003E+02  0.14209502073E+03 -0.16171612498E+03  0.28231771780E+03  0.16272991463E+03 0.  0.
         24    2    3    3    0    0 -0.47511515930E+01  0.12565720962E+03 -0.12844275364E+03  0.19564002287E+03  0.77234511798E+02 0.  0.
         -6    2    1    2    0  502  0.82940754003E+02 -0.14209502073E+03  0.79059952210E+03  0.82702155127E+03  0.17845693691E+03 0.  0.
        -24    2    5    5    0    0  0.84439718209E+01 -0.39320471695E+02  0.16153230210E+03  0.18525832721E+03  0.81305368966E+02 0.  0.
          5    1    3    3  501    0 -0.78189602410E+02  0.16437811114E+02 -0.33273371335E+02  0.86677694935E+02  0.47000000000E+01 0. -1.
        -11    1    4    4    0    0 -0.11598318631E+02  0.13506647236E+03 -0.12178292841E+03  0.18223214481E+03  0.00000000000E+00 0.  1.
         12    1    4    4    0    0  0.68471670379E+01 -0.94092627408E+01 -0.66598252376E+01  0.13407878056E+02  0.00000000000E+00 0. -1.
         -5    1    5    5    0  502  0.74496782182E+02 -0.10277454904E+03  0.62906722000E+03  0.64176322406E+03  0.47000000000E+01 0.  1.
         11    1    6    6    0    0 -0.36316607986E+02 -0.17305798881E+02  0.82782784039E+02  0.92040078356E+02  0.00000000000E+00 0. -1.
        -12    1    6    6    0    0  0.44760579807E+02 -0.22014672814E+02  0.78749518066E+02  0.93218248853E+02  0.00000000000E+00 0.  1.
</event>
<event>
12    1  0.8113184E-002  0.1841427E+03  0.7818608E-02  0.1164475E+00
         21   -1    0    0  503  502  0.00000000000E+00  0.00000000000E+00  0.31221673662E+03  0.31221673662E+03  0.00000000000E+00 0.  1.
         21   -1    0    0  501  503 -0.00000000000E+00 -0.00000000000E+00 -0.14950256317E+03  0.14950256317E+03  0.00000000000E+00 0.  1.
          6    2    1    2  501    0  0.31831022125E+01 -0.57638476902E+02 -0.42063802341E+02  0.18632400861E+03  0.17208993741E+03 0.  0.
         24    2    3    3    0    0 -0.44955743521E+02  0.67776174367E+01  0.74284416265E+01  0.91781140602E+02  0.79382876312E+02 0.  0.
         -6    2    1    2    0  502 -0.31831022125E+01  0.57638476902E+02  0.20477797580E+03  0.27539529118E+03  0.17486057553E+03 0.  0.
        -24    2    5    5    0    0 -0.65054322735E+02  0.65109054273E+02  0.13483401762E+03  0.18159707830E+03  0.79536360763E+02 0.  0.
          5    1    3    3  501    0  0.48138845734E+02 -0.64416094339E+02 -0.49492243968E+02  0.94542868009E+02  0.47000000000E+01 0. -1.
        -11    1    4    4    0    0 -0.10867396154E+01 -0.18338927483E+02 -0.25517306929E+02  0.31442490631E+02  0.00000000000E+00 0.  1.
         12    1    4    4    0    0 -0.43869003906E+02  0.25116544919E+02  0.32945748556E+02  0.60338649970E+02  0.00000000000E+00 0. -1.
         -5    1    5    5    0  502  0.61871220523E+02 -0.74705773707E+01  0.69943958177E+02  0.93798212887E+02  0.47000000000E+01 0.  1.
         11    1    6    6    0    0 -0.26060785167E+02  0.35335699200E+02  0.67292043019E+01  0.44419121468E+02  0.00000000000E+00 0. -1.
        -12    1    6    6    0    0 -0.38993537568E+02  0.29773355073E+02  0.12810481332E+03  0.13717795683E+03  0.00000000000E+00 0.  1.
</event>
<event>
12    1  0.8113184E-002  0.1877398E+03  0.7818608E-02  0.1160634E+00
         21   -1    0    0  501  502  0.00000000000E+00  0.00000000000E+00  0.35352282112E+03  0.35352282112E+03  0.00000000000E+00 0.  1.
         21   -1    0    0  502  503 -0.00000000000E+00 -0.00000000000E+00 -0.17243512978E+03  0.17243512978E+03  0.00000000000E+00 0.  1.
         -6    2    1    2    0  503 -0.25798405895E+02  0.71091462588E+02 -0.80502228337E+02  0.20427145105E+03  0.17183324227E+03 0.  0.
        -24    2    3    3    0    0 -0.37610925288E+02  0.88205356002E+02 -0.31396904948E+01  0.12402512264E+03  0.78597753540E+02 0.  0.
          6    2    1    2  501    0  0.25798405895E+02 -0.71091462588E+02  0.26158991968E+03  0.32168649985E+03  0.17126985814E+03 0.  0.
         24    2    5    5    0    0 -0.36015591083E+02 -0.53017267663E+02  0.89774479007E+02  0.13813737183E+03  0.83153610520E+02 0.  0.
          5    1    5    5  501    0  0.61813996978E+02 -0.18074194925E+02  0.17181544067E+03  0.18354912802E+03  0.47000000000E+01 0. -1.
        -11    1    6    6    0    0 -0.21568507531E+02 -0.26550141289E+02  0.10047760079E+03  0.10614074986E+03  0.00000000000E+00 0.  1.
         12    1    6    6    0    0 -0.14447083552E+02 -0.26467126374E+02 -0.10703121782E+02  0.31996621971E+02  0.00000000000E+00 0. -1.
         -5    1    3    3    0  503  0.11812519393E+02 -0.17113893414E+02 -0.77362537842E+02  0.80246328411E+02  0.47000000000E+01 0.  1.
         11    1    4    4    0    0 -0.51724114234E+02  0.62416420527E+02  0.23449342920E+02  0.84386404284E+02  0.00000000000E+00 0. -1.
        -12    1    4    4    0    0  0.14113188946E+02  0.25788935475E+02 -0.26589033415E+02  0.39638718358E+02  0.00000000000E+00 0.  1.
</event>
<event>
12    1  0.8113184E-002  0.1946365E+03  0.7818608E-02  0.1156584E+00
         21   -1    0    0  501  502  0.00000000000E+00  0.00000000000E+00  0.36363074488E+03  0.36363074488E+03  0.00000000000E+00 0.  1.
         21   -1    0    0  502  503 -0.00000000000E+00 -0.00000000000E+00 -0.11395151975E+03  0.11395151975E+03  0.00000000000E+00 0.  1.
         -6    2    1    2    0  503 -0.74277661411E+02  0.53356852816E+02  0.40972139704E+02  0.19890222195E+03  0.17181167870E+03 0.  0.
        -24    2    3    3    0    0 -0.17735595121E+02  0.45910617160E+02  0.85023278440E+02  0.12668695688E+03  0.79989318437E+02 0.  0.
          6    2    1    2  501    0  0.74277661411E+02 -0.53356852816E+02  0.20870708543E+03  0.27868004269E+03  0.16043626135E+03 0.  0.
         24    2    5    5    0    0  0.29584096863E+02  0.23376560326E+02  0.71208368263E+02  0.11493170338E+03  0.81957198408E+02 0.  0.
          5    1    5    5  501    0  0.44693564548E+02 -0.76733413142E+02  0.13749871716E+03  0.16374833931E+03  0.47000000000E+01 0. -1.
        -13    1    6    6    0    0  0.37340863327E+02  0.27347187061E+02  0.86057597671E+02  0.97714476057E+02  0.00000000000E+00 0.  1.
         14    1    6    6    0    0 -0.77567664640E+01 -0.39706267357E+01 -0.14849229407E+02  0.17217227322E+02  0.00000000000E+00 0. -1.
         -5    1    3    3    0  503 -0.56542066290E+02  0.74462356564E+01 -0.44051138736E+02  0.72215265075E+02  0.47000000000E+01 0.  1.
         13    1    4    4    0    0  0.77254013262E+01 -0.49716284974E+01  0.66085634995E+02  0.66721136593E+02  0.00000000000E+00 0. -1.
        -14    1    4    4    0    0 -0.25460996447E+02  0.50882245657E+02  0.18937643446E+02  0.59965820285E+02  0.00000000000E+00 0.  1.
</event>
<event>
12    1  0.8113184E-002  0.1752454E+03  0.7818608E-02  0.1172566E+00
         21   -1    0    0  503  502  0.00000000000E+00  0.00000000000E+00  0.23324937386E+03  0.23324937386E+03  0.00000000000E+00 0. -1.
         21   -1    0    0  501  503 -0.00000000000E+00 -0.00000000000E+00 -0.14298705594E+03  0.14298705594E+03  0.00000000000E+00 0. -1.
          6    2    1    2  501    0 -0.10192554741E+02  0.30984312857E+02 -0.83229992273E+01  0.17544297938E+03  0.17218318990E+03 0.  0.
         24    2    3    3    0    0  0.21307963787E+02 -0.36861315368E+02  0.22740206143E+02  0.94311452436E+02  0.81023127524E+02 0.  0.
         -6    2    1    2    0  502  0.10192554741E+02 -0.30984312857E+02  0.98585317154E+02  0.20079345042E+03  0.17185758394E+03 0.  0.
        -24    2    5    5    0    0  0.28108461473E+02 -0.23941765542E+02 -0.10655418891E+02  0.89770004251E+02  0.81128428851E+02 0.  0.
          5    1    3    3  501    0 -0.31500518528E+02  0.67845628225E+02 -0.31063205371E+02  0.81131526947E+02  0.47000000000E+01 0. -1.
        -11    1    4    4    0    0  0.51048589987E+02 -0.23790496350E+02  0.32206257731E+01  0.56412043808E+02  0.00000000000E+00 0.  1.
         12    1    4    4    0    0 -0.29740626199E+02 -0.13070819018E+02  0.19519580370E+02  0.37899408628E+02  0.00000000000E+00 0. -1.
         -5    1    5    5    0  502 -0.17915906732E+02 -0.70425473150E+01  0.10924073604E+03  0.11102344617E+03  0.47000000000E+01 0.  1.
         11    1    6    6    0    0  0.41277050761E+02 -0.10478115441E+01  0.22783342682E+02  0.47159023870E+02  0.00000000000E+00 0. -1.
        -12    1    6    6    0    0 -0.13168589288E+02 -0.22893953998E+02 -0.33438761574E+02  0.42610980382E+02  0.00000000000E+00 0.  1.
</event>
<event>
12    1  0.8113184E-002  0.1829751E+03  0.7818608E-02  0.1164966E+00
         21   -1    0    0  503  502  0.00000000000E+00  0.00000000000E+00  0.93388021077E+03  0.93388021077E+03  0.00000000000E+00 0. -1.
         21   -1    0    0  501  503 -0.00000000000E+00 -0.00000000000E+00 -0.43212610680E+02  0.43212610680E+02  0.00000000000E+00 0.  1.
          6    2    1    2  501    0 -0.53830576915E+02 -0.25259131323E+02  0.24349822763E+03  0.30455427939E+03  0.17299181342E+03 0.  0.
         24    2    3    3    0    0 -0.80768720149E+02 -0.26413379739E+02  0.24877096790E+03  0.27668157518E+03  0.86281207640E+02 0.  0.
         -6    2    1    2    0  502  0.53830576915E+02  0.25259131323E+02  0.64716937246E+03  0.67253854206E+03  0.17304374932E+03 0.  0.
        -24    2    5    5    0    0 -0.68141876598E+01 -0.14030522538E+02  0.51689034008E+03  0.52348760899E+03  0.81365621618E+02 0.  0.
          5    1    3    3  501    0  0.26938143234E+02  0.11542484155E+01 -0.52727402642E+01  0.27872704214E+02  0.47000000000E+01 0. -1.
        -13    1    4    4    0    0  0.18024756398E+02 -0.66372523301E+01  0.27413209959E+02  0.33472810488E+02  0.00000000000E+00 0.  1.
         14    1    4    4    0    0 -0.98793476547E+02 -0.19776127409E+02  0.22135775794E+03  0.24320876469E+03  0.00000000000E+00 0. -1.
         -5    1    5    5    0  502  0.60644764575E+02  0.39289653861E+02  0.13027903238E+03  0.14905093307E+03  0.47000000000E+01 0.  1.
         13    1    6    6    0    0  0.14823033736E+02 -0.41775932403E+02  0.35888095099E+03  0.36160819659E+03  0.00000000000E+00 0. -1.
        -14    1    6    6    0    0 -0.21637221396E+02  0.27745409865E+02  0.15800938909E+03  0.16187941240E+03  0.00000000000E+00 0.  1.
</event>
<event>
12    1  0.8113184E-002  0.2078138E+03  0.7818608E-02  0.1143332E+00
         21   -1    0    0  503  502  0.00000000000E+00  0.00000000000E+00  0.69638428826E+02  0.69638428826E+02  0.00000000000E+00 0.  1.
         21   -1    0    0  501  503 -0.00000000000E+00 -0.00000000000E+00 -0.78825264256E+03  0.78825264256E+03  0.00000000000E+00 0.  1.
          6    2    1    2  501    0  0.11536402176E+03  0.10235159168E+02 -0.16094632314E+03  0.26276077388E+03  0.17241197568E+03 0.  0.
         24    2    3    3    0    0  0.12880723746E+03  0.25535462749E+02 -0.64477278664E+02  0.16405319626E+03  0.74248013158E+02 0.  0.
         -6    2    1    2    0  502 -0.11536402176E+03 -0.10235159168E+02 -0.55766789059E+03  0.59513029750E+03  0.17254848250E+03 0.  0.
        -24    2    5    5    0    0 -0.10196318693E+03  0.35011070649E+02 -0.51019012060E+03  0.52802566033E+03  0.83035367487E+02 0.  0.
          5    1    3    3  501    0 -0.13443215705E+02 -0.15300303581E+02 -0.96469044478E+02  0.98707577625E+02  0.47000000000E+01 0. -1.
        -13    1    4    4    0    0  0.37779453330E+02 -0.25971974428E+02 -0.25323245269E+02  0.52374586400E+02  0.00000000000E+00 0.  1.
         14    1    4    4    0    0  0.91027784130E+02  0.51507437177E+02 -0.39154033395E+02  0.11167860986E+03  0.00000000000E+00 0. -1.
         -5    1    5    5    0  502 -0.13400834828E+02 -0.45246229816E+02 -0.47477769988E+02  0.67104637170E+02  0.47000000000E+01 0.  1.
         11    1    6    6    0    0 -0.39984496943E+02  0.56838311769E+02 -0.29201037242E+03  0.30016563974E+03  0.00000000000E+00 0. -1.
        -12    1    6    6    0    0 -0.61978689986E+02 -0.21827241120E+02 -0.21817974818E+03  0.22786002059E+03  0.00000000000E+00 0.  1.
</event>
<event>
12    1  0.8113184E-002  0.2065785E+03  0.7818608E-02  0.1144611E+00
         21   -1    0    0  503  502  0.00000000000E+00  0.00000000000E+00  0.90229355157E+03  0.90229355157E+03  0.00000000000E+00 0. -1.
         21   -1    0    0  501  503 -0.00000000000E+00 -0.00000000000E+00 -0.59059083798E+02  0.59059083798E+02  0.00000000000E+00 0.  1.
          6    2    1    2  501    0  0.62318274882E+02  0.93590354267E+02  0.20520341156E+03  0.29117539874E+03  0.17329729058E+03 0.  0.
         24    2    3    3    0    0  0.55742186858E+02  0.58004702416E+02  0.34287532792E+02  0.11640723469E+03  0.76832756595E+02 0.  0.
         -6    2    1    2    0  502 -0.62318274882E+02 -0.93590354267E+02  0.63803105621E+03  0.67017723662E+03  0.17149687460E+03 0.  0.
        -24    2    5    5    0    0 -0.84677032126E+02 -0.57488877520E+02  0.59758202164E+03  0.61134318996E+03  0.78492372335E+02 0.  0.
          5    1    3    3  501    0  0.65760880239E+01  0.35585651851E+02  0.17091587877E+03  0.17476816405E+03  0.47000000000E+01 0. -1.
        -11    1    4    4    0    0  0.30795859887E+02  0.73944456350E+02  0.33412495418E+02  0.86790336219E+02  0.00000000000E+00 0.  1.
         12    1    4    4    0    0  0.24946326971E+02 -0.15939753934E+02  0.87503737380E+00  0.29616898474E+02  0.00000000000E+00 0. -1.
         -5    1    5    5    0  502  0.22358757244E+02 -0.36101476746E+02  0.40449034570E+02  0.58834046661E+02  0.47000000000E+01 0.  1.
         11    1    6    6    0    0 -0.54997669303E+02 -0.39549491457E+01  0.15432622205E+03  0.16388095699E+03  0.00000000000E+00 0. -1.
        -12    1    6    6    0    0 -0.29679362823E+02 -0.53533928375E+02  0.44325579959E+03  0.44746223297E+03  0.00000000000E+00 0.  1.
</event>
<event>
12    1  0.8113184E-002  0.1882572E+03  0.7818608E-02  0.1162765E+00
         21   -1    0    0  501  502  0.00000000000E+00  0.00000000000E+00  0.29384753794E+03  0.29384753794E+03  0.00000000000E+00 0. -1.
         21   -1    0    0  502  503 -0.00000000000E+00 -0.00000000000E+00 -0.12822695603E+03  0.12822695603E+03  0.00000000000E+00 0.  1.
         -6    2    1    2    0  503  0.60170294906E+02  0.47239424165E+02  0.13232810539E+02  0.18872166555E+03  0.17201375582E+03 0.  0.
        -24    2    3    3    0    0  0.98620269133E+02  0.12726117054E+02 -0.28959072149E+01  0.13439124661E+03  0.90358781248E+02 0.  0.
          6    2    1    2  501    0 -0.60170294906E+02 -0.47239424165E+02  0.15238777137E+03  0.23335282842E+03  0.15930939107E+03 0.  0.
         24    2    5    5    0    0  0.16494181953E+02 -0.51051932816E+01  0.10886890474E+03  0.13553300846E+03  0.78858334535E+02 0.  0.
          5    1    5    5  501    0 -0.76664476858E+02 -0.42134230883E+02  0.43518866625E+02  0.97819819957E+02  0.47000000000E+01 0. -1.
        -11    1    6    6    0    0 -0.26834615088E+02 -0.20654441362E+01  0.12191538114E+02  0.29546509574E+02  0.00000000000E+00 0.  1.
         12    1    6    6    0    0  0.43328797041E+02 -0.30397491454E+01  0.96677366627E+02  0.10598649888E+03  0.00000000000E+00 0. -1.
         -5    1    3    3    0  503 -0.38449974228E+02  0.34513307111E+02  0.16128717754E+02  0.54330418940E+02  0.47000000000E+01 0.  1.
         13    1    4    4    0    0  0.35024683564E+02 -0.18955384580E+02  0.35744490159E+02  0.53513583697E+02  0.00000000000E+00 0. -1.
        -14    1    4    4    0    0  0.63595585569E+02  0.31681501634E+02 -0.38640397374E+02  0.80877662917E+02  0.00000000000E+00 0.  1.
</event>
<event>
12    1  0.8113184E-002  0.1947846E+03  0.7818608E-02  0.1154802E+00
         21   -1    0    0  503  502  0.00000000000E+00  0.00000000000E+00  0.10018020108E+04  0.10018020108E+04  0.00000000000E+00 0. -1.
         21   -1    0    0  501  503 -0.00000000000E+00 -0.00000000000E+00 -0.81613107896E+02  0.81613107896E+02  0.00000000000E+00 0.  1.
          6    2    1    2  501    0  0.85823538318E+02 -0.30798579505E+01  0.62639469698E+02  0.20460872133E+03  0.17483094814E+03 0.  0.
         24    2    3    3    0    0  0.56285459097E+02  0.49577838947E+02  0.84520338448E+02  0.14021777799E+03  0.83013990591E+02 0.  0.
         -6    2    1    2    0  502 -0.85823538318E+02  0.30798579505E+01  0.85754943325E+03  0.87880639741E+03  0.17185601067E+03 0.  0.
        -24    2    5    5    0    0 -0.43656402584E+01 -0.49977687568E+02  0.40364520001E+03  0.41458486059E+03  0.80214282205E+02 0.  0.
          5    1    3    3  501    0  0.29538079221E+02 -0.52657696897E+02 -0.21880868750E+02  0.64390943337E+02  0.47000000000E+01 0. -1.
        -13    1    4    4    0    0  0.15983199794E+02 -0.23408684695E+02  0.24783772614E+02  0.37651886803E+02  0.00000000000E+00 0.  1.
         14    1    4    4    0    0  0.40302259303E+02  0.72986523642E+02  0.59736565834E+02  0.10256589119E+03  0.00000000000E+00 0. -1.
         -5    1    5    5    0  502 -0.81457898060E+02  0.53057545518E+02  0.45390423324E+03  0.46422153682E+03  0.47000000000E+01 0.  1.
         13    1    6    6    0    0 -0.20438740386E+02 -0.18501136822E+02  0.34509527734E+03  0.34619472067E+03  0.00000000000E+00 0. -1.
        -14    1    6    6    0    0  0.16073100128E+02 -0.31476550745E+02  0.58549922668E+02  0.68390139925E+02  0.00000000000E+00 0.  1.
</event>
<event>
12    1  0.8113184E-002  0.2421494E+03  0.7818608E-02  0.1118486E+00
         21   -1    0    0  501  502  0.00000000000E+00  0.00000000000E+00  0.47061076592E+03  0.47061076592E+03  0.00000000000E+00 0.  1.
         21   -1    0    0  502  503 -0.00000000000E+00 -0.00000000000E+00 -0.20483969706E+03  0.20483969706E+03  0.00000000000E+00 0.  1.
         -6    2    1    2    0  503 -0.13868858479E+03 -0.97452715041E+02 -0.79090358697E+02  0.25406494569E+03  0.17193648993E+03 0.  0.
        -24    2    3    3    0    0 -0.20017794825E+02 -0.47878746285E+02 -0.19736710359E+02  0.11234239865E+03  0.97663659275E+02 0.  0.
          6    2    1    2  501    0  0.13868858479E+03  0.97452715041E+02  0.34486142756E+03  0.42138551728E+03  0.17293002845E+03 0.  0.
         24    2    5    5    0    0  0.12810287828E+03  0.10633849813E+03  0.18790030304E+03  0.26374701014E+03  0.80856279096E+02 0.  0.
          5    1    5    5  501    0  0.10585706506E+02 -0.88857830871E+01  0.15696112452E+03  0.15763850714E+03  0.47000000000E+01 0. -1.
        -13    1    6    6    0    0  0.60390872317E+02  0.84320749710E+02  0.15198114038E+03  0.18399813402E+03  0.00000000000E+00 0.  1.
         14    1    6    6    0    0  0.67712005965E+02  0.22017748418E+02  0.35919162658E+02  0.79748876125E+02  0.00000000000E+00 0. -1.
         -5    1    3    3    0  503 -0.11867078996E+03 -0.49573968757E+02 -0.59353648338E+02  0.14172254704E+03  0.47000000000E+01 0.  1.
         11    1    4    4    0    0 -0.64177956750E+01  0.29648126461E+02 -0.14038428100E+02  0.33425693223E+02  0.00000000000E+00 0. -1.
        -12    1    4    4    0    0 -0.13599999150E+02 -0.77526872745E+02 -0.56982822594E+01  0.78916705426E+02  0.00000000000E+00 0.  1.
</event>
<event>
12    1  0.8113184E-002  0.1895273E+03  0.7818608E-02  0.1159008E+00
         21   -1    0    0  501  502  0.00000000000E+00  0.00000000000E+00  0.11215267550E+03  0.11215267550E+03  0.00000000000E+00 0.  1.
         21   -1    0    0  502  503 -0.00000000000E+00 -0.00000000000E+00 -0.12207881371E+04  0.12207881371E+04  0.00000000000E+00 0. -1.
         -6    2    1    2    0  503  0.47748199615E+02 -0.64278540899E+02 -0.11272090509E+04  0.11430314346E+04  0.17178182239E+03 0.  0.
        -24    2    3    3    0    0  0.35179878190E+02 -0.10905087355E+03 -0.75954004094E+03  0.77240343321E+03  0.81094222959E+02 0.  0.
          6    2    1    2  501    0 -0.47748199615E+02  0.64278540899E+02  0.18573589285E+02  0.18990937809E+03  0.17119863399E+03 0.  0.
         24    2    5    5    0    0  0.10812127617E+02 -0.19267107767E+02  0.29329514391E+02  0.87210949368E+02  0.79103765587E+02 0.  0.
          5    1    5    5  501    0 -0.58560327231E+02  0.83545648666E+02 -0.10755925107E+02  0.10269842872E+03  0.47000000000E+01 0. -1.
        -11    1    6    6    0    0 -0.32976672790E+02 -0.53350699169E+01  0.23605531648E+02  0.40904095684E+02  0.00000000000E+00 0.  1.
         12    1    6    6    0    0  0.43788800407E+02 -0.13932037850E+02  0.57239827433E+01  0.46306853685E+02  0.00000000000E+00 0. -1.
         -5    1    3    3    0  503  0.12568321425E+02  0.44772332651E+02 -0.36766900999E+03  0.37062800135E+03  0.47000000000E+01 0.  1.
         13    1    4    4    0    0 -0.19513888245E+02 -0.11952726342E+02 -0.23755136026E+03  0.23865101773E+03  0.00000000000E+00 0. -1.
        -14    1    4    4    0    0  0.54693766435E+02 -0.97098147208E+02 -0.52198868068E+03  0.53375241549E+03  0.00000000000E+00 0.  1.
</event>
<event>
12    1  0.8113184E-002  0.2477017E+03  0.7818608E-02  0.1114922E+00
         21   -1    0    0  503  502  0.00000000000E+00  0.00000000000E+00  0.38510593456E+02  0.38510593456E+02  0.00000000000E+00 0.  1.
         21   -1    0    0  501  503 -0.00000000000E+00 -0.00000000000E+00 -0.21169934735E+04  0.21169934735E+04  0.00000000000E+00 0.  1.
          6    2    1    2  501    0 -0.12586437172E+03  0.12646075029E+03 -0.15769767134E+04  0.15961610833E+04  0.17041269768E+03 0.  0.
         24    2    3    3    0    0 -0.14306302209E+03  0.74693231923E+02 -0.95941711225E+03  0.97617913145E+03  0.79989963299E+02 0.  0.
         -6    2    1    2    0  502  0.12586437172E+03 -0.12646075029E+03 -0.50150616659E+03  0.55934298369E+03  0.17181960553E+03 0.  0.
        -24    2    5    5    0    0  0.15224259369E+03 -0.88577047269E+02 -0.33961394309E+03  0.39093227269E+03  0.80415861959E+02 0.  0.
          5    1    3    3  501    0  0.17198650373E+02  0.51767518367E+02 -0.61755960119E+03  0.61998195180E+03  0.47000000000E+01 0. -1.
        -11    1    4    4    0    0 -0.92876813523E+02  0.50508398473E+02 -0.80708103006E+03  0.81397603766E+03  0.00000000000E+00 0.  1.
         12    1    4    4    0    0 -0.50186208565E+02  0.24184833450E+02 -0.15233608219E+03  0.16220309379E+03  0.00000000000E+00 0. -1.
         -5    1    5    5    0  502 -0.26378221972E+02 -0.37883703021E+02 -0.16189222350E+03  0.16841071100E+03  0.47000000000E+01 0.  1.
         11    1    6    6    0    0  0.37143722642E+01  0.12009800310E+02 -0.37782426767E+02  0.39818885434E+02  0.00000000000E+00 0. -1.
        -12    1    6    6    0    0  0.14852822142E+03 -0.10058684758E+03 -0.30183151632E+03  0.35111338725E+03  0.00000000000E+00 0.  1.
</event>
<event>
12    1  0.8113184E-002  0.2091978E+03  0.7818608E-02  0.1142221E+00
         21   -1    0    0  503  502  0.00000000000E+00  0.00000000000E+00  0.88190053755E+03  0.88190053755E+03  0.00000000000E+00 0.  1.
         21   -1    0    0  501  503 -0.00000000000E+00 -0.00000000000E+00 -0.16022051910E+03  0.16022051910E+03  0.00000000000E+00 0.  1.
          6    2    1    2  501    0 -0.98848089909E+02  0.64181060736E+02 -0.72089926487E+02  0.22127058135E+03  0.17283969229E+03 0.  0.
         24    2    3    3    0    0 -0.12545468486E+03  0.13814520405E+02 -0.77205117446E+02  0.16388631122E+03  0.70486693189E+02 0.  0.
         -6    2    1    2    0  502  0.98848089909E+02 -0.64181060736E+02  0.79376994494E+03  0.82085047531E+03  0.17272702128E+03 0.  0.
        -24    2    5    5    0    0  0.68497106786E+02 -0.68993547492E+02  0.77380040073E+03  0.78390166069E+03  0.79264053849E+02 0.  0.
          5    1    3    3  501    0  0.26606594951E+02  0.50366540332E+02  0.51151909591E+01  0.57384270130E+02  0.47000000000E+01 0. -1.
        -13    1    4    4    0    0 -0.35292746611E+02  0.32682697446E+02 -0.46196117584E+02  0.66691963200E+02  0.00000000000E+00 0.  1.
         14    1    4    4    0    0 -0.90161938248E+02 -0.18868177042E+02 -0.31008999862E+02  0.97194348015E+02  0.00000000000E+00 0. -1.
         -5    1    5    5    0  502  0.30350983122E+02  0.48124867558E+01  0.19969544213E+02  0.36948814613E+02  0.47000000000E+01 0.  1.
         13    1    6    6    0    0  0.26624950387E+02 -0.68169264541E+02  0.32433369281E+03  0.33248801618E+03  0.00000000000E+00 0. -1.
        -14    1    6    6    0    0  0.41872156399E+02 -0.82428295132E+00  0.44946670792E+03  0.45141364452E+03  0.00000000000E+00 0.  1.
</event>
<event>
12    1  0.8113184E-002  0.1829495E+03  0.7818608E-02  0.1165115E+00
         21   -1    0    0  501  502  0.00000000000E+00  0.00000000000E+00  0.12124070641E+03  0.12124070641E+03  0.00000000000E+00 0. -1.
         21   -1    0    0  502  503 -0.00000000000E+00 -0.00000000000E+00 -0.27568068245E+03  0.27568068245E+03  0.00000000000E+00 0. -1.
         -6    2    1    2    0  503  0.32171859116E+01 -0.60057849241E+02 -0.85614124759E+02  0.20199083499E+03  0.17278085404E+03 0.  0.
        -24    2    3    3    0    0 -0.70784914079E+01 -0.97589028665E+02 -0.98551417948E+02  0.16071064658E+03  0.80881434132E+02 0.  0.
          6    2    1    2  501    0 -0.32171859116E+01  0.60057849241E+02 -0.68825851280E+02  0.19493055386E+03  0.17217324846E+03 0.  0.
         24    2    5    5    0    0  0.43805075507E+02 -0.23708060133E+01 -0.71708247065E+02  0.11657987888E+03  0.80773077817E+02 0.  0.
          5    1    5    5  501    0 -0.47022261419E+02  0.62428655254E+02  0.28823957855E+01  0.78350674989E+02  0.47000000000E+01 0. -1.
        -11    1    6    6    0    0 -0.64086877999E+01  0.25438931447E+01 -0.65366521849E+02  0.65729178074E+02  0.00000000000E+00 0.  1.
         12    1    6    6    0    0  0.50213763307E+02 -0.49146991580E+01 -0.63417252160E+01  0.50850700801E+02  0.00000000000E+00 0. -1.
         -5    1    3    3    0  503  0.10295677320E+02  0.37531179424E+02  0.12937293190E+02  0.41280188414E+02  0.47000000000E+01 0.  1.
         11    1    4    4    0    0 -0.14783886307E+02 -0.91559522488E+02 -0.39419969346E+02  0.10077521241E+03  0.00000000000E+00 0. -1.
        -12    1    4    4    0    0  0.77053948991E+01 -0.60295061771E+01 -0.59131448602E+02  0.59935434170E+02  0.00000000000E+00 0.  1.
</event>
<event>
12    1  0.8113184E-002  0.2560962E+03  0.7818608E-02  0.1110113E+00
         21   -1    0    0  501  502  0.00000000000E+00  0.00000000000E+00  0.46514642522E+03  0.46514642522E+03  0.00000000000E+00 0.  1.
         21   -1    0    0  502  503 -0.00000000000E+00 -0.00000000000E+00 -0.15994539024E+03  0.15994539024E+03  0.00000000000E+00 0.  1.
         -6    2    1    2    0  503 -0.13637713739E+03  0.12548034411E+03  0.40148192775E+02  0.25922409758E+03  0.17675184587E+03 0.  0.
        -24    2    3    3    0    0 -0.12866305742E+03  0.11772292644E+03  0.87357887145E+02  0.21053601072E+03  0.79253653611E+02 0.  0.
          6    2    1    2  501    0  0.13637713739E+03 -0.12548034411E+03  0.26505284221E+03  0.36586771789E+03  0.17106179429E+03 0.  0.
         24    2    5    5    0    0  0.10020096202E+03 -0.72523147623E+02  0.73525268545E+02  0.16383286496E+03  0.78328812033E+02 0.  0.
          5    1    5    5  501    0  0.36176175373E+02 -0.52957196489E+02  0.19152757366E+03  0.20203485293E+03  0.47000000000E+01 0. -1.
        -11    1    6    6    0    0  0.26612213623E+02 -0.51739919041E+02  0.64452124182E+02  0.86829173944E+02  0.00000000000E+00 0.  1.
         12    1    6    6    0    0  0.73588748397E+02 -0.20783228582E+02  0.90731443631E+01  0.77003691013E+02  0.00000000000E+00 0. -1.
         -5    1    3    3    0  503 -0.77140799704E+01  0.77574176736E+01 -0.47209694370E+02  0.48688086851E+02  0.47000000000E+01 0.  1.
         11    1    4    4    0    0 -0.25078393492E+02  0.69790922437E+01 -0.12596220092E+02  0.28918822751E+02  0.00000000000E+00 0. -1.
        -12    1    4    4    0    0 -0.10358466393E+03  0.11074383419E+03  0.99954107237E+02  0.18161718797E+03  0.00000000000E+00 0.  1.
</event>
<event>
12    1  0.8113184E-002  0.1945712E+03  0.7818608E-02  0.1154545E+00
         21   -1    0    0  503  502  0.00000000000E+00  0.00000000000E+00  0.75016906132E+03  0.75016906132E+03  0.00000000000E+00 0. -1.
         21   -1    0    0  501  503 -0.00000000000E+00 -0.00000000000E+00 -0.64847718431E+02  0.64847718431E+02  0.00000000000E+00 0. -1.
          6    2    1    2  501    0 -0.90958614091E+00 -0.91406591935E+02  0.15007304832E+03  0.24572316389E+03  0.17176134910E+03 0.  0.
         24    2    3    3    0    0  0.45525655187E+02 -0.46418697839E+02  0.40961417168E+02  0.11880752142E+03  0.90609649925E+02 0.  0.
         -6    2    1    2    0  502  0.90958614091E+00  0.91406591935E+02  0.53524829457E+03  0.56929361586E+03  0.17102190451E+03 0.  0.
        -24    2    5    5    0    0  0.28652684332E+02  0.11612452404E+03  0.31997257376E+03  0.35078416153E+03  0.79757122655E+02 0.  0.
          5    1    3    3  501    0 -0.46435241328E+02 -0.44987894096E+02  0.10911163115E+03  0.12691564248E+03  0.47000000000E+01 0. -1.
        -11    1    4    4    0    0  0.38851438560E+02 -0.23314455523E+02 -0.22755535590E+02  0.50703180517E+02  0.00000000000E+00 0.  1.
         12    1    4    4    0    0  0.66742166267E+01 -0.23104242316E+02  0.63716952758E+02  0.68104340900E+02  0.00000000000E+00 0. -1.
         -5    1    5    5    0  502 -0.27743098191E+02 -0.24717932101E+02  0.21527572081E+03  0.21850945434E+03  0.47000000000E+01 0.  1.
         11    1    6    6    0    0  0.10516058072E+01  0.92142883542E+02  0.28741461896E+03  0.30182541320E+03  0.00000000000E+00 0. -1.
        -12    1    6    6    0    0  0.27601078525E+02  0.23981640494E+02  0.32557954804E+02  0.48958748325E+02  0.00000000000E+00 0.  1.
</event>
<event>
12    1  0.8113184E-002  0.2118937E+03  0.7818608E-02  0.1140184E+00
         21   -1    0    0  501  502  0.00000000000E+00  0.00000000000E+00  0.25021342355E+03  0.25021342355E+03  0.00000000000E+00 0.  1.
         21   -1    0    0  502  503 -0.00000000000E+00 -0.00000000000E+00 -0.31268902700E+03  0.31268902700E+03  0.00000000000E+00 0. -1.
         -6    2    1    2    0  503 -0.85073377266E+02 -0.90413241761E+02 -0.21526531824E+03  0.30166763034E+03  0.17103265231E+03 0.  0.
        -24    2    3    3    0    0  0.12461510204E+02 -0.54331143685E+02 -0.14814362032E+03  0.17780325125E+03  0.80995688192E+02 0.  0.
          6    2    1    2  501    0  0.85073377266E+02  0.90413241761E+02  0.15278971479E+03  0.26123482021E+03  0.17171750213E+03 0.  0.
         24    2    5    5    0    0  0.55176210598E+02 -0.18281593250E+02  0.87512447208E+02  0.13088291422E+03  0.78059451382E+02 0.  0.
          5    1    5    5  501    0  0.29897166668E+02  0.10869483501E+03  0.65277267579E+02  0.13035190599E+03  0.47000000000E+01 0. -1.
        -13    1    6    6    0    0  0.45901783627E+02 -0.30585541140E+02  0.15576797209E+02  0.57315666953E+02  0.00000000000E+00 0.  1.
         14    1    6    6    0    0  0.92744269710E+01  0.12303947890E+02  0.71935649999E+02  0.73567247265E+02  0.00000000000E+00 0. -1.
         -5    1    3    3    0  503 -0.97534887469E+02 -0.36082098075E+02 -0.67121697919E+02  0.12386437909E+03  0.47000000000E+01 0.  1.
         11    1    4    4    0    0 -0.21458683308E+02 -0.37443403207E+02 -0.12760062842E+03  0.13470116520E+03  0.00000000000E+00 0. -1.
        -12    1    4    4    0    0  0.33920193511E+02 -0.16887740478E+02 -0.20542991898E+02  0.43102086057E+02  0.00000000000E+00 0.  1.
</event>
<event>
12    1  0.8113184E-002  0.2325917E+03  0.7818608E-02  0.1125056E+00
         21   -1    0    0  503  502  0.00000000000E+00  0.00000000000E+00  0.21945706592E+03  0.21945706592E+03  0.00000000000E+00 0. -1.
         21   -1    0    0  501  503 -0.00000000000E+00 -0.00000000000E+00 -0.25058291172E+03  0.25058291172E+03  0.00000000000E+00 0.  1.
          6    2    1    2  501    0 -0.98970871831E+02  0.12146493098E+03  0.19157728359E+02  0.23207498900E+03  0.17012589172E+03 0.  0.
         24    2    3    3    0    0 -0.58474052212E+02  0.13618167573E+03 -0.26226569280E+02  0.16931832045E+03  0.77564148388E+02 0.  0.
         -6    2    1    2    0  502  0.98970871831E+02 -0.12146493098E+03 -0.50283574162E+02  0.23796498864E+03  0.17190094548E+03 0.  0.
        -24    2    5    5    0    0  0.17559332507E+02 -0.14964973165E+02  0.23191106975E+02  0.85024809099E+02  0.78479998342E+02 0.  0.
          5    1    3    3  501    0 -0.40496819619E+02 -0.14716744753E+02  0.45384297640E+02  0.62756668551E+02  0.47000000000E+01 0. -1.
        -13    1    4    4    0    0  0.15981629553E+02  0.47959381513E+02  0.15724651629E+01  0.50576549951E+02  0.00000000000E+00 0.  1.
         14    1    4    4    0    0 -0.74455681764E+02  0.88222294218E+02 -0.27799034443E+02  0.11874177049E+03  0.00000000000E+00 0. -1.
         -5    1    5    5    0  502  0.81411539323E+02 -0.10649995781E+03 -0.73474681137E+02  0.15294017954E+03  0.47000000000E+01 0.  1.
         13    1    6    6    0    0  0.31286410252E+02  0.24583585256E+02  0.87429137706E+01  0.40738564920E+02  0.00000000000E+00 0. -1.
        -14    1    6    6    0    0 -0.13727077745E+02 -0.39548558421E+02  0.14448193204E+02  0.44286244179E+02  0.00000000000E+00 0.  1.
</event>
<event>
12    1  0.8113184E-002  0.1994418E+03  0.7818608E-02  0.1150479E+00
         21   -1    0    0  501  502  0.00000000000E+00  0.00000000000E+00  0.38535120438E+02  0.38535120438E+02  0.00000000000E+00 0. -1.
         21   -1    0    0  502  503 -0.00000000000E+00 -0.00000000000E+00 -0.10319840109E+04  0.10319840109E+04  0.00000000000E+00 0. -1.
         -6    2    1    2    0  503 -0.60732556523E+02 -0.79108264812E+02 -0.53688042338E+03  0.57229046066E+03  0.17125776294E+03 0.  0.
        -24    2    3    3    0    0 -0.77691204362E+02  0.18314140746E+01 -0.35779438011E+03  0.37497667947E+03  0.80940807944E+02 0.  0.
          6    2    1    2  501    0  0.60732556523E+02  0.79108264812E+02 -0.45656846710E+03  0.49822867070E+03  0.17271503169E+03 0.  0.
         24    2    5    5    0    0  0.90902473942E+02  0.93921210078E+02 -0.42683455021E+03  0.45310835290E+03  0.77685215744E+02 0.  0.
          5    1    5    5  501    0 -0.30169917419E+02 -0.14812945266E+02 -0.29733916889E+02  0.45120317796E+02  0.47000000000E+01 0. -1.
        -11    1    6    6    0    0 -0.34024020393E+00  0.69853633818E+01 -0.13553182357E+03  0.13571214487E+03  0.00000000000E+00 0.  1.
         12    1    6    6    0    0  0.91242714146E+02  0.86935846696E+02 -0.29130272665E+03  0.31739620804E+03  0.00000000000E+00 0. -1.
         -5    1    3    3    0  503  0.16958647839E+02 -0.80939678886E+02 -0.17908604327E+03  0.19731378119E+03  0.47000000000E+01 0.  1.
         13    1    4    4    0    0 -0.63329261812E+02 -0.86085764665E+01 -0.34964862051E+03  0.35544178259E+03  0.00000000000E+00 0. -1.
        -14    1    4    4    0    0 -0.14361942550E+02  0.10439990541E+02 -0.81457596061E+01  0.19534896874E+02  0.00000000000E+00 0.  1.
</event>
<event>
12    1  0.8113184E-002  0.1875643E+03  0.7818608E-02  0.1161857E+00
         21   -1    0    0  503  502  0.00000000000E+00  0.00000000000E+00  0.25671788705E+03  0.25671788705E+03  0.00000000000E+00 0. -1.
         21   -1    0    0  501  503 -0.00000000000E+00 -0.00000000000E+00 -0.17705296006E+03  0.17705296006E+03  0.00000000000E+00 0. -1.
          6    2    1    2  501    0 -0.58820348379E+02  0.85920805542E+01 -0.68315833018E+02  0.19485940699E+03  0.17253833840E+03 0.  0.
         24    2    3    3    0    0  0.24258075764E+02 -0.17218100788E+02 -0.23017556830E+01  0.85551866418E+02  0.80180462295E+02 0.  0.
         -6    2    1    2    0  502  0.58820348379E+02 -0.85920805542E+01  0.14798076001E+03  0.23891144012E+03  0.17789523224E+03 0.  0.
        -24    2    5    5    0    0  0.75611389348E+02 -0.55057138923E+02  0.60775254373E+02  0.13857285871E+03  0.82221863761E+02 0.  0.
          5    1    3    3  501    0 -0.83078424143E+02  0.25810181342E+02 -0.66014077335E+02  0.10930754057E+03  0.47000000000E+01 0. -1.
        -13    1    4    4    0    0 -0.70236724865E+01 -0.18453321903E+02 -0.35061459625E+02  0.40238824728E+02  0.00000000000E+00 0.  1.
         14    1    4    4    0    0  0.31281748251E+02  0.12352211149E+01  0.32759703942E+02  0.45313041690E+02  0.00000000000E+00 0. -1.
         -5    1    5    5    0  502 -0.16791040970E+02  0.46465058369E+02  0.87205505636E+02  0.10033858141E+03  0.47000000000E+01 0.  1.
         13    1    6    6    0    0  0.20928125773E+02 -0.65166873605E+02  0.27465606052E+02  0.73750033082E+02  0.00000000000E+00 0. -1.
        -14    1    6    6    0    0  0.54683263575E+02  0.10109734682E+02  0.33309648322E+02  0.64822825624E+02  0.00000000000E+00 0.  1.
</event>
<event>
12    1  0.8113184E-002  0.1741126E+03  0.7818608E-02  0.1173936E+00
         21   -1    0    0  503  502  0.00000000000E+00  0.00000000000E+00  0.32803649600E+03  0.32803649600E+03  0.00000000000E+00 0. -1.
         21   -1    0    0  501  503 -0.00000000000E+00 -0.00000000000E+00 -0.13233182309E+03  0.13233182309E+03  0.00000000000E+00 0. -1.
          6    2    1    2  501    0 -0.20048933199E+02 -0.81999043864E+01 -0.29353668922E+02  0.17656967811E+03  0.17275999303E+03 0.  0.
         24    2    3    3    0    0  0.21659367221E+02 -0.63260632472E+01 -0.75615715056E+02  0.11407679437E+03  0.82381013509E+02 0.  0.
         -6    2    1    2    0  502  0.20048933199E+02  0.81999043864E+01  0.22505834184E+03  0.28379864099E+03  0.17152612991E+03 0.  0.
        -24    2    5    5    0    0 -0.17715025102E+02  0.40881116403E+02  0.21491423734E+03  0.23262080378E+03  0.77066342500E+02 0.  0.
          5    1    3    3  501    0 -0.41708300420E+02 -0.18738411392E+01  0.46262046134E+02  0.62492883731E+02  0.47000000000E+01 0. -1.
        -11    1    4    4    0    0 -0.31737690937E+02 -0.10033838458E+01 -0.28192601850E+02  0.42463049869E+02  0.00000000000E+00 0.  1.
         12    1    4    4    0    0  0.53397058158E+02 -0.53226794014E+01 -0.47423113206E+02  0.71613744506E+02  0.00000000000E+00 0. -1.
         -5    1    5    5    0  502  0.37763958301E+02 -0.32681212017E+02  0.10144104498E+02  0.51177837210E+02  0.47000000000E+01 0.  1.
         11    1    6    6    0    0 -0.23616318591E+02 -0.10426917355E+02  0.25479460967E+02  0.36271945640E+02  0.00000000000E+00 0. -1.
        -12    1    6    6    0    0  0.59012934890E+01  0.51308033758E+02  0.18943477637E+03  0.19634885814E+03  0.00000000000E+00 0.  1.
</event>
<event>
12    1  0.8113184E-002  0.1957050E+03  0.7818608E-02  0.1153972E+00
         21   -1    0    0  503  502  0.00000000000E+00  0.00000000000E+00  0.52492137644E+03  0.52492137644E+03  0.00000000000E+00 0. -1.
         21   -1    0    0  501  503 -0.00000000000E+00 -0.00000000000E+00 -0.19591097560E+03  0.19591097560E+03  0.00000000000E+00 0. -1.
          6    2    1    2  501    0 -0.83268949489E+02 -0.34514276946E+02 -0.12171333936E+03  0.23046599790E+03  0.17371092640E+03 0.  0.
         24    2    3    3    0    0 -0.40047456825E+02  0.36980320622E+02 -0.11846584899E+03  0.14672705175E+03  0.67255686950E+02 0.  0.
         -6    2    1    2    0  502  0.83268949489E+02  0.34514276946E+02  0.45072374020E+03  0.49036635413E+03  0.17082832911E+03 0.  0.
        -24    2    5    5    0    0  0.15786931354E+02  0.66619018668E+02  0.34600064244E+03  0.36162803654E+03  0.79818991433E+02 0.  0.
          5    1    3    3  501    0 -0.43221492664E+02 -0.71494597569E+02 -0.32474903758E+01  0.83738946156E+02  0.47000000000E+01 0. -1.
        -11    1    4    4    0    0 -0.94037432921E+01  0.51504673576E+02 -0.77811125022E+02  0.93785569068E+02  0.00000000000E+00 0.  1.
         12    1    4    4    0    0 -0.30643713533E+02 -0.14524352954E+02 -0.40654723963E+02  0.52941482680E+02  0.00000000000E+00 0. -1.
         -5    1    5    5    0  502  0.67482018135E+02 -0.32104741722E+02  0.10472309776E+03  0.12873831759E+03  0.47000000000E+01 0.  1.
         11    1    6    6    0    0  0.37481265246E+01 -0.82202062516E+01  0.16693397160E+03  0.16717826150E+03  0.00000000000E+00 0. -1.
        -12    1    6    6    0    0  0.12038804830E+02  0.74839224920E+02  0.17906667083E+03  0.19444977504E+03  0.00000000000E+00 0.  1.
</event>
<event>
12    1  0.8113184E-002  0.1784995E+03  0.7818608E-02  0.1170792E+00
         21   -1    0    0  503  502  0.00000000000E+00  0.00000000000E+00  0.18628000302E+03  0.18628000302E+03  0.00000000000E+00 0.  1.
         21   -1    0    0  501  503 -0.00000000000E+00 -0.00000000000E+00 -0.20737718164E+03  0.20737718164E+03  0.00000000000E+00 0.  1.
          6    2    1    2  501    0 -0.41486788288E+02  0.15571493088E+02  0.78040350487E+02  0.19481371086E+03  0.17291171341E+03 0.  0.
         24    2    3    3    0    0  0.39772526634E+02  0.25740500896E+01  0.66879635990E+02  0.11163522004E+03  0.80006606197E+02 0.  0.
         -6    2    1    2    0  502  0.41486788288E+02 -0.15571493088E+02 -0.99137529108E+02  0.19884347380E+03  0.16657386468E+03 0.  0.
        -24    2    5    5    0    0 -0.39474064852E+02  0.11408802816E+01 -0.58835974692E+02  0.10675510074E+03  0.79846579209E+02 0.  0.
          5    1    3    3  501    0 -0.81259314922E+02  0.12997442999E+02  0.11160714497E+02  0.83178490814E+02  0.47000000000E+01 0. -1.
        -13    1    4    4    0    0  0.50994632727E+02 -0.19275545769E+02  0.67868332440E+02  0.87052339313E+02  0.00000000000E+00 0.  1.
         14    1    4    4    0    0 -0.11222106093E+02  0.21849595858E+02 -0.98869645026E+00  0.24582880730E+02  0.00000000000E+00 0. -1.
         -5    1    5    5    0  502  0.80960853140E+02 -0.16712373370E+02 -0.40301554416E+02  0.92088373062E+02  0.47000000000E+01 0.  1.
         13    1    6    6    0    0 -0.12940913930E+02 -0.22817806765E+02  0.10886817859E+02  0.28401449998E+02  0.00000000000E+00 0. -1.
        -14    1    6    6    0    0 -0.26533150923E+02  0.23958687047E+02 -0.69722792551E+02  0.78353650738E+02  0.00000000000E+00 0.  1.
</event>
<event>
12    1  0.8113184E-002  0.1735990E+03  0.7818608E-02  0.1178849E+00
         21   -1    0    0  503  502  0.00000000000E+00  0.00000000000E+00  0.18318598126E+04  0.18318598126E+04  0.00000000000E+00 0. -1.
         21   -1    0    0  501  503 -0.00000000000E+00 -0.00000000000E+00 -0.18184923073E+02  0.18184923073E+02  0.00000000000E+00 0. -1.
          6    2    1    2  501    0  0.62203283173E+01  0.23669162762E+02  0.54946523611E+03  0.57623662834E+03  0.17186530888E+03 0.  0.
         24    2    3    3    0    0  0.46204506386E+02  0.21708387811E+02  0.51373068187E+03  0.52236987142E+03  0.79655248174E+02 0.  0.
         -6    2    1    2    0  502 -0.62203283173E+01 -0.23669162762E+02  0.12642096534E+04  0.12738081073E+04  0.15414968299E+03 0.  0.
        -24    2    5    5    0    0 -0.77694742868E+01  0.35376145429E+02  0.95883916765E+03  0.96274224316E+03  0.78665373325E+02 0.  0.
          5    1    3    3  501    0 -0.39984178069E+02  0.19607749509E+01  0.35734554240E+02  0.53866756919E+02  0.47000000000E+01 0. -1.
        -11    1    4    4    0    0  0.40099924195E+02  0.45460261143E+02  0.45032725687E+03  0.45438890561E+03  0.00000000000E+00 0.  1.
         12    1    4    4    0    0  0.61045821910E+01 -0.23751873332E+02  0.63403425004E+02  0.67980965812E+02  0.00000000000E+00 0. -1.
         -5    1    5    5    0  502  0.15491459695E+01 -0.59045308191E+02  0.30537048574E+03  0.31106586414E+03  0.47000000000E+01 0.  1.
         11    1    6    6    0    0 -0.16312205623E+02 -0.22025682577E+02  0.38562117528E+03  0.38659398543E+03  0.00000000000E+00 0. -1.
        -12    1    6    6    0    0  0.85427313360E+01  0.57401828006E+02  0.57321799236E+03  0.57614825773E+03  0.00000000000E+00 0.  1.
</event>
<event>
12    1  0.8113184E-002  0.1898524E+03  0.7818608E-02  0.1158854E+00
         21   -1    0    0  503  502  0.00000000000E+00  0.00000000000E+00  0.74547165639E+02  0.74547165639E+02  0.00000000000E+00 0.  1.
         21   -1    0    0  501  503 -0.00000000000E+00 -0.00000000000E+00 -0.69527776302E+03  0.69527776302E+03  0.00000000000E+00 0.  1.
          6    2    1    2  501    0  0.80522605377E+02 -0.15161448536E+01 -0.52360324569E+03  0.55657005291E+03  0.17065660323E+03 0.  0.
         24    2    3    3    0    0  0.38529190180E+00  0.44854811446E+02 -0.20276388094E+03  0.22260561982E+03  0.80174609447E+02 0.  0.
         -6    2    1    2    0  502 -0.80522605377E+02  0.15161448536E+01 -0.97127351694E+02  0.21325487575E+03  0.17192361941E+03 0.  0.
        -24    2    5    5    0    0 -0.92879295543E+02  0.54421993136E+02 -0.86204716708E+02  0.15763913581E+03  0.76357888122E+02 0.  0.
          5    1    3    3  501    0  0.80137313475E+02 -0.46370956300E+02 -0.32083936474E+03  0.33396443309E+03  0.47000000000E+01 0. -1.
        -13    1    4    4    0    0  0.14902701790E+02  0.42388794393E+02 -0.20296484677E+03  0.20787888164E+03  0.00000000000E+00 0.  1.
         14    1    4    4    0    0 -0.14517409888E+02  0.24660170525E+01  0.20096582442E+00  0.14726738173E+02  0.00000000000E+00 0. -1.
         -5    1    5    5    0  502  0.12356690166E+02 -0.52905848282E+02 -0.10922634986E+02  0.55615739942E+02  0.47000000000E+01 0.  1.
         13    1    6    6    0    0 -0.90014522160E+02  0.13786946346E+02 -0.55708509456E+02  0.10675266795E+03  0.00000000000E+00 0. -1.
        -14    1    6    6    0    0 -0.28647733832E+01  0.40635046790E+02 -0.30496207251E+02  0.50886467856E+02  0.00000000000E+00 0.  1.
</event>
<event>
12    1  0.8113184E-002  0.3258279E+03  0.7818608E-02  0.1073347E+00
         21   -1    0    0  503  502  0.00000000000E+00  0.00000000000E+00  0.12450317502E+03  0.12450317502E+03  0.00000000000E+00 0.  1.
         21   -1    0    0  501  503 -0.00000000000E+00 -0.00000000000E+00 -0.96337234592E+03  0.96337234592E+03  0.00000000000E+00 0. -1.
          6    2    1    2  501    0 -0.16501040787E+03  0.22221375419E+03 -0.61215676207E+03  0.69346935428E+03  0.17191991366E+03 0.  0.
         24    2    3    3    0    0 -0.15090905568E+03  0.20901416587E+03 -0.61743752444E+03  0.67290108463E+03  0.71458438928E+02 0.  0.
         -6    2    1    2    0  502  0.16501040787E+03 -0.22221375419E+03 -0.22671240883E+03  0.39440616666E+03  0.16598289286E+03 0.  0.
        -24    2    5    5    0    0  0.81994850935E+02 -0.11658154547E+03 -0.19755729357E+03  0.25684942579E+03  0.81414562342E+02 0.  0.
          5    1    3    3  501    0 -0.14101352186E+02  0.13199588312E+02  0.52807623619E+01  0.20568269645E+02  0.47000000000E+01 0. -1.
        -11    1    4    4    0    0 -0.69999769170E+01  0.51359704719E+02 -0.15827076723E+03  0.16654265131E+03  0.00000000000E+00 0.  1.
         12    1    4    4    0    0 -0.14390907877E+03  0.15765446116E+03 -0.45916675720E+03  0.50635843332E+03  0.00000000000E+00 0. -1.
         -5    1    5    5    0  502  0.83015556935E+02 -0.10563220872E+03 -0.29155115255E+02  0.13755674086E+03  0.47000000000E+01 0.  1.
         11    1    6    6    0    0  0.45675079972E+02 -0.47774088239E+01 -0.66218988227E+02  0.80585302428E+02  0.00000000000E+00 0. -1.
        -12    1    6    6    0    0  0.36319770963E+02 -0.11180413665E+03 -0.13133830535E+03  0.17626412337E+03  0.00000000000E+00 0.  1.
</event>
<event>
12    1  0.8113184E-002  0.1747064E+03  0.7818608E-02  0.1173057E+00
         21   -1    0    0  503  502  0.00000000000E+00  0.00000000000E+00  0.37854742407E+02  0.37854742407E+02  0.00000000000E+00 0.  1.
         21   -1    0    0  501  503 -0.00000000000E+00 -0.00000000000E+00 -0.86379949870E+03  0.86379949870E+03  0.00000000000E+00 0.  1.
          6    2    1    2  501    0 -0.19244834857E+02 -0.25267973925E+02 -0.52970748412E+03  0.55773732716E+03  0.17167432306E+03 0.  0.
         24    2    3    3    0    0 -0.33090221569E+01  0.12392965065E+02 -0.50094541771E+03  0.50752136440E+03  0.80418210516E+02 0.  0.
         -6    2    1    2    0  502  0.19244834857E+02  0.25267973925E+02 -0.29623727217E+03  0.34391691395E+03  0.17179490126E+03 0.  0.
        -24    2    5    5    0    0  0.64358041352E+02  0.65078822235E+01 -0.10906888481E+03  0.15041952981E+03  0.80905520802E+02 0.  0.
          5    1    3    3  501    0 -0.15935812700E+02 -0.37660938991E+02 -0.28762066407E+02  0.50215962762E+02  0.47000000000E+01 0. -1.
        -11    1    4    4    0    0  0.45618519601E+01 -0.24313252636E+02 -0.58888840911E+02  0.63873627820E+02  0.00000000000E+00 0.  1.
         12    1    4    4    0    0 -0.78708741170E+01  0.36706217702E+02 -0.44205657680E+03  0.44364773658E+03  0.00000000000E+00 0. -1.
         -5    1    5    5    0  502 -0.45113206494E+02  0.18760091702E+02 -0.18716838736E+03  0.19349738414E+03  0.47000000000E+01 0.  1.
         13    1    6    6    0    0  0.16681020305E+02 -0.33160837213E+02 -0.63140666474E+02  0.73243711852E+02  0.00000000000E+00 0. -1.
        -14    1    6    6    0    0  0.47677021047E+02  0.39668719436E+02 -0.45928218336E+02  0.77175817955E+02  0.00000000000E+00 0.  1.
</event>
<event>
12    1  0.8113184E-002  0.2037155E+03  0.7818608E-02  0.1147323E+00
         21   -1    0    0  501  502  0.00000000000E+00  0.00000000000E+00  0.83992876873E+03  0.83992876873E+03  0.00000000000E+00 0. -1.
         21   -1    0    0  502  503 -0.00000000000E+00 -0.00000000000E+00 -0.69168835092E+02  0.69168835092E+02  0.00000000000E+00 0. -1.
         -6    2    1    2    0  503 -0.37451133450E+02  0.98241425397E+02  0.13540965102E+03  0.24188701179E+03  0.17064462435E+03 0.  0.
        -24    2    3    3    0    0  0.10870020582E+02 -0.11826714074E+02  0.55873195560E+02  0.97671662390E+02  0.78485101380E+02 0.  0.
          6    2    1    2  501    0  0.37451133450E+02 -0.98241425397E+02  0.63535028261E+03  0.66721059204E+03  0.17448790057E+03 0.  0.
         24    2    5    5    0    0 -0.35410558100E+02 -0.24936716348E+02  0.39646017394E+03  0.40687814979E+03  0.80581708888E+02 0.  0.
          5    1    5    5  501    0  0.72861691550E+02 -0.73304709049E+02  0.23889010867E+03  0.26033244225E+03  0.47000000000E+01 0. -1.
        -13    1    6    6    0    0 -0.46927080471E+02 -0.78067830540E+01  0.11218682083E+03  0.12185638888E+03  0.00000000000E+00 0.  1.
         14    1    6    6    0    0  0.11516522371E+02 -0.17129933295E+02  0.28427335311E+03  0.28502176091E+03  0.00000000000E+00 0. -1.
         -5    1    3    3    0  503 -0.48321154032E+02  0.11006813947E+03  0.79536455464E+02  0.14421534940E+03  0.47000000000E+01 0.  1.
         13    1    4    4    0    0 -0.33241180700E+02 -0.15155410932E+01  0.14414359460E+02  0.36263572877E+02  0.00000000000E+00 0. -1.
        -14    1    4    4    0    0  0.44111201283E+02 -0.10311172981E+02  0.41458836100E+02  0.61408089513E+02  0.00000000000E+00 0.  1.
</event>
<event>
12    1  0.8113184E-002  0.1808874E+03  0.7818608E-02  0.1167356E+00
         21   -1    0    0  503  502  0.00000000000E+00  0.00000000000E+00  0.50055951549E+02  0.50055951549E+02  0.00000000000E+00 0.  1.
         21   -1    0    0  501  503 -0.00000000000E+00 -0.00000000000E+00 -0.65025107823E+03  0.65025107823E+03  0.00000000000E+00 0.  1.
          6    2    1    2  501    0 -0.41514874051E+02 -0.37252549248E+02 -0.32119049241E+03  0.36779562133E+03  0.17029107275E+03 0.  0.
         24    2    3    3    0    0 -0.75155461910E+02  0.20072067382E+02 -0.20797062250E+03  0.23642351712E+03  0.81197711030E+02 0.  0.
         -6    2    1    2    0  502  0.41514874051E+02  0.37252549248E+02 -0.27900463427E+03  0.33251140845E+03  0.17207269863E+03 0.  0.
        -24    2    5    5    0    0  0.58790700565E+02  0.59338104705E+02 -0.10534344831E+03  0.15653833253E+03  0.80185100273E+02 0.  0.
          5    1    3    3  501    0  0.33640587859E+02 -0.57324616629E+02 -0.11321986991E+03  0.13137210421E+03  0.47000000000E+01 0. -1.
        -13    1    4    4    0    0 -0.48829509878E+02 -0.23433121826E+02 -0.64590908960E+02  0.84293640055E+02  0.00000000000E+00 0.  1.
         14    1    4    4    0    0 -0.26325952032E+02  0.43505189208E+02 -0.14337971354E+03  0.15212987706E+03  0.00000000000E+00 0. -1.
         -5    1    5    5    0  502 -0.17275826514E+02 -0.22085555458E+02 -0.17366118596E+03  0.17597307592E+03  0.47000000000E+01 0.  1.
         13    1    6    6    0    0  0.11717460469E+02 -0.58436674067E+01 -0.65517065078E+02  0.66812672039E+02  0.00000000000E+00 0. -1.
        -14    1    6    6    0    0  0.47073240096E+02  0.65181772112E+02 -0.39826383234E+02  0.89725660490E+02  0.00000000000E+00 0.  1.
</event>
<event>
12    1  0.8113184E-002  0.1741459E+03  0.7818608E-02  0.1173637E+00
         21   -1    0    0  501  502  0.00000000000E+00  0.00000000000E+00  0.22350344959E+04  0.22350344959E+04  0.00000000000E+00 0. -1.
         21   -1    0    0  502  503 -0.00000000000E+00 -0.00000000000E+00 -0.13730267540E+02  0.13730267540E+02  0.00000000000E+00 0. -1.
         -6    2    1    2    0  503  0.32300712133E+02  0.13067457729E+01  0.98308463442E+03  0.99835900430E+03  0.17093934436E+03 0.  0.
        -24    2    3    3    0    0 -0.68876878113E+01 -0.59485786411E+02  0.61195124463E+03  0.62021413038E+03  0.81211099531E+02 0.  0.
          6    2    1    2  501    0 -0.32300712133E+02 -0.13067457729E+01  0.12382195940E+04  0.12504057592E+04  0.17111912832E+03 0.  0.
         24    2    5    5    0    0  0.40347154866E+02  0.22461952283E+02  0.51978258807E+03  0.52789867613E+03  0.79816296556E+02 0.  0.
          5    1    5    5  501    0 -0.72647866999E+02 -0.23768698056E+02  0.71843700590E+03  0.72250708304E+03  0.47000000000E+01 0. -1.
        -11    1    6    6    0    0  0.14947463107E+02 -0.24280077059E+02  0.31611383152E+03  0.31739707508E+03  0.00000000000E+00 0.  1.
         12    1    6    6    0    0  0.25399691759E+02  0.46742029342E+02  0.20366875655E+03  0.21050160105E+03  0.00000000000E+00 0. -1.
         -5    1    3    3    0  503  0.39188399944E+02  0.60792532184E+02  0.37113338978E+03  0.37814487392E+03  0.47000000000E+01 0.  1.
         13    1    4    4    0    0  0.24572960566E+02 -0.87300986358E+01  0.37313919183E+03  0.37404933029E+03  0.00000000000E+00 0. -1.
        -14    1    4    4    0    0 -0.31460648378E+02 -0.50755687775E+02  0.23881205280E+03  0.24616480009E+03  0.00000000000E+00 0.  1.
</event>
<event>
12    1  0.8113184E-002  0.1746619E+03  0.7818608E-02  0.1173600E+00
         21   -1    0    0  503  502  0.00000000000E+00  0.00000000000E+00  0.60231121946E+02  0.60231121946E+02  0.00000000000E+00 0.  1.
         21   -1    0    0  501  503 -0.00000000000E+00 -0.00000000000E+00 -0.52415384645E+03  0.52415384645E+03  0.00000000000E+00 0.  1.
          6    2    1    2  501    0  0.24213567466E+02  0.11442069928E+02 -0.17116917408E+03  0.24455197920E+03  0.17259654274E+03 0.  0.
         24    2    3    3    0    0  0.90842218286E+01 -0.31403015217E+02 -0.26910844975E+02  0.93233923652E+02  0.83064423740E+02 0.  0.
         -6    2    1    2    0  502 -0.24213567466E+02 -0.11442069928E+02 -0.29275355043E+03  0.33983298920E+03  0.17048343451E+03 0.  0.
        -24    2    5    5    0    0 -0.43361270541E+02  0.48302739240E+02 -0.19881752378E+03  0.22677484549E+03  0.87664521807E+02 0.  0.
          5    1    3    3  501    0  0.15129345638E+02  0.42845085145E+02 -0.14425832910E+03  0.15131805555E+03  0.47000000000E+01 0. -1.
        -11    1    4    4    0    0  0.40696027609E+02  0.24543111978E+01 -0.24313244685E+01  0.40842400092E+02  0.00000000000E+00 0.  1.
         12    1    4    4    0    0 -0.31611805781E+02 -0.33857326415E+02 -0.24479520507E+02  0.52391523560E+02  0.00000000000E+00 0. -1.
         -5    1    5    5    0  502  0.19147703075E+02 -0.59744809168E+02 -0.93936026645E+02  0.11305814370E+03  0.47000000000E+01 0.  1.
         13    1    6    6    0    0  0.25408823918E+02  0.96471971244E+00 -0.41298827942E+02  0.48498785618E+02  0.00000000000E+00 0. -1.
        -14    1    6    6    0    0 -0.68770094459E+02  0.47338019527E+02 -0.15751869584E+03  0.17827605987E+03  0.00000000000E+00 0.  1.
</event>
<event>
12    1  0.8113184E-002  0.2672613E+03  0.7818608E-02  0.1103970E+00
         21   -1    0    0  503  502  0.00000000000E+00  0.00000000000E+00  0.52989587246E+03  0.52989587246E+03  0.00000000000E+00 0. -1.
         21   -1    0    0  501  503 -0.00000000000E+00 -0.00000000000E+00 -0.13310137926E+03  0.13310137926E+03  0.00000000000E+00 0. -1.
          6    2    1    2  501    0  0.19165983276E+03 -0.71719604215E+02  0.15968314368E+03  0.31133152595E+03  0.17190526330E+03 0.  0.
         24    2    3    3    0    0  0.17128212583E+03 -0.95704884885E+02  0.17662993999E+03  0.27527839108E+03  0.77994007937E+02 0.  0.
         -6    2    1    2    0  502 -0.19165983276E+03  0.71719604215E+02  0.23711134952E+03  0.35166572577E+03  0.15990558931E+03 0.  0.
        -24    2    5    5    0    0 -0.16370421126E+03  0.57658974629E+01  0.19917527093E+03  0.27047062576E+03  0.81555235819E+02 0.  0.
          5    1    3    3  501    0  0.20377706925E+02  0.23985280670E+02 -0.16946796310E+02  0.36053134864E+02  0.47000000000E+01 0. -1.
        -11    1    4    4    0    0  0.33893424369E+02 -0.45580277912E+02  0.86522219477E+02  0.10350082325E+03  0.00000000000E+00 0.  1.
         12    1    4    4    0    0  0.13738870146E+03 -0.50124606973E+02  0.90107720517E+02  0.17177756783E+03  0.00000000000E+00 0. -1.
         -5    1    5    5    0  502 -0.27955621491E+02  0.65953706752E+02  0.37936078586E+02  0.81195100011E+02  0.47000000000E+01 0.  1.
         11    1    6    6    0    0 -0.11286549935E+03  0.37471400941E+02  0.10387609314E+03  0.15790177186E+03  0.00000000000E+00 0. -1.
        -12    1    6    6    0    0 -0.50838711918E+02 -0.31705503478E+02  0.95299177793E+02  0.11256885390E+03  0.00000000000E+00 0.  1.
</event>
<event>
12    1  0.8113184E-002  0.3293556E+03  0.7818608E-02  0.1071435E+00
         21   -1    0    0  503  502  0.00000000000E+00  0.00000000000E+00  0.43754670312E+03  0.43754670312E+03  0.00000000000E+00 0.  1.
         21   -1    0    0  501  503 -0.00000000000E+00 -0.00000000000E+00 -0.26561889746E+03  0.26561889746E+03  0.00000000000E+00 0. -1.
          6    2    1    2  501    0 -0.26493490848E+03 -0.92561532211E+02 -0.50121267136E+01  0.32939371873E+03  0.17238607121E+03 0.  0.
         24    2    3    3    0    0 -0.96557553591E+02 -0.20386944407E+02 -0.56588182055E+02  0.13901965471E+03  0.79907780540E+02 0.  0.
         -6    2    1    2    0  502  0.26493490848E+03  0.92561532211E+02  0.17693993238E+03  0.37377188186E+03  0.17216136913E+03 0.  0.
        -24    2    5    5    0    0  0.20364740844E+03  0.39780604204E+01  0.96241086254E+02  0.23909603807E+03  0.80102913841E+02 0.  0.
          5    1    3    3  501    0 -0.16837735489E+03 -0.72174587803E+02  0.51576055341E+02  0.19037406401E+03  0.47000000000E+01 0. -1.
        -13    1    4    4    0    0 -0.19416167195E+02  0.25353359458E+02  0.18336127460E+01  0.31986599070E+02  0.00000000000E+00 0.  1.
         14    1    4    4    0    0 -0.77141386396E+02 -0.45740303865E+02 -0.58421794801E+02  0.10703305564E+03  0.00000000000E+00 0. -1.
         -5    1    5    5    0  502  0.61287500038E+02  0.88583471790E+02  0.80698846121E+02  0.13467584379E+03  0.47000000000E+01 0.  1.
         11    1    6    6    0    0  0.48767905793E+02 -0.88763141817E+01  0.63010163022E+02  0.80170931346E+02  0.00000000000E+00 0. -1.
        -12    1    6    6    0    0  0.15487950265E+03  0.12854374602E+02  0.33230923233E+02  0.15892510672E+03  0.00000000000E+00 0.  1.
</event>
<event>
12    1  0.8113184E-002  0.2276481E+03  0.7818608E-02  0.1128397E+00
         21   -1    0    0  503  502  0.00000000000E+00  0.00000000000E+00  0.52137181394E+03  0.52137181394E+03  0.00000000000E+00 0.  1.
         21   -1    0    0  501  503 -0.00000000000E+00 -0.00000000000E+00 -0.10356755539E+03  0.10356755539E+03  0.00000000000E+00 0. -1.
          6    2    1    2  501    0 -0.59085275014E+01  0.14756278570E+03  0.14479365153E+03  0.26979409991E+03  0.17324539937E+03 0.  0.
         24    2    3    3    0    0 -0.70115325032E+02  0.10954275157E+03  0.98868113471E+02  0.18204855364E+03  0.80318110005E+02 0.  0.
         -6    2    1    2    0  502  0.59085275014E+01 -0.14756278570E+03  0.27301060702E+03  0.35514526942E+03  0.17257950177E+03 0.  0.
        -24    2    5    5    0    0  0.60736024937E+02 -0.54803167185E+02  0.18123525263E+03  0.21352886156E+03  0.77820987322E+02 0.  0.
          5    1    3    3  501    0  0.64206797530E+02  0.38020034131E+02  0.45925538062E+02  0.87745546273E+02  0.47000000000E+01 0. -1.
        -13    1    4    4    0    0 -0.22767184179E+02  0.45503906679E+02  0.88023931326E+02  0.10167183821E+03  0.00000000000E+00 0.  1.
         14    1    4    4    0    0 -0.47348140853E+02  0.64038844889E+02  0.10844182146E+02  0.80376715430E+02  0.00000000000E+00 0. -1.
         -5    1    5    5    0  502 -0.54827497435E+02 -0.92759618514E+02  0.91775354389E+02  0.14161640786E+03  0.47000000000E+01 0.  1.
         11    1    6    6    0    0 -0.32215339242E+01 -0.67623358182E+01 -0.62096698719E+01  0.97297207803E+01  0.00000000000E+00 0. -1.
        -12    1    6    6    0    0  0.63957558861E+02 -0.48040831366E+02  0.18744492250E+03  0.20379914078E+03  0.00000000000E+00 0.  1.
</event>
<event>
12    1  0.8113184E-002  0.1734552E+03  0.7818608E-02  0.1174563E+00
         21   -1    0    0  501  502  0.00000000000E+00  0.00000000000E+00  0.10983917417E+04  0.10983917417E+04  0.00000000000E+00 0.  1.
         21   -1    0    0  502  503 -0.00000000000E+00 -0.00000000000E+00 -0.60644967515E+02  0.60644967515E+02  0.00000000000E+00 0.  1.
         -6    2    1    2    0  503  0.16292105569E+02 -0.13098284955E+02  0.89380359928E+02  0.19512960889E+03  0.17219093400E+03 0.  0.
        -24    2    3    3    0    0 -0.11057164203E+02  0.56242087948E+02  0.59220754545E+02  0.11458296607E+03  0.79603548968E+02 0.  0.
          6    2    1    2  501    0 -0.16292105569E+02  0.13098284955E+02  0.94836641423E+03  0.96390710030E+03  0.17111704943E+03 0.  0.
         24    2    5    5    0    0 -0.59445463003E+02 -0.22363765135E+02  0.77780117973E+03  0.78436780524E+03  0.78894091255E+02 0.  0.
          5    1    5    5  501    0  0.43153357433E+02  0.35462050090E+02  0.17056523450E+03  0.17953929507E+03  0.47000000000E+01 0. -1.
        -11    1    6    6    0    0  0.99546603798E+00 -0.20826429807E+02  0.48200839134E+03  0.48245913864E+03  0.00000000000E+00 0.  1.
         12    1    6    6    0    0 -0.60440929041E+02 -0.15373353273E+01  0.29579278839E+03  0.30190866660E+03  0.00000000000E+00 0. -1.
         -5    1    3    3    0  503  0.27349269773E+02 -0.69340372903E+02  0.30159605384E+02  0.80546642812E+02  0.47000000000E+01 0.  1.
         11    1    4    4    0    0  0.11031294844E+02 -0.17272412189E+02  0.66535007124E+01  0.21547500099E+02  0.00000000000E+00 0. -1.
        -12    1    4    4    0    0 -0.22088459048E+02  0.73514500137E+02  0.52567253832E+02  0.93035465974E+02  0.00000000000E+00 0.  1.
</event>
<event>
12    1  0.8113184E-002  0.1885256E+03  0.7818608E-02  0.1160038E+00
         21   -1    0    0  501  502  0.00000000000E+00  0.00000000000E+00  0.13550460330E+04  0.13550460330E+04  0.00000000000E+00 0.  1.
         21   -1    0    0  502  503 -0.00000000000E+00 -0.00000000000E+00 -0.57720084662E+02  0.57720084662E+02  0.00000000000E+00 0.  1.
         -6    2    1    2    0  503 -0.14913018075E+02 -0.73674465920E+02  0.12651780003E+03  0.22704333027E+03  0.17289185943E+03 0.  0.
        -24    2    3    3    0    0  0.26257570796E+02  0.14694510899E+02  0.87354024351E+02  0.12187686804E+03  0.79484946491E+02 0.  0.
          6    2    1    2  501    0  0.14913018075E+02  0.73674465920E+02  0.11708081483E+04  0.11857227874E+04  0.17174540274E+03 0.  0.
         24    2    5    5    0    0 -0.99106428335E+01  0.21045210584E+00  0.27010189279E+03  0.28167244355E+03  0.79284726379E+02 0.  0.
          5    1    5    5  501    0  0.24823660908E+02  0.73464013815E+02  0.90070625553E+03  0.90405034385E+03  0.47000000000E+01 0. -1.
        -11    1    6    6    0    0 -0.41749877462E+02  0.13570069493E+02  0.17733645174E+03  0.18268939807E+03  0.00000000000E+00 0.  1.
         12    1    6    6    0    0  0.31839234628E+02 -0.13359617387E+02  0.92765441049E+02  0.98983045475E+02  0.00000000000E+00 0. -1.
         -5    1    3    3    0  503 -0.41170588871E+02 -0.88368976820E+02  0.39163775679E+02  0.10516646223E+03  0.47000000000E+01 0.  1.
         11    1    4    4    0    0 -0.21195311790E+02  0.25020256985E+02  0.18592642120E+02  0.37695368980E+02  0.00000000000E+00 0. -1.
        -12    1    4    4    0    0  0.47452882586E+02 -0.10325746086E+02  0.68761382231E+02  0.84181499062E+02  0.00000000000E+00 0.  1.
</event>
<event>
12    1  0.8113184E-002  0.1857433E+03  0.7818608E-02  0.1162396E+00
         21   -1    0    0  503  502  0.00000000000E+00  0.00000000000E+00  0.45554148105E+03  0.45554148105E+03  0.00000000000E+00 0. -1.
         21   -1    0    0  501  503 -0.00000000000E+00 -0.00000000000E+00 -0.18113339849E+03  0.18113339849E+03  0.00000000000E+00 0. -1.
          6    2    1    2  501    0  0.58152582253E+02  0.38383927252E+02 -0.10573158328E+03  0.21358298992E+03  0.17199848018E+03 0.  0.
         24    2    3    3    0    0 -0.17409300802E+02 -0.95645007185E+01 -0.73318106882E+01  0.80491836331E+02  0.77657046297E+02 0.  0.
         -6    2    1    2    0  502 -0.58152582253E+02 -0.38383927252E+02  0.38013966585E+03  0.42309188963E+03  0.17217878157E+03 0.  0.
        -24    2    5    5    0    0  0.22317569418E+02 -0.57813018778E+02  0.17050237148E+03  0.19765271801E+03  0.78454567829E+02 0.  0.
          5    1    3    3  501    0  0.75561883056E+02  0.47948427970E+02 -0.98399772597E+02  0.13309115359E+03  0.47000000000E+01 0. -1.
        -11    1    4    4    0    0  0.11206391747E+02  0.29092236230E+01  0.29806900256E+02  0.31976524216E+02  0.00000000000E+00 0.  1.
         12    1    4    4    0    0 -0.28615692549E+02 -0.12473724342E+02 -0.37138710944E+02  0.48515312115E+02  0.00000000000E+00 0. -1.
         -5    1    5    5    0  502 -0.80470151671E+02  0.19429091526E+02  0.20963729437E+03  0.22543917162E+03  0.47000000000E+01 0.  1.
         11    1    6    6    0    0  0.18459509325E+02 -0.34021961629E+02  0.17010469409E+02  0.42280059450E+02  0.00000000000E+00 0. -1.
        -12    1    6    6    0    0  0.38580600925E+01 -0.23791057149E+02  0.15349190207E+03  0.15537265856E+03  0.00000000000E+00 0.  1.
</event>
<event>
12    1  0.8113184E-002  0.2178034E+03  0.7818608E-02  0.1135869E+00
         21   -1    0    0  501  502  0.00000000000E+00  0.00000000000E+00  0.25511937281E+03  0.25511937281E+03  0.00000000000E+00 0. -1.
         21   -1    0    0  502  503 -0.00000000000E+00 -0.00000000000E+00 -0.30017987821E+03  0.30017987821E+03  0.00000000000E+00 0. -1.
         -6    2    1    2    0  503  0.12093449684E+03  0.56162684248E+02 -0.19499721456E+03  0.29233925143E+03  0.17221766638E+03 0.  0.
        -24    2    3    3    0    0  0.11751966834E+03 -0.18012022285E+02 -0.13140202449E+03  0.19446184678E+03  0.80085032408E+02 0.  0.
          6    2    1    2  501    0 -0.12093449684E+03 -0.56162684248E+02  0.14993670916E+03  0.26295999959E+03  0.16996336371E+03 0.  0.
         24    2    5    5    0    0 -0.23167982697E+02 -0.66612763035E+02  0.36917530015E+02  0.11308364959E+03  0.80318068710E+02 0.  0.
          5    1    5    5  501    0 -0.97766514145E+02  0.10450078787E+02  0.11301917914E+03  0.14987635000E+03  0.47000000000E+01 0. -1.
        -13    1    6    6    0    0  0.25495511120E+02 -0.14952169702E+02  0.29443998531E+02  0.41719749707E+02  0.00000000000E+00 0.  1.
         14    1    6    6    0    0 -0.48663493818E+02 -0.51660593333E+02  0.74735314841E+01  0.71363899886E+02  0.00000000000E+00 0. -1.
         -5    1    3    3    0  503  0.34148284982E+01  0.74174706533E+02 -0.63595190064E+02  0.97877404656E+02  0.47000000000E+01 0.  1.
         13    1    4    4    0    0  0.11028856073E+03  0.12478342047E+02 -0.92320744069E+02  0.14436895592E+03  0.00000000000E+00 0. -1.
        -14    1    4    4    0    0  0.72311076125E+01 -0.30490364333E+02 -0.39081280425E+02  0.50092890854E+02  0.00000000000E+00 0.  1.
</event>
<event>
12    1  0.8113184E-002  0.1861141E+03  0.7818608E-02  0.1163279E+00
         21   -1    0    0  503  502  0.00000000000E+00  0.00000000000E+00  0.14263713011E+03  0.14263713011E+03  0.00000000000E+00 0.  1.
         21   -1    0    0  501  503 -0.00000000000E+00 -0.00000000000E+00 -0.23761953143E+03  0.23761953143E+03  0.00000000000E+00 0.  1.
          6    2    1    2  501    0 -0.43093861979E+02  0.32987691290E+02 -0.64465693345E+02  0.19696261284E+03  0.17802577488E+03 0.  0.
         24    2    3    3    0    0  0.30972318776E+02 -0.23401416878E+02 -0.47830540699E+02  0.10228236699E+03  0.81651767471E+02 0.  0.
         -6    2    1    2    0  502  0.43093861979E+02 -0.32987691290E+02 -0.30516707977E+02  0.18329404869E+03  0.17239538886E+03 0.  0.
        -24    2    5    5    0    0  0.77937117731E+02  0.22733242793E+02 -0.11386344990E+02  0.11468693714E+03  0.80202556387E+02 0.  0.
          5    1    3    3  501    0 -0.74066180755E+02  0.56389108168E+02 -0.16635152646E+02  0.94680245855E+02  0.47000000000E+01 0. -1.
        -13    1    4    4    0    0  0.17707275701E+02  0.29788869813E+02 -0.11481516286E+02  0.36506843108E+02  0.00000000000E+00 0.  1.
         14    1    4    4    0    0  0.13265043075E+02 -0.53190286691E+02 -0.36349024413E+02  0.65775523881E+02  0.00000000000E+00 0. -1.
         -5    1    5    5    0  502 -0.34843255752E+02 -0.55720934083E+02 -0.19130362987E+02  0.68607111544E+02  0.47000000000E+01 0.  1.
         11    1    6    6    0    0  0.12434653098E+02 -0.11714873851E+02 -0.33364564729E+02  0.37484037223E+02  0.00000000000E+00 0. -1.
        -12    1    6    6    0    0  0.65502464632E+02  0.34448116643E+02  0.21978219739E+02  0.77202899920E+02  0.00000000000E+00 0.  1.
</event>
<event>
12    1  0.8113184E-002  0.2636094E+03  0.7818608E-02  0.1105436E+00
         21   -1    0    0  503  502  0.00000000000E+00  0.00000000000E+00  0.65566835418E+03  0.65566835418E+03  0.00000000000E+00 0. -1.
         21   -1    0    0  501  503 -0.00000000000E+00 -0.00000000000E+00 -0.10494804275E+03  0.10494804275E+03  0.00000000000E+00 0.  1.
          6    2    1    2  501    0 -0.68528900343E+02 -0.18239448142E+03  0.28859045871E+03  0.38886116546E+03  0.17310284836E+03 0.  0.
         24    2    3    3    0    0 -0.43471542801E+02 -0.14806895634E+03  0.29761773896E+03  0.34516111251E+03  0.82132114184E+02 0.  0.
         -6    2    1    2    0  502  0.68528900343E+02  0.18239448142E+03  0.26212985272E+03  0.37175523147E+03  0.17755544318E+03 0.  0.
        -24    2    5    5    0    0  0.86813554563E+00  0.15369735506E+03  0.11751959494E+03  0.20947238947E+03  0.80275750652E+02 0.  0.
          5    1    3    3  501    0 -0.25057357542E+02 -0.34325525081E+02 -0.90272802504E+01  0.43700052950E+02  0.47000000000E+01 0. -1.
        -11    1    4    4    0    0  0.91646058829E+01  0.54307251049E+01  0.33725044766E+02  0.35367519288E+02  0.00000000000E+00 0.  1.
         12    1    4    4    0    0 -0.52636148684E+02 -0.15349968145E+03  0.26389269419E+03  0.30979359322E+03  0.00000000000E+00 0. -1.
         -5    1    5    5    0  502  0.67660764797E+02  0.28697126364E+02  0.14461025777E+03  0.16228284200E+03  0.47000000000E+01 0.  1.
         11    1    6    6    0    0 -0.20367534283E+02  0.10484106062E+03  0.11380572903E+03  0.15607122863E+03  0.00000000000E+00 0. -1.
        -12    1    6    6    0    0  0.21235669829E+02  0.48856294436E+02  0.37138659121E+01  0.53401160840E+02  0.00000000000E+00 0.  1.
</event>
<event>
12    1  0.8113184E-002  0.2295551E+03  0.7818608E-02  0.1127262E+00
         21   -1    0    0  503  502  0.00000000000E+00  0.00000000000E+00  0.40422673163E+03  0.40422673163E+03  0.00000000000E+00 0. -1.
         21   -1    0    0  501  503 -0.00000000000E+00 -0.00000000000E+00 -0.38920213977E+03  0.38920213977E+03  0.00000000000E+00 0. -1.
          6    2    1    2  501    0 -0.14677430431E+03 -0.37469152120E+02 -0.31663734535E+03  0.39007398131E+03  0.17015248648E+03 0.  0.
         24    2    3    3    0    0 -0.48201532905E+02 -0.33226054632E+02 -0.59461997736E+02  0.11458197678E+03  0.78523510792E+02 0.  0.
         -6    2    1    2    0  502  0.14677430431E+03  0.37469152120E+02  0.33166193721E+03  0.40335489010E+03  0.17247867405E+03 0.  0.
        -24    2    5    5    0    0  0.26002346552E+02  0.97244678226E+01  0.23326220357E+03  0.24505065494E+03  0.69770198297E+02 0.  0.
          5    1    3    3  501    0 -0.98572771408E+02 -0.42430974877E+01 -0.25717534761E+03  0.27549200453E+03  0.47000000000E+01 0. -1.
        -13    1    4    4    0    0 -0.32087994202E+02  0.12444819474E+02  0.41130282956E+01  0.34661648914E+02  0.00000000000E+00 0.  1.
         14    1    4    4    0    0 -0.16113538702E+02 -0.45670874106E+02 -0.63575026031E+02  0.79920327865E+02  0.00000000000E+00 0. -1.
         -5    1    5    5    0  502  0.12077195776E+03  0.27744684297E+02  0.98399733641E+02  0.15830423516E+03  0.47000000000E+01 0.  1.
         13    1    6    6    0    0 -0.13161117946E+02  0.24327929906E+02  0.50591519932E+02  0.57659041685E+02  0.00000000000E+00 0. -1.
        -14    1    6    6    0    0  0.39163464498E+02 -0.14603462083E+02  0.18267068364E+03  0.18739161325E+03  0.00000000000E+00 0.  1.
</event>
<event>
12    1  0.8113184E-002  0.1822233E+03  0.7818608E-02  0.1165958E+00
         21   -1    0    0  503  502  0.00000000000E+00  0.00000000000E+00  0.73881696740E+02  0.73881696740E+02  0.00000000000E+00 0.  1.
         21   -1    0    0  501  503 -0.00000000000E+00 -0.00000000000E+00 -0.47023109336E+03  0.47023109336E+03  0.00000000000E+00 0.  1.
          6    2    1    2  501    0 -0.32035809756E+02  0.47808549210E+02 -0.25872069661E+03  0.31575564921E+03  0.17161958125E+03 0.  0.
         24    2    3    3    0    0  0.17469331096E+02  0.17668840699E+02 -0.46860143072E+02  0.96060075413E+02  0.80089322753E+02 0.  0.
         -6    2    1    2    0  502  0.32035809756E+02 -0.47808549210E+02 -0.13762870001E+03  0.22835714089E+03  0.17289700473E+03 0.  0.
        -24    2    5    5    0    0  0.71262044000E+02  0.42565740933E+01 -0.11858424175E+03  0.16028177157E+03  0.80818479132E+02 0.  0.
          5    1    3    3  501    0 -0.49505140852E+02  0.30139708511E+02 -0.21186055353E+03  0.21969557379E+03  0.47000000000E+01 0. -1.
        -13    1    4    4    0    0  0.36910067734E+02 -0.18349128635E+02 -0.33148122724E+02  0.52894627911E+02  0.00000000000E+00 0.  1.
         14    1    4    4    0    0 -0.19440736638E+02  0.36017969334E+02 -0.13712020349E+02  0.43165447502E+02  0.00000000000E+00 0. -1.
         -5    1    5    5    0  502 -0.39226234244E+02 -0.52065123304E+02 -0.19044458262E+02  0.68075369320E+02  0.47000000000E+01 0.  1.
         11    1    6    6    0    0  0.76669571778E+02 -0.21667303003E+02 -0.75829387160E+02  0.10998995960E+03  0.00000000000E+00 0. -1.
        -12    1    6    6    0    0 -0.54075277786E+01  0.25923877096E+02 -0.42754854592E+02  0.50291811973E+02  0.00000000000E+00 0.  1.
</event>
<event>
12    1  0.8113184E-002  0.1848283E+03  0.7818608E-02  0.1163512E+00
         21   -1    0    0  501  502  0.00000000000E+00  0.00000000000E+00  0.34590692691E+03  0.34590692691E+03  0.00000000000E+00 0.  1.
         21   -1    0    0  502  503 -0.00000000000E+00 -0.00000000000E+00 -0.20446885885E+03  0.20446885885E+03  0.00000000000E+00 0.  1.
         -6    2    1    2    0  503 -0.65961008136E+02 -0.13815006570E+01 -0.12790577235E+03  0.22371448816E+03  0.17127615851E+03 0.  0.
        -24    2    3    3    0    0 -0.11164921544E+02 -0.90755474367E+01  0.20996224467E+01  0.82345106266E+02  0.81051138655E+02 0.  0.
          6    2    1    2  501    0  0.65961008136E+02  0.13815006570E+01  0.26934384041E+03  0.32666129760E+03  0.17265206586E+03 0.  0.
         24    2    5    5    0    0  0.24367786441E+02  0.59421091498E+02  0.20861946399E+03  0.23280965890E+03  0.80954316692E+02 0.  0.
          5    1    5    5  501    0  0.41593221695E+02 -0.58039590841E+02  0.60724376422E+02  0.93851638705E+02  0.47000000000E+01 0. -1.
        -13    1    6    6    0    0  0.40668600202E+02  0.90406814066E+01  0.14040204600E+03  0.14645273464E+03  0.00000000000E+00 0.  1.
         14    1    6    6    0    0 -0.16300813761E+02  0.50380410091E+02  0.68217417983E+02  0.86356924253E+02  0.00000000000E+00 0. -1.
         -5    1    3    3    0  503 -0.54796086592E+02  0.76940467797E+01 -0.13000539479E+03  0.14136938189E+03  0.47000000000E+01 0.  1.
         13    1    4    4    0    0 -0.44964492581E+01 -0.27760603918E+02 -0.32181069550E+02  0.42737459251E+02  0.00000000000E+00 0. -1.
        -14    1    4    4    0    0 -0.66684722856E+01  0.18685056481E+02  0.34280691997E+02  0.39607647015E+02  0.00000000000E+00 0.  1.
</event>
<event>
12    1  0.8113184E-002  0.2008985E+03  0.7818608E-02  0.1149274E+00
         21   -1    0    0  501  502  0.00000000000E+00  0.00000000000E+00  0.11129236990E+03  0.11129236990E+03  0.00000000000E+00 0.  1.
         21   -1    0    0  502  503 -0.00000000000E+00 -0.00000000000E+00 -0.45256980358E+03  0.45256980358E+03  0.00000000000E+00 0.  1.
         -6    2    1    2    0  503  0.68855090178E+02 -0.77535597421E+02 -0.29756833336E+03  0.35826384210E+03  0.17045021333E+03 0.  0.
        -24    2    3    3    0    0  0.71866979372E+02 -0.24215794134E+02 -0.85791921148E+02  0.13980695466E+03  0.80215107227E+02 0.  0.
          6    2    1    2  501    0 -0.68855090178E+02  0.77535597421E+02 -0.43709100326E+02  0.20559833138E+03  0.17206799849E+03 0.  0.
         24    2    5    5    0    0 -0.41972994905E+02  0.11915544695E+03 -0.44242633408E+02  0.15582651628E+03  0.79779318925E+02 0.  0.
          5    1    5    5  501    0 -0.26882095273E+02 -0.41619849525E+02  0.53353308286E+00  0.49771815099E+02  0.47000000000E+01 0. -1.
        -11    1    6    6    0    0 -0.21532714088E+01  0.95237084982E+02 -0.56387106505E+01  0.95428161417E+02  0.00000000000E+00 0.  1.
         12    1    6    6    0    0 -0.39819723496E+02  0.23918361964E+02 -0.38603922758E+02  0.60398354867E+02  0.00000000000E+00 0. -1.
         -5    1    3    3    0  503 -0.30118891941E+01 -0.53319803287E+02 -0.21177641221E+03  0.21845688744E+03  0.47000000000E+01 0.  1.
         13    1    4    4    0    0  0.35750896697E+02  0.96560910333E+01 -0.82206994046E+02  0.90162944599E+02  0.00000000000E+00 0. -1.
        -14    1    4    4    0    0  0.36116082675E+02 -0.33871885167E+02 -0.35849271015E+01  0.49644010060E+02  0.00000000000E+00 0.  1.
</event>
<event>
12    1  0.8113184E-002  0.2037787E+03  0.7818608E-02  0.1146840E+00
         21   -1    0    0  503  502  0.00000000000E+00  0.00000000000E+00  0.17721557054E+03  0.17721557054E+03  0.00000000000E+00 0. -1.
         21   -1    0    0  501  503 -0.00000000000E+00 -0.00000000000E+00 -0.26325961811E+03  0.26325961811E+03  0.00000000000E+00 0. -1.
          6    2    1    2  501    0 -0.99552769924E+02  0.41331251796E+02 -0.11788729668E+03  0.23542124908E+03  0.17293560485E+03 0.  0.
         24    2    3    3    0    0 -0.84474864705E+02  0.26558198131E+01 -0.61121140131E+01  0.11609432954E+03  0.79356658629E+02 0.  0.
         -6    2    1    2    0  502  0.99552769924E+02 -0.41331251796E+02  0.31843249114E+02  0.20505393957E+03  0.17150539130E+03 0.  0.
        -24    2    5    5    0    0  0.22006906201E+02  0.36664372391E+02  0.27713458440E+02  0.94891225623E+02  0.80048290414E+02 0.  0.
          5    1    3    3  501    0 -0.15077905220E+02  0.38675431983E+02 -0.11177518267E+03  0.11932691953E+03  0.47000000000E+01 0. -1.
        -13    1    4    4    0    0 -0.42597749014E+02 -0.28152097440E+02  0.23560818643E+02  0.56233628608E+02  0.00000000000E+00 0.  1.
         14    1    4    4    0    0 -0.41877115691E+02  0.30807917253E+02 -0.29672932657E+02  0.59860700935E+02  0.00000000000E+00 0. -1.
         -5    1    5    5    0  502  0.77545863723E+02 -0.77995624187E+02  0.41297906739E+01  0.11016271395E+03  0.47000000000E+01 0.  1.
         11    1    6    6    0    0  0.44271506453E+02 -0.56686166328E+00  0.26279572146E+02  0.51486925796E+02  0.00000000000E+00 0. -1.
        -12    1    6    6    0    0 -0.22264600252E+02  0.37231234054E+02  0.14338862949E+01  0.43404299827E+02  0.00000000000E+00 0.  1.
</event>
<event>
12    1  0.8113184E-002  0.2774631E+03  0.7818608E-02  0.1097294E+00
         21   -1    0    0  503  502  0.00000000000E+00  0.00000000000E+00  0.46657349670E+03  0.46657349670E+03  0.00000000000E+00 0.  1.
         21   -1    0    0  501  503 -0.00000000000E+00 -0.00000000000E+00 -0.18566084141E+03  0.18566084141E+03  0.00000000000E+00 0.  1.
          6    2    1    2  501    0  0.19483643644E+03  0.94127682903E+02  0.29658255101E+02  0.27904373773E+03  0.17367941104E+03 0.  0.
         24    2    3    3    0    0  0.16221411556E+03  0.13103672285E+03  0.63181395815E+01  0.22433227603E+03  0.82468231215E+02 0.  0.
         -6    2    1    2    0  502 -0.19483643644E+03 -0.94127682903E+02  0.25125440019E+03  0.37319060037E+03  0.17123432173E+03 0.  0.
        -24    2    5    5    0    0 -0.20339663993E+03 -0.81006931846E+02  0.26495803550E+03  0.35185258704E+03  0.75267298968E+02 0.  0.
          5    1    3    3  501    0  0.32622320875E+02 -0.36909039945E+02  0.23340115520E+02  0.54711461700E+02  0.47000000000E+01 0. -1.
        -11    1    4    4    0    0  0.34327329561E+02  0.15105481162E+02  0.32647493608E+02  0.49723233551E+02  0.00000000000E+00 0.  1.
         12    1    4    4    0    0  0.12788678600E+03  0.11593124169E+03 -0.26329354027E+02  0.17460904248E+03  0.00000000000E+00 0. -1.
         -5    1    5    5    0  502  0.85602034868E+01 -0.13120751057E+02 -0.13703635311E+02  0.21338013328E+02  0.47000000000E+01 0.  1.
         11    1    6    6    0    0 -0.51441789473E+01  0.31466439320E+01  0.39869488549E+02  0.40322947092E+02  0.00000000000E+00 0. -1.
        -12    1    6    6    0    0 -0.19825246098E+03 -0.84153575778E+02  0.22508854695E+03  0.31152963995E+03  0.00000000000E+00 0.  1.
</event>
<event>
12    1  0.8113184E-002  0.1898859E+03  0.7818608E-02  0.1158724E+00
         21   -1    0    0  503  502  0.00000000000E+00  0.00000000000E+00  0.25292576255E+02  0.25292576255E+02  0.00000000000E+00 0.  1.
         21   -1    0    0  501  503 -0.00000000000E+00 -0.00000000000E+00 -0.14575122685E+04  0.14575122685E+04  0.00000000000E+00 0.  1.
          6    2    1    2  501    0 -0.42473709312E+02  0.68287381776E+02 -0.83592339229E+03  0.85721909269E+03  0.17201590798E+03 0.  0.
         24    2    3    3    0    0  0.40412123994E+02  0.24513153823E+02 -0.50136331296E+03  0.50974422874E+03  0.78993497665E+02 0.  0.
         -6    2    1    2    0  502  0.42473709312E+02 -0.68287381776E+02 -0.59629630000E+03  0.62558575211E+03  0.17123397257E+03 0.  0.
        -24    2    5    5    0    0  0.82633642485E+02 -0.52879700261E+02 -0.54069309907E+03  0.55512993024E+03  0.78712327478E+02 0.  0.
          5    1    3    3  501    0 -0.82885833306E+02  0.43774227953E+02 -0.33456007933E+03  0.34747486395E+03  0.47000000000E+01 0. -1.
        -13    1    4    4    0    0  0.28193378004E+02  0.53512202832E+02 -0.31826547756E+03  0.32396193700E+03  0.00000000000E+00 0.  1.
         14    1    4    4    0    0  0.12218745991E+02 -0.28999049009E+02 -0.18309783540E+03  0.18578229175E+03  0.00000000000E+00 0. -1.
         -5    1    5    5    0  502 -0.40159933173E+02 -0.15407681515E+02 -0.55603200935E+02  0.70455821877E+02  0.47000000000E+01 0.  1.
         11    1    6    6    0    0  0.22425737065E+02  0.17399153850E+02 -0.72094153503E+02  0.77480392403E+02  0.00000000000E+00 0. -1.
        -12    1    6    6    0    0  0.60207905420E+02 -0.70278854111E+02 -0.46859894556E+03  0.47764953783E+03  0.00000000000E+00 0.  1.
</event>
<event>
12    1  0.8113184E-002  0.2007569E+03  0.7818608E-02  0.1149137E+00
         21   -1    0    0  503  502  0.00000000000E+00  0.00000000000E+00  0.62696409358E+02  0.62696409358E+02  0.00000000000E+00 0.  1.
         21   -1    0    0  501  503 -0.00000000000E+00 -0.00000000000E+00 -0.10525764059E+04  0.10525764059E+04  0.00000000000E+00 0. -1.
          6    2    1    2  501    0 -0.67798715684E+02 -0.78384032319E+02 -0.84321494096E+03  0.86678414245E+03  0.17193775201E+03 0.  0.
         24    2    3    3    0    0 -0.41516799946E+02 -0.57342464621E+02 -0.24079646517E+03  0.26340731439E+03  0.79929173070E+02 0.  0.
         -6    2    1    2    0  502  0.67798715684E+02  0.78384032319E+02 -0.14666505555E+03  0.24848867279E+03  0.17174184001E+03 0.  0.
        -24    2    5    5    0    0 -0.29440723134E+02  0.26652599737E+02 -0.83198475435E+02  0.12128117941E+03  0.78803685910E+02 0.  0.
          5    1    3    3  501    0 -0.26281915738E+02 -0.21041567698E+02 -0.60241847579E+03  0.60337682806E+03  0.47000000000E+01 0. -1.
        -11    1    4    4    0    0 -0.40575520079E+02 -0.63810710518E+02 -0.24447790437E+03  0.25590550078E+03  0.00000000000E+00 0.  1.
         12    1    4    4    0    0 -0.94127986673E+00  0.64682458973E+01  0.36814391985E+01  0.75018136039E+01  0.00000000000E+00 0. -1.
         -5    1    5    5    0  502  0.97239438818E+02  0.51731432582E+02 -0.63466580120E+02  0.12720749338E+03  0.47000000000E+01 0.  1.
         13    1    6    6    0    0 -0.11364558447E+02 -0.16463913112E+02 -0.69853235992E+02  0.72661462978E+02  0.00000000000E+00 0. -1.
        -14    1    6    6    0    0 -0.18076164687E+02  0.43116512849E+02 -0.13345239443E+02  0.48619716432E+02  0.00000000000E+00 0.  1.
</event>
<event>
12    1  0.8113184E-002  0.1956632E+03  0.7818608E-02  0.1154403E+00
         21   -1    0    0  501  502  0.00000000000E+00  0.00000000000E+00  0.21009749030E+03  0.21009749030E+03  0.00000000000E+00 0. -1.
         21   -1    0    0  502  503 -0.00000000000E+00 -0.00000000000E+00 -0.53987215710E+03  0.53987215710E+03  0.00000000000E+00 0. -1.
         -6    2    1    2    0  503 -0.26433793476E+02  0.88132058144E+02 -0.47118982355E+03  0.50855227465E+03  0.16774850558E+03 0.  0.
        -24    2    3    3    0    0  0.92829799120E+01  0.10019602613E+03 -0.44387686555E+03  0.46176215925E+03  0.77924338780E+02 0.  0.
          6    2    1    2  501    0  0.26433793476E+02 -0.88132058144E+02  0.14141515676E+03  0.24141737275E+03  0.17267917128E+03 0.  0.
         24    2    5    5    0    0 -0.19293677776E+02 -0.90219773359E+02  0.15196308082E+03  0.19420816937E+03  0.78180442629E+02 0.  0.
          5    1    5    5  501    0  0.45727471252E+02  0.20877152153E+01 -0.10547924063E+02  0.47209203382E+02  0.47000000000E+01 0. -1.
        -13    1    6    6    0    0 -0.48488255828E+02 -0.69145219509E+02  0.98454590994E+02  0.12971306342E+03  0.00000000000E+00 0.  1.
         14    1    6    6    0    0  0.29194578052E+02 -0.21074553850E+02  0.53508489825E+02  0.64495105946E+02  0.00000000000E+00 0. -1.
         -5    1    3    3    0  503 -0.35716773388E+02 -0.12063967986E+02 -0.27312958007E+02  0.46790115409E+02  0.47000000000E+01 0.  1.
         13    1    4    4    0    0 -0.14926281908E+02  0.11635641616E+02 -0.20464552610E+03  0.20551879087E+03  0.00000000000E+00 0. -1.
        -14    1    4    4    0    0  0.24209261820E+02  0.88560384514E+02 -0.23923133945E+03  0.25624336838E+03  0.00000000000E+00 0.  1.
</event>
<event>
12    1  0.8113184E-002  0.1726199E+03  0.7818608E-02  0.1175307E+00
         21   -1    0    0  503  502  0.00000000000E+00  0.00000000000E+00  0.10615740580E+03  0.10615740580E+03  0.00000000000E+00 0. -1.
         21   -1    0    0  501  503 -0.00000000000E+00 -0.00000000000E+00 -0.36484391523E+03  0.36484391523E+03  0.00000000000E+00 0. -1.
          6    2    1    2  501    0  0.82075457048E+01  0.43378826697E+01 -0.24295661385E+03  0.29766623945E+03  0.17172970873E+03 0.  0.
         24    2    3    3    0    0 -0.43432518397E+02  0.26574543080E+02 -0.76782413483E+02  0.12217515661E+03  0.80241135827E+02 0.  0.
         -6    2    1    2    0  502 -0.82075457048E+01 -0.43378826697E+01 -0.15729895579E+02  0.17333508158E+03  0.17237006660E+03 0.  0.
        -24    2    5    5    0    0 -0.57127635857E+02  0.33402632473E+02  0.15459596714E+02  0.10396364558E+03  0.78677429018E+02 0.  0.
          5    1    3    3  501    0  0.51640064102E+02 -0.22236660411E+02 -0.16617420037E+03  0.17549108284E+03  0.47000000000E+01 0. -1.
        -11    1    4    4    0    0 -0.11791820602E+02 -0.16555427727E+02  0.80702479807E+01  0.21869113443E+02  0.00000000000E+00 0.  1.
         12    1    4    4    0    0 -0.31640697795E+02  0.43129970807E+02 -0.84852661464E+02  0.10030604317E+03  0.00000000000E+00 0. -1.
         -5    1    5    5    0  502  0.48920090152E+02 -0.37740515143E+02 -0.31189492293E+02  0.69371436004E+02  0.47000000000E+01 0.  1.
         13    1    6    6    0    0 -0.51498909491E+02  0.38179342843E+02 -0.20459836534E+02  0.67293423228E+02  0.00000000000E+00 0. -1.
        -14    1    6    6    0    0 -0.56287263656E+01 -0.47767103698E+01  0.35919433248E+02  0.36670222352E+02  0.00000000000E+00 0.  1.
</event>
<event>
12    1  0.8113184E-002  0.1843259E+03  0.7818608E-02  0.1164844E+00
         21   -1    0    0  503  502  0.00000000000E+00  0.00000000000E+00  0.28912032515E+03  0.28912032515E+03  0.00000000000E+00 0.  1.
         21   -1    0    0  501  503 -0.00000000000E+00 -0.00000000000E+00 -0.14451236244E+03  0.14451236244E+03  0.00000000000E+00 0.  1.
          6    2    1    2  501    0 -0.41618341344E+02  0.38395060557E+02 -0.27399506642E+02  0.18151645414E+03  0.17026809198E+03 0.  0.
         24    2    3    3    0    0 -0.23023748412E+02 -0.38565149764E+02  0.12581685300E+02  0.92695180965E+02  0.80104519236E+02 0.  0.
         -6    2    1    2    0  502  0.41618341344E+02 -0.38395060557E+02  0.17200746936E+03  0.25211623345E+03  0.17541310853E+03 0.  0.
        -24    2    5    5    0    0  0.28653413861E+02  0.31462125420E+02  0.33689881249E+02  0.96546438961E+02  0.79845621769E+02 0.  0.
          5    1    3    3  501    0 -0.18594592931E+02  0.76960210321E+02 -0.39981191942E+02  0.88821273173E+02  0.47000000000E+01 0. -1.
        -11    1    4    4    0    0 -0.93722142917E+01 -0.24764038081E+02 -0.33494699908E+02  0.42696497570E+02  0.00000000000E+00 0.  1.
         12    1    4    4    0    0 -0.13651534120E+02 -0.13801111683E+02  0.46076385207E+02  0.49998683396E+02  0.00000000000E+00 0. -1.
         -5    1    5    5    0  502  0.12964927482E+02 -0.69857185977E+02  0.13831758811E+03  0.15556979449E+03  0.47000000000E+01 0.  1.
         13    1    6    6    0    0 -0.91186371350E+01  0.47803832185E+02  0.24017040180E+02  0.54269458573E+02  0.00000000000E+00 0. -1.
        -14    1    6    6    0    0  0.37772050996E+02 -0.16341706765E+02  0.96728410694E+01  0.42276980389E+02  0.00000000000E+00 0.  1.
</event>
<event>
12    1  0.8113184E-002  0.1782090E+03  0.7818608E-02  0.1169711E+00
         21   -1    0    0  503  502  0.00000000000E+00  0.00000000000E+00  0.59996996813E+03  0.59996996813E+03  0.00000000000E+00 0.  1.
         21   -1    0    0  501  503 -0.00000000000E+00 -0.00000000000E+00 -0.70630486283E+02  0.70630486283E+02  0.00000000000E+00 0.  1.
          6    2    1    2  501    0  0.45032576516E+02  0.15022264930E+02  0.96270672436E+02  0.20255001098E+03  0.17176979707E+03 0.  0.
         24    2    3    3    0    0  0.37077541282E+02  0.47230299361E+01 -0.17102947381E+02  0.88335193652E+02  0.78189158770E+02 0.  0.
         -6    2    1    2    0  502 -0.45032576516E+02 -0.15022264930E+02  0.43306880941E+03  0.46805044343E+03  0.17108191757E+03 0.  0.
        -24    2    5    5    0    0 -0.78801203865E+02 -0.53978945163E+02  0.31561469865E+03  0.33969351428E+03  0.81582408554E+02 0.  0.
          5    1    3    3  501    0  0.79550352339E+01  0.10299234994E+02  0.11337361982E+03  0.11421481733E+03  0.47000000000E+01 0. -1.
        -11    1    4    4    0    0  0.55160294621E+02  0.22914156153E+02 -0.18828211767E+02  0.62627615420E+02  0.00000000000E+00 0.  1.
         12    1    4    4    0    0 -0.18082753339E+02 -0.18191126217E+02  0.17252643863E+01  0.25707578232E+02  0.00000000000E+00 0. -1.
         -5    1    5    5    0  502  0.33768627349E+02  0.38956680233E+02  0.11745411076E+03  0.12835692915E+03  0.47000000000E+01 0.  1.
         13    1    6    6    0    0 -0.79517601615E+02 -0.29627988514E+02  0.29741642692E+03  0.30928530141E+03  0.00000000000E+00 0. -1.
        -14    1    6    6    0    0  0.71639775049E+00 -0.24350956649E+02  0.18198271734E+02  0.30408212864E+02  0.00000000000E+00 0.  1.
</event>
<event>
12    1  0.8113184E-002  0.2683218E+03  0.7818608E-02  0.1102318E+00
         21   -1    0    0  503  502  0.00000000000E+00  0.00000000000E+00  0.14290059896E+04  0.14290059896E+04  0.00000000000E+00 0.  1.
         21   -1    0    0  501  503 -0.00000000000E+00 -0.00000000000E+00 -0.12849657748E+03  0.12849657748E+03  0.00000000000E+00 0. -1.
          6    2    1    2  501    0 -0.16410926444E+03  0.12480925621E+03  0.42943008032E+02  0.27173644518E+03  0.17171893487E+03 0.  0.
         24    2    3    3    0    0 -0.10380837692E+03  0.15448089547E+03  0.28632852537E+02  0.20286356401E+03  0.75453688941E+02 0.  0.
         -6    2    1    2    0  502  0.16410926444E+03 -0.12480925621E+03  0.12575664041E+04  0.12857661219E+04  0.17091535451E+03 0.  0.
        -24    2    5    5    0    0  0.17938800468E+03 -0.97326040139E+02  0.88007425917E+03  0.90693743166E+03  0.79701875634E+02 0.  0.
          5    1    3    3  501    0 -0.60300887513E+02 -0.29671639257E+02  0.14310155495E+02  0.68872881175E+02  0.47000000000E+01 0. -1.
        -13    1    4    4    0    0 -0.36957358030E+02  0.10802701333E+03  0.39327971683E+02  0.12075748953E+03  0.00000000000E+00 0.  1.
         14    1    4    4    0    0 -0.66851018892E+02  0.46453882136E+02 -0.10695119145E+02  0.82106074477E+02  0.00000000000E+00 0. -1.
         -5    1    5    5    0  502 -0.15278740241E+02 -0.27483216069E+02  0.37749214492E+03  0.37882869024E+03  0.47000000000E+01 0.  1.
         13    1    6    6    0    0  0.12785538527E+03 -0.96135624156E+02  0.54743813320E+03  0.57033110335E+03  0.00000000000E+00 0. -1.
        -14    1    6    6    0    0  0.51532619411E+02 -0.11904159835E+01  0.33263612597E+03  0.33660632830E+03  0.00000000000E+00 0.  1.
</event>
<event>
12    1  0.8113184E-002  0.1857681E+03  0.7818608E-02  0.1162915E+00
         21   -1    0    0  503  502  0.00000000000E+00  0.00000000000E+00  0.47956745039E+02  0.47956745039E+02  0.00000000000E+00 0.  1.
         21   -1    0    0  501  503 -0.00000000000E+00 -0.00000000000E+00 -0.74547927907E+03  0.74547927907E+03  0.00000000000E+00 0.  1.
          6    2    1    2  501    0  0.64183961364E+02 -0.80885558264E+01 -0.43304530490E+03  0.47023640449E+03  0.17149062476E+03 0.  0.
         24    2    3    3    0    0  0.64840067142E+01  0.82363281192E+00 -0.38798377203E+03  0.39633550045E+03  0.80670321977E+02 0.  0.
         -6    2    1    2    0  502 -0.64183961364E+02  0.80885558264E+01 -0.26447722913E+03  0.32319961962E+03  0.17414012679E+03 0.  0.
        -24    2    5    5    0    0  0.30857250884E+02  0.22204765219E+02 -0.10766438720E+03  0.13923098972E+03  0.79677014852E+02 0.  0.
          5    1    3    3  501    0  0.57699954650E+02 -0.89121886383E+01 -0.45061532871E+02  0.73900904037E+02  0.47000000000E+01 0. -1.
        -13    1    4    4    0    0  0.30974726273E+02  0.27866802075E+02 -0.25741217402E+03  0.26076238160E+03  0.00000000000E+00 0.  1.
         14    1    4    4    0    0 -0.24490719559E+02 -0.27043169263E+02 -0.13057159801E+03  0.13557311885E+03  0.00000000000E+00 0. -1.
         -5    1    5    5    0  502 -0.95041212247E+02 -0.14116209393E+02 -0.15681284193E+03  0.18396862990E+03  0.47000000000E+01 0.  1.
         13    1    6    6    0    0  0.54316129517E+01 -0.28553608244E+02 -0.21956071034E+02  0.36426364329E+02  0.00000000000E+00 0. -1.
        -14    1    6    6    0    0  0.25425637932E+02  0.50758373463E+02 -0.85708316167E+02  0.10280462539E+03  0.00000000000E+00 0.  1.
</event>
<event>
12    1  0.8113184E-002  0.1873475E+03  0.7818608E-02  0.1161659E+00
         21   -1    0    0  501  502  0.00000000000E+00  0.00000000000E+00  0.39065658874E+02  0.39065658874E+02  0.00000000000E+00 0. -1.
         21   -1    0    0  502  503 -0.00000000000E+00 -0.00000000000E+00 -0.88311001466E+03  0.88311001466E+03  0.00000000000E+00 0. -1.
         -6    2    1    2    0  503 -0.23402856543E+02  0.70761944454E+02 -0.40458924210E+03  0.44445202393E+03  0.16819690924E+03 0.  0.
        -24    2    3    3    0    0 -0.71470775639E+02  0.51668322087E+02 -0.19699047139E+03  0.23045569017E+03  0.80789182678E+02 0.  0.
          6    2    1    2  501    0  0.23402856543E+02 -0.70761944454E+02 -0.43945511369E+03  0.47772364960E+03  0.17188409457E+03 0.  0.
         24    2    5    5    0    0  0.28717205999E+02 -0.11230522063E+01 -0.36764598848E+03  0.37744175649E+03  0.80453511605E+02 0.  0.
          5    1    5    5  501    0 -0.53143494560E+01 -0.69638892247E+02 -0.71809125207E+02  0.10028189311E+03  0.47000000000E+01 0. -1.
        -11    1    6    6    0    0  0.26579821583E+02  0.35741410070E+02 -0.14284993806E+03  0.14963301812E+03  0.00000000000E+00 0.  1.
         12    1    6    6    0    0  0.21373844169E+01 -0.36864462276E+02 -0.22479605042E+03  0.22780873836E+03  0.00000000000E+00 0. -1.
         -5    1    3    3    0  503  0.48067919095E+02  0.19093622367E+02 -0.20759877071E+03  0.21399633376E+03  0.47000000000E+01 0.  1.
         13    1    4    4    0    0 -0.53386707465E+02  0.73730219620E+02 -0.14721687697E+03  0.17308695700E+03  0.00000000000E+00 0. -1.
        -14    1    4    4    0    0 -0.18084068174E+02 -0.22061897533E+02 -0.49773594416E+02  0.57368733170E+02  0.00000000000E+00 0.  1.
</event>
<event>
12    1  0.8113184E-002  0.1887787E+03  0.7818608E-02  0.1159946E+00
         21   -1    0    0  501  502  0.00000000000E+00  0.00000000000E+00  0.18348756256E+03  0.18348756256E+03  0.00000000000E+00 0.  1.
         21   -1    0    0  502  503 -0.00000000000E+00 -0.00000000000E+00 -0.24632988706E+03  0.24632988706E+03  0.00000000000E+00 0.  1.
         -6    2    1    2    0  503 -0.72361073534E+02 -0.16623300212E+01  0.69129616533E+02  0.19948292049E+03  0.17255620354E+03 0.  0.
        -24    2    3    3    0    0 -0.47661507085E+02  0.89407302969E+01  0.11359218208E+03  0.14731489191E+03  0.80292824293E+02 0.  0.
          6    2    1    2  501    0  0.72361073534E+02  0.16623300212E+01 -0.13197194103E+03  0.23033452914E+03  0.17435169569E+03 0.  0.
         24    2    5    5    0    0  0.65186392339E+02 -0.64004552585E+02 -0.79009655835E+02  0.14553647978E+03  0.81194166871E+02 0.  0.
          5    1    5    5  501    0  0.71746811949E+01  0.65666882606E+02 -0.52962285194E+02  0.84798049355E+02  0.47000000000E+01 0. -1.
        -13    1    6    6    0    0  0.10500833829E+02 -0.31092420515E+02 -0.74669839126E+02  0.81563417043E+02  0.00000000000E+00 0.  1.
         14    1    6    6    0    0  0.54685558510E+02 -0.32912132069E+02 -0.43398167088E+01  0.63973062737E+02  0.00000000000E+00 0. -1.
         -5    1    3    3    0  503 -0.24699566449E+02 -0.10603060318E+02 -0.44462565545E+02  0.52168028578E+02  0.47000000000E+01 0.  1.
         13    1    4    4    0    0  0.11046758358E+02  0.26592694101E+02  0.57102050883E+02  0.63951907437E+02  0.00000000000E+00 0. -1.
        -14    1    4    4    0    0 -0.58708265444E+02 -0.17651963804E+02  0.56490131195E+02  0.83362984472E+02  0.00000000000E+00 0.  1.
</event>
<event>
12    1  0.8113184E-002  0.2055777E+03  0.7818608E-02  0.1145399E+00
         21   -1    0    0  501  502  0.00000000000E+00  0.00000000000E+00  0.29516322958E+03  0.29516322958E+03  0.00000000000E+00 0. -1.
         21   -1    0    0  502  503 -0.00000000000E+00 -0.00000000000E+00 -0.10171285956E+04  0.10171285956E+04  0.00000000000E+00 0. -1.
         -6    2    1    2    0  503 -0.44356204968E+02 -0.10216162647E+03 -0.96969945861E+03  0.99125134999E+03  0.17279388873E+03 0.  0.
        -24    2    3    3    0    0 -0.55326059632E+02 -0.90865541587E+02 -0.96514325019E+03  0.97419883463E+03  0.79021240701E+02 0.  0.
          6    2    1    2  501    0  0.44356204968E+02  0.10216162647E+03  0.24773409262E+03  0.32104047516E+03  0.17114419419E+03 0.  0.
         24    2    5    5    0    0  0.10706490896E+02  0.11208696986E+03  0.10240998157E+03  0.17146774051E+03  0.78963687551E+02 0.  0.
          5    1    5    5  501    0  0.33649714072E+02 -0.99253433910E+01  0.14532411105E+03  0.14957273465E+03  0.47000000000E+01 0. -1.
        -11    1    6    6    0    0  0.33112498445E+02  0.43516715659E+02  0.12316306964E+02  0.56052060731E+02  0.00000000000E+00 0.  1.
         12    1    6    6    0    0 -0.22406007548E+02  0.68570254203E+02  0.90093674606E+02  0.11541567978E+03  0.00000000000E+00 0. -1.
         -5    1    3    3    0  503  0.10969854663E+02 -0.11296084883E+02 -0.45562084239E+01  0.17052515363E+02  0.47000000000E+01 0.  1.
         11    1    4    4    0    0 -0.29818488427E+02 -0.32745874748E+02 -0.70630766984E+03  0.70769482056E+03  0.00000000000E+00 0. -1.
        -12    1    4    4    0    0 -0.25507571204E+02 -0.58119666839E+02 -0.25883558035E+03  0.26650401407E+03  0.00000000000E+00 0.  1.
</event>
<event>
12    1  0.8113184E-002  0.2176366E+03  0.7818608E-02  0.1135802E+00
         21   -1    0    0  501  502  0.00000000000E+00  0.00000000000E+00  0.12374214772E+04  0.12374214772E+04  0.00000000000E+00 0. -1.
         21   -1    0    0  502  503 -0.00000000000E+00 -0.00000000000E+00 -0.45501365694E+02  0.45501365694E+02  0.00000000000E+00 0. -1.
         -6    2    1    2    0  503 -0.15519519833E+02 -0.13066880946E+03  0.33889110622E+03  0.40275658308E+03  0.17335077180E+03 0.  0.
        -24    2    3    3    0    0  0.12610373313E+02 -0.26251367352E+02  0.24468423834E+03  0.25925983379E+03  0.80604771064E+02 0.  0.
          6    2    1    2  501    0  0.15519519833E+02  0.13066880946E+03  0.85302900530E+03  0.88016625982E+03  0.17239190174E+03 0.  0.
         24    2    5    5    0    0 -0.36790594347E+02  0.14172272944E+02  0.36251561890E+03  0.37328041143E+03  0.79789037192E+02 0.  0.
          5    1    5    5  501    0  0.52310114180E+02  0.11649653651E+03  0.49051338640E+03  0.50688584839E+03  0.47000000000E+01 0. -1.
        -11    1    6    6    0    0 -0.59549216153E+02  0.17040666083E+02  0.30746543900E+03  0.31364229566E+03  0.00000000000E+00 0.  1.
         12    1    6    6    0    0  0.22758621806E+02 -0.28683931392E+01  0.55050179897E+02  0.59638115768E+02  0.00000000000E+00 0. -1.
         -5    1    3    3    0  503 -0.28129893146E+02 -0.10441744210E+03  0.94206867872E+02  0.14349674929E+03  0.47000000000E+01 0.  1.
         13    1    4    4    0    0  0.55634063965E+01 -0.46911156826E+02  0.78276922620E+02  0.91426936624E+02  0.00000000000E+00 0. -1.
        -14    1    4    4    0    0  0.70469669164E+01  0.20659789474E+02  0.16640731572E+03  0.16783289716E+03  0.00000000000E+00 0.  1.
</event>
<event>
12    1  0.8113184E-002  0.1778291E+03  0.7818608E-02  0.1170355E+00
         21   -1    0    0  501  502  0.00000000000E+00  0.00000000000E+00  0.22021209417E+03  0.22021209417E+03  0.00000000000E+00 0.  1.
         21   -1    0    0  502  503 -0.00000000000E+00 -0.00000000000E+00 -0.16232489833E+03  0.16232489833E+03  0.00000000000E+00 0.  1.
         -6    2    1    2    0  503 -0.31804389098E+02 -0.31929127067E+02 -0.38550618874E+02  0.18024152602E+03  0.17020537349E+03 0.  0.
        -24    2    3    3    0    0 -0.62157163091E+02 -0.64934230708E+02 -0.17301113525E+00  0.12103376866E+03  0.81050453314E+02 0.  0.
          6    2    1    2  501    0  0.31804389098E+02  0.31929127067E+02  0.96437814706E+02  0.20229546649E+03  0.17202388013E+03 0.  0.
         24    2    5    5    0    0  0.21671359441E+02 -0.47847825939E+02  0.60318754184E+02  0.11401343517E+03  0.81250532459E+02 0.  0.
          5    1    5    5  501    0  0.10133029657E+02  0.79776953006E+02  0.36119060522E+02  0.88282031319E+02  0.47000000000E+01 0. -1.
        -13    1    6    6    0    0  0.38456848925E+01  0.13756242179E+02  0.46184831344E+02  0.48343170536E+02  0.00000000000E+00 0.  1.
         14    1    6    6    0    0  0.17825674548E+02 -0.61604068117E+02  0.14133922840E+02  0.65670264630E+02  0.00000000000E+00 0. -1.
         -5    1    3    3    0  503  0.30352773993E+02  0.33005103641E+02 -0.38377607738E+02  0.59207757356E+02  0.47000000000E+01 0.  1.
         13    1    4    4    0    0 -0.49670367932E+02 -0.53448506525E+02  0.35789789239E+02  0.81269904109E+02  0.00000000000E+00 0. -1.
        -14    1    4    4    0    0 -0.12486795159E+02 -0.11485724183E+02 -0.35962800374E+02  0.39763864552E+02  0.00000000000E+00 0.  1.
</event>
<event>
12    1  0.8113184E-002  0.1745602E+03  0.7818608E-02  0.1174071E+00
         21   -1    0    0  503  502  0.00000000000E+00  0.00000000000E+00  0.54016750521E+03  0.54016750521E+03  0.00000000000E+00 0. -1.
         21   -1    0    0  501  503 -0.00000000000E+00 -0.00000000000E+00 -0.15471698840E+03  0.15471698840E+03  0.00000000000E+00 0.  1.
          6    2    1    2  501    0 -0.27994144533E+02  0.13523340535E+02 -0.85110023774E+02  0.19420345627E+03  0.17176936110E+03 0.  0.
         24    2    3    3    0    0 -0.83121506101E+02  0.10265490374E+02 -0.41457324819E+02  0.12365356111E+03  0.80974862298E+02 0.  0.
         -6    2    1    2    0  502  0.27994144533E+02 -0.13523340535E+02  0.47056054059E+03  0.50068103734E+03  0.16818955355E+03 0.  0.
        -24    2    5    5    0    0 -0.81657548697E+01  0.44446562053E+02  0.35232696934E+03  0.36404533446E+03  0.79702796600E+02 0.  0.
          5    1    3    3  501    0  0.55127361568E+02  0.32578501616E+01 -0.43652698955E+02  0.70549895161E+02  0.47000000000E+01 0. -1.
        -13    1    4    4    0    0 -0.40909892125E+02  0.61642248560E+01 -0.63552788274E+02  0.75832538130E+02  0.00000000000E+00 0.  1.
         14    1    4    4    0    0 -0.42211613977E+02  0.41012655178E+01  0.22095463455E+02  0.47821022978E+02  0.00000000000E+00 0. -1.
         -5    1    5    5    0  502  0.36159899403E+02 -0.57969902588E+02  0.11823357125E+03  0.13663570288E+03  0.47000000000E+01 0.  1.
         13    1    6    6    0    0 -0.17571529942E+02  0.32772799350E+02  0.34563225595E+03  0.34762691408E+03  0.00000000000E+00 0. -1.
        -14    1    6    6    0    0  0.94057750718E+01  0.11673762702E+02  0.66947133942E+01  0.16418420380E+02  0.00000000000E+00 0.  1.
</event>
<event>
12    1  0.8113184E-002  0.1739547E+03  0.7818608E-02  0.1173823E+00
         21   -1    0    0  503  502  0.00000000000E+00  0.00000000000E+00  0.53993056123E+02  0.53993056123E+02  0.00000000000E+00 0. -1.
         21   -1    0    0  501  503 -0.00000000000E+00 -0.00000000000E+00 -0.56005523899E+03  0.56005523899E+03  0.00000000000E+00 0. -1.
          6    2    1    2  501    0 -0.17863760547E+02  0.10442599913E+02 -0.25699875745E+03  0.31033625885E+03  0.17271962943E+03 0.  0.
         24    2    3    3    0    0 -0.29051938355E+02  0.25751057972E+02 -0.48007233397E+02  0.10043373067E+03  0.79215577307E+02 0.  0.
         -6    2    1    2    0  502  0.17863760547E+02 -0.10442599913E+02 -0.24906342541E+03  0.30371203626E+03  0.17256954905E+03 0.  0.
        -24    2    5    5    0    0  0.53278813236E+01 -0.65489649253E+02 -0.98907813022E+02  0.14322489086E+03  0.80083290423E+02 0.  0.
          5    1    3    3  501    0  0.11188177808E+02 -0.15308458058E+02 -0.20899152405E+03  0.20990252818E+03  0.47000000000E+01 0. -1.
        -11    1    4    4    0    0 -0.85856445351E+00 -0.56201137044E+01  0.19788155417E+02  0.20588683926E+02  0.00000000000E+00 0.  1.
         12    1    4    4    0    0 -0.28193373902E+02  0.31371171676E+02 -0.67795388815E+02  0.79845046740E+02  0.00000000000E+00 0. -1.
         -5    1    5    5    0  502  0.12535879223E+02  0.55047049339E+02 -0.15015561239E+03  0.16048714541E+03  0.47000000000E+01 0.  1.
         13    1    6    6    0    0 -0.36433974157E+02 -0.29539557267E+02 -0.58020603112E+02  0.74608379568E+02  0.00000000000E+00 0. -1.
        -14    1    6    6    0    0  0.41761855480E+02 -0.35950091986E+02 -0.40887209910E+02  0.68616511287E+02  0.00000000000E+00 0.  1.
</event>
<event>
12    1  0.8113184E-002  0.2001267E+03  0.7818608E-02  0.1150494E+00
         21   -1    0    0  501  502  0.00000000000E+00  0.00000000000E+00  0.24106759076E+04  0.24106759076E+04  0.00000000000E+00 0. -1.
         21   -1    0    0  502  503 -0.00000000000E+00 -0.00000000000E+00 -0.50950380064E+02  0.50950380064E+02  0.00000000000E+00 0.  1.
         -6    2    1    2    0  503 -0.93976863873E+02 -0.19199543145E+02  0.16841792168E+03  0.26156318756E+03  0.17564290859E+03 0.  0.
        -24    2    3    3    0    0 -0.37427364031E+02 -0.18477414994E+02  0.18248452256E+03  0.20309672998E+03  0.78774731410E+02 0.  0.
          6    2    1    2  501    0  0.93976863873E+02  0.19199543145E+02  0.21913076059E+04  0.22000631001E+04  0.17102148284E+03 0.  0.
         24    2    5    5    0    0 -0.67876905736E+01  0.10377345263E+02  0.13940080713E+04  0.13963591966E+04  0.80042121614E+02 0.  0.
          5    1    5    5  501    0  0.10076455445E+03  0.88221978819E+01  0.79729953460E+03  0.80370390348E+03  0.47000000000E+01 0. -1.
        -11    1    6    6    0    0 -0.31216566867E+02  0.17570796664E+02  0.31171280425E+03  0.31376436904E+03  0.00000000000E+00 0.  1.
         12    1    6    6    0    0  0.24428876294E+02 -0.71934514015E+01  0.10822952670E+04  0.10825948276E+04  0.00000000000E+00 0. -1.
         -5    1    3    3    0  503 -0.56549499842E+02 -0.72212815049E+00 -0.14066600880E+02  0.58466457578E+02  0.47000000000E+01 0.  1.
         11    1    4    4    0    0 -0.61736798867E+02 -0.17724856885E+02  0.12131652908E+03  0.13727091139E+03  0.00000000000E+00 0. -1.
        -12    1    4    4    0    0  0.24309434836E+02 -0.75255810884E+00  0.61167993480E+02  0.65825818583E+02  0.00000000000E+00 0.  1.
</event>
<event>
12    1  0.8113184E-002  0.1880700E+03  0.7818608E-02  0.1160562E+00
         21   -1    0    0  503  502  0.00000000000E+00  0.00000000000E+00  0.12313167668E+03  0.12313167668E+03  0.00000000000E+00 0.  1.
         21   -1    0    0  501  503 -0.00000000000E+00 -0.00000000000E+00 -0.30988118180E+03  0.30988118180E+03  0.00000000000E+00 0.  1.
          6    2    1    2  501    0  0.33261847291E+02  0.68342816156E+02 -0.32306309023E+02  0.19082459638E+03  0.17202685248E+03 0.  0.
         24    2    3    3    0    0 -0.29990288535E+01  0.11677104247E+02  0.41330605803E+02  0.90973010162E+02  0.80140630545E+02 0.  0.
         -6    2    1    2    0  502 -0.33261847291E+02 -0.68342816156E+02 -0.15444319610E+03  0.24218826210E+03  0.17036831417E+03 0.  0.
        -24    2    5    5    0    0 -0.37713258521E+02  0.14047510029E+02 -0.30529906390E+02  0.93243392174E+02  0.78374948763E+02 0.  0.
          5    1    3    3  501    0  0.36260876145E+02  0.56665711909E+02 -0.73636914827E+02  0.99851586217E+02  0.47000000000E+01 0. -1.
        -11    1    4    4    0    0 -0.21413964543E+02 -0.21228512075E+02 -0.57053629071E+01  0.30688088378E+02  0.00000000000E+00 0.  1.
         12    1    4    4    0    0  0.18414935690E+02  0.32905616322E+02  0.47035968710E+02  0.60284921784E+02  0.00000000000E+00 0. -1.
         -5    1    5    5    0  502  0.44514112294E+01 -0.82390326185E+02 -0.12391328971E+03  0.14894486993E+03  0.47000000000E+01 0.  1.
         11    1    6    6    0    0 -0.30506433736E+02 -0.22302444306E+02 -0.39966474508E+02  0.55003278137E+02  0.00000000000E+00 0. -1.
        -12    1    6    6    0    0 -0.72068247849E+01  0.36349954335E+02  0.94365681180E+01  0.38240114036E+02  0.00000000000E+00 0.  1.
</event>
<event>
12    1  0.8113184E-002  0.2458012E+03  0.7818608E-02  0.1116008E+00
         21   -1    0    0  501  502  0.00000000000E+00  0.00000000000E+00  0.25431613926E+03  0.25431613926E+03  0.00000000000E+00 0. -1.
         21   -1    0    0  502  503 -0.00000000000E+00 -0.00000000000E+00 -0.33888254204E+03  0.33888254204E+03  0.00000000000E+00 0. -1.
         -6    2    1    2    0  503 -0.15552028896E+03  0.82316082291E+02 -0.20454556813E+03  0.31967863133E+03  0.17144398563E+03 0.  0.
        -24    2    3    3    0    0 -0.98398690103E+02  0.10970216928E+03 -0.19215472459E+03  0.25496002643E+03  0.79776617732E+02 0.  0.
          6    2    1    2  501    0  0.15552028896E+03 -0.82316082291E+02  0.11997916534E+03  0.27352004996E+03  0.17162668770E+03 0.  0.
         24    2    5    5    0    0  0.39631903451E+02 -0.19892808850E+02 -0.60665967365E+01  0.91211500786E+02  0.79475295939E+02 0.  0.
          5    1    5    5  501    0  0.11588838551E+03 -0.62423273441E+02  0.12604576208E+03  0.18230854917E+03  0.47000000000E+01 0. -1.
        -13    1    6    6    0    0 -0.12695348560E+02 -0.34414463782E+02 -0.14353837956E+01  0.36709501755E+02  0.00000000000E+00 0.  1.
         14    1    6    6    0    0  0.52327252011E+02  0.14521654932E+02 -0.46312129410E+01  0.54501999030E+02  0.00000000000E+00 0. -1.
         -5    1    3    3    0  503 -0.57121598858E+02 -0.27386086989E+02 -0.12390843532E+02  0.64718604899E+02  0.47000000000E+01 0.  1.
         13    1    4    4    0    0 -0.72546853884E+02  0.22649417649E+02 -0.99735548268E+02  0.12539227136E+03  0.00000000000E+00 0. -1.
        -14    1    4    4    0    0 -0.25851836219E+02  0.87052751631E+02 -0.92419176327E+02  0.12956775508E+03  0.00000000000E+00 0.  1.
</event>
<event>
12    1  0.8113184E-002  0.1913248E+03  0.7818608E-02  0.1160175E+00
         21   -1    0    0  503  502  0.00000000000E+00  0.00000000000E+00  0.42333152723E+03  0.42333152723E+03  0.00000000000E+00 0. -1.
         21   -1    0    0  501  503 -0.00000000000E+00 -0.00000000000E+00 -0.86242605819E+02  0.86242605819E+02  0.00000000000E+00 0. -1.
          6    2    1    2  501    0  0.22281070362E+02 -0.49094644979E+02  0.11050776259E+03  0.22094605958E+03  0.18357141769E+03 0.  0.
         24    2    3    3    0    0  0.19388893918E+02  0.46554317589E+02  0.66728754153E+02  0.11560954975E+03  0.79809821880E+02 0.  0.
         -6    2    1    2    0  502 -0.22281070362E+02  0.49094644979E+02  0.22658115882E+03  0.28862807346E+03  0.17047115004E+03 0.  0.
        -24    2    5    5    0    0  0.40914198237E+01 -0.26732022082E+02  0.17181478978E+03  0.19133142987E+03  0.79724860297E+02 0.  0.
          5    1    3    3  501    0  0.28921764442E+01 -0.95648962568E+02  0.43779008435E+02  0.10533650984E+03  0.47000000000E+01 0. -1.
        -13    1    4    4    0    0  0.19573874114E+02 -0.18784472942E+02  0.30797808154E+02  0.41042635864E+02  0.00000000000E+00 0.  1.
         14    1    4    4    0    0 -0.18498019608E+00  0.65338790532E+02  0.35930945999E+02  0.74566913884E+02  0.00000000000E+00 0. -1.
         -5    1    5    5    0  502 -0.26372490186E+02  0.75826667061E+02  0.54766369045E+02  0.97296643593E+02  0.47000000000E+01 0.  1.
         13    1    6    6    0    0 -0.99252326478E+01  0.19278524064E+02  0.11437861499E+03  0.11641580348E+03  0.00000000000E+00 0. -1.
        -14    1    6    6    0    0  0.14016652471E+02 -0.46010546146E+02  0.57436174789E+02  0.74915626391E+02  0.00000000000E+00 0.  1.
</event>
<event>
12    1  0.8113184E-002  0.1881175E+03  0.7818608E-02  0.1160492E+00
         21   -1    0    0  503  502  0.00000000000E+00  0.00000000000E+00  0.57764735028E+02  0.57764735028E+02  0.00000000000E+00 0. -1.
         21   -1    0    0  501  503 -0.00000000000E+00 -0.00000000000E+00 -0.65619826051E+03  0.65619826051E+03  0.00000000000E+00 0. -1.
          6    2    1    2  501    0  0.48705354652E+02 -0.60634080432E+02 -0.39693894946E+03  0.43925928542E+03  0.17128773145E+03 0.  0.
         24    2    3    3    0    0  0.77964822232E+01 -0.28899980059E+02 -0.78690359894E+02  0.11679247514E+03  0.80946374385E+02 0.  0.
         -6    2    1    2    0  502 -0.48705354652E+02  0.60634080432E+02 -0.20149457602E+03  0.27470371012E+03  0.16974498787E+03 0.  0.
        -24    2    5    5    0    0 -0.55621275048E+02  0.10299084601E+03 -0.13662420858E+03  0.19677951544E+03  0.79719274501E+02 0.  0.
          5    1    3    3  501    0  0.40908872429E+02 -0.31734100372E+02 -0.31824858957E+03  0.32246681028E+03  0.47000000000E+01 0. -1.
        -13    1    4    4    0    0  0.22934899899E+02  0.21484024393E+02 -0.17046814276E+02  0.35751458913E+02  0.00000000000E+00 0.  1.
         14    1    4    4    0    0 -0.15138417676E+02 -0.50384004452E+02 -0.61643545618E+02  0.81041016224E+02  0.00000000000E+00 0. -1.
         -5    1    5    5    0  502  0.69159203964E+01 -0.42356765576E+02 -0.64870367441E+02  0.77924194682E+02  0.47000000000E+01 0.  1.
         13    1    6    6    0    0 -0.67920678877E+02  0.61338254811E+02 -0.11848274725E+03  0.14971226242E+03  0.00000000000E+00 0. -1.
        -14    1    6    6    0    0  0.12299403829E+02  0.41652591197E+02 -0.18141461335E+02  0.47067253025E+02  0.00000000000E+00 0.  1.
</event>
<event>
12    1  0.8113184E-002  0.4115222E+03  0.7818608E-02  0.1039904E+00
         21   -1    0    0  503  502  0.00000000000E+00  0.00000000000E+00  0.14333330795E+04  0.14333330795E+04  0.00000000000E+00 0.  1.
         21   -1    0    0  501  503 -0.00000000000E+00 -0.00000000000E+00 -0.12237600458E+03  0.12237600458E+03  0.00000000000E+00 0.  1.
          6    2    1    2  501    0  0.30043349675E+02 -0.37272479764E+03  0.80210015202E+03  0.90127355316E+03  0.17059597331E+03 0.  0.
         24    2    3    3    0    0 -0.16550574055E+02 -0.90701581226E+02  0.18535242037E+03  0.22148833500E+03  0.78745567915E+02 0.  0.
         -6    2    1    2    0  502 -0.30043349675E+02  0.37272479764E+03  0.50885692287E+03  0.65443553090E+03  0.17182583773E+03 0.  0.
        -24    2    5    5    0    0 -0.34511682653E+02  0.15034731836E+03  0.31326331449E+03  0.35820815382E+03  0.79898716394E+02 0.  0.
          5    1    3    3  501    0  0.46593923730E+02 -0.28202321642E+03  0.61674773165E+03  0.67978521816E+03  0.47000000000E+01 0. -1.
        -13    1    4    4    0    0 -0.11795505955E+02 -0.65072182152E+02  0.48080552999E+02  0.81763454106E+02  0.00000000000E+00 0.  1.
         14    1    4    4    0    0 -0.47550680999E+01 -0.25629399074E+02  0.13727186737E+03  0.13972488090E+03  0.00000000000E+00 0. -1.
         -5    1    5    5    0  502  0.44683329778E+01  0.22237747928E+03  0.19559360838E+03  0.29622737707E+03  0.47000000000E+01 0.  1.
         13    1    6    6    0    0 -0.59148496659E+01 -0.13678203622E+01 -0.26224228007E+01  0.66131293998E+01  0.00000000000E+00 0. -1.
        -14    1    6    6    0    0 -0.28596832987E+02  0.15171513873E+03  0.31588573729E+03  0.35159502442E+03  0.00000000000E+00 0.  1.
</event>
<event>
12    1  0.8113184E-002  0.2059852E+03  0.7818608E-02  0.1145641E+00
         21   -1    0    0  503  502  0.00000000000E+00  0.00000000000E+00  0.13099165727E+03  0.13099165727E+03  0.00000000000E+00 0.  1.
         21   -1    0    0  501  503 -0.00000000000E+00 -0.00000000000E+00 -0.44741808462E+03  0.44741808462E+03  0.00000000000E+00 0.  1.
          6    2    1    2  501    0  0.77699823418E+02  0.80634869627E+02 -0.31296773374E+03  0.37239548498E+03  0.16789982166E+03 0.  0.
         24    2    3    3    0    0  0.89831495383E+02  0.25089861567E+02 -0.28272075755E+03  0.30782463278E+03  0.78267356424E+02 0.  0.
         -6    2    1    2    0  502 -0.77699823418E+02 -0.80634869627E+02 -0.34586936162E+01  0.20601425691E+03  0.17288917470E+03 0.  0.
        -24    2    5    5    0    0  0.37767688964E+01 -0.72012092416E+02  0.38351849151E+02  0.11391106006E+03  0.79403147508E+02 0.  0.
          5    1    3    3  501    0 -0.12131671966E+02  0.55545008061E+02 -0.30246976185E+02  0.64570852197E+02  0.47000000000E+01 0. -1.
        -13    1    4    4    0    0  0.15886899362E+02 -0.25762774828E+02 -0.50628256123E+02  0.58985883533E+02  0.00000000000E+00 0.  1.
         14    1    4    4    0    0  0.73944596021E+02  0.50852636395E+02 -0.23209250143E+03  0.24883874925E+03  0.00000000000E+00 0. -1.
         -5    1    5    5    0  502 -0.81476592314E+02 -0.86227772115E+01 -0.41810542767E+02  0.92103196842E+02  0.47000000000E+01 0.  1.
         11    1    6    6    0    0 -0.26353075773E+02 -0.49725895110E+02  0.49354071220E+02  0.74853013254E+02  0.00000000000E+00 0. -1.
        -12    1    6    6    0    0  0.30129844669E+02 -0.22286197306E+02 -0.11002222069E+02  0.39058046810E+02  0.00000000000E+00 0.  1.
</event>
<event>
12    1  0.8113184E-002  0.1721912E+03  0.7818608E-02  0.1175584E+00
         21   -1    0    0  501  502  0.00000000000E+00  0.00000000000E+00  0.13535757405E+04  0.13535757405E+04  0.00000000000E+00 0. -1.
         21   -1    0    0  502  503 -0.00000000000E+00 -0.00000000000E+00 -0.30427310749E+02  0.30427310749E+02  0.00000000000E+00 0. -1.
         -6    2    1    2    0  503 -0.37988137908E+00 -0.34580483117E+01  0.29530926327E+03  0.34184031489E+03  0.17214859134E+03 0.  0.
        -24    2    3    3    0    0 -0.56388036774E+02  0.28145705479E+02  0.21651957558E+03  0.24002864753E+03  0.82226720693E+02 0.  0.
          6    2    1    2  501    0  0.37988137908E+00  0.34580483117E+01  0.10278391665E+04  0.10421627364E+04  0.17215607598E+03 0.  0.
         24    2    5    5    0    0  0.16374139903E+02  0.58554690950E+02  0.42764501792E+03  0.43921451113E+03  0.79576134295E+02 0.  0.
          5    1    5    5  501    0 -0.15994258524E+02 -0.55096642639E+02  0.60019414858E+03  0.60294822524E+03  0.47000000000E+01 0. -1.
        -13    1    6    6    0    0  0.42219365785E+02  0.60973874043E+02  0.32088377278E+03  0.32934280590E+03  0.00000000000E+00 0.  1.
         14    1    6    6    0    0 -0.25845225882E+02 -0.24191830931E+01  0.10676124514E+03  0.10987170524E+03  0.00000000000E+00 0. -1.
         -5    1    3    3    0  503  0.56008155395E+02 -0.31603753791E+02  0.78789687683E+02  0.10181166735E+03  0.47000000000E+01 0.  1.
         13    1    4    4    0    0  0.21357736884E+01  0.28907915748E+02  0.20620043189E+02  0.35572676358E+02  0.00000000000E+00 0. -1.
        -14    1    4    4    0    0 -0.58523810463E+02 -0.76221026855E+00  0.19589953240E+03  0.20445597117E+03  0.00000000000E+00 0.  1.
</event>
<event>
12    1  0.8113184E-002  0.2122214E+03  0.7818608E-02  0.1140906E+00
         21   -1    0    0  501  502  0.00000000000E+00  0.00000000000E+00  0.12200105823E+03  0.12200105823E+03  0.00000000000E+00 0. -1.
         21   -1    0    0  502  503 -0.00000000000E+00 -0.00000000000E+00 -0.39809866273E+03  0.39809866273E+03  0.00000000000E+00 0. -1.
         -6    2    1    2    0  503 -0.12111641389E+03  0.34540004082E+02 -0.55623706756E+02  0.21408228404E+03  0.16393605457E+03 0.  0.
        -24    2    3    3    0    0 -0.68379702100E+02 -0.21719490735E+02 -0.79287943574E+02  0.13328390762E+03  0.79564452470E+02 0.  0.
          6    2    1    2  501    0  0.12111641389E+03 -0.34540004082E+02 -0.22047389775E+03  0.30601743693E+03  0.17080905866E+03 0.  0.
         24    2    5    5    0    0  0.82877870035E+02  0.45677430207E+02 -0.12185995728E+03  0.17318738665E+03  0.78669261704E+02 0.  0.
          5    1    5    5  501    0  0.38238543854E+02 -0.80217434289E+02 -0.98613940471E+02  0.13283005027E+03  0.47000000000E+01 0. -1.
        -13    1    6    6    0    0 -0.96834752321E+01  0.26682070256E+02 -0.24237211529E+02  0.37324857514E+02  0.00000000000E+00 0.  1.
         14    1    6    6    0    0  0.92561345267E+02  0.18995359951E+02 -0.97622745748E+02  0.13586252914E+03  0.00000000000E+00 0. -1.
         -5    1    3    3    0  503 -0.52736711789E+02  0.56259494817E+02  0.23664236818E+02  0.80798376416E+02  0.47000000000E+01 0.  1.
         11    1    4    4    0    0 -0.70154650393E+01  0.27202930922E+02 -0.27120947879E+02  0.39048201166E+02  0.00000000000E+00 0. -1.
        -12    1    4    4    0    0 -0.61364237061E+02 -0.48922421656E+02 -0.52166995696E+02  0.94235706453E+02  0.00000000000E+00 0.  1.
</event>
<event>
12    1  0.8113184E-002  0.1769139E+03  0.7818608E-02  0.1170902E+00
         21   -1    0    0  503  502  0.00000000000E+00  0.00000000000E+00  0.80148692462E+03  0.80148692462E+03  0.00000000000E+00 0. -1.
         21   -1    0    0  501  503 -0.00000000000E+00 -0.00000000000E+00 -0.10814920094E+03  0.10814920094E+03  0.00000000000E+00 0. -1.
          6    2    1    2  501    0  0.34731957853E+02  0.21922777332E+02 -0.17172771692E+02  0.17743143511E+03  0.17175591115E+03 0.  0.
         24    2    3    3    0    0  0.36718047789E+02 -0.49956562925E+02 -0.67638615378E+01  0.10462333447E+03  0.84002494484E+02 0.  0.
         -6    2    1    2    0  502 -0.34731957853E+02 -0.21922777332E+02  0.71051049537E+03  0.73220469044E+03  0.17208029406E+03 0.  0.
        -24    2    5    5    0    0  0.15803430401E+01 -0.72936139694E+02  0.35289751720E+03  0.36912057003E+03  0.79944728500E+02 0.  0.
          5    1    3    3  501    0 -0.19860899361E+01  0.71879340257E+02 -0.10408910155E+02  0.72808100645E+02  0.47000000000E+01 0. -1.
        -13    1    4    4    0    0  0.21481549180E+01  0.21461786021E+02  0.95989393215E+01  0.23608525258E+02  0.00000000000E+00 0.  1.
         14    1    4    4    0    0  0.34569892871E+02 -0.71418348946E+02 -0.16362800859E+02  0.81014809209E+02  0.00000000000E+00 0. -1.
         -5    1    5    5    0  502 -0.36312300893E+02  0.51013362362E+02  0.35761297817E+03  0.36308412041E+03  0.47000000000E+01 0.  1.
         11    1    6    6    0    0  0.25051176675E+02  0.17350755206E+01  0.46099628824E+02  0.52495216140E+02  0.00000000000E+00 0. -1.
        -12    1    6    6    0    0 -0.23470833635E+02 -0.74671215215E+02  0.30679788838E+03  0.31662535389E+03  0.00000000000E+00 0.  1.
</event>
<event>
12    1  0.8113184E-002  0.1898213E+03  0.7818608E-02  0.1161434E+00
         21   -1    0    0  503  502  0.00000000000E+00  0.00000000000E+00  0.69198648267E+02  0.69198648267E+02  0.00000000000E+00 0. -1.
         21   -1    0    0  501  503 -0.00000000000E+00 -0.00000000000E+00 -0.50404756226E+03  0.50404756226E+03  0.00000000000E+00 0. -1.
          6    2    1    2  501    0  0.17817923197E+02 -0.42334592846E+02 -0.27504435164E+03  0.33418783683E+03  0.18418039738E+03 0.  0.
         24    2    3    3    0    0 -0.43497097076E+02 -0.49133861098E+02 -0.23913524780E+03  0.26265242254E+03  0.86570748893E+02 0.  0.
         -6    2    1    2    0  502 -0.17817923197E+02  0.42334592846E+02 -0.15980456235E+03  0.23905837370E+03  0.17176062339E+03 0.  0.
        -24    2    5    5    0    0 -0.62715997403E+02 -0.65000858053E+01 -0.13195100690E+03  0.16695724016E+03  0.80548770151E+02 0.  0.
          5    1    3    3  501    0  0.61315020272E+02  0.67992682513E+01 -0.35909103844E+02  0.71535414297E+02  0.47000000000E+01 0. -1.
        -13    1    4    4    0    0  0.21305284653E+02 -0.19505037200E+00 -0.21100775832E+02  0.29986595998E+02  0.00000000000E+00 0.  1.
         14    1    4    4    0    0 -0.64802381729E+02 -0.48938810726E+02 -0.21803447197E+03  0.23266582654E+03  0.00000000000E+00 0. -1.
         -5    1    5    5    0  502  0.44898074206E+02  0.48834678652E+02 -0.27853555452E+02  0.72101133540E+02  0.47000000000E+01 0.  1.
         13    1    6    6    0    0  0.81019396957E+01 -0.26797876238E+02 -0.28441895594E+02  0.39908758722E+02  0.00000000000E+00 0. -1.
        -14    1    6    6    0    0 -0.70817937099E+02  0.20297790433E+02 -0.10350911131E+03  0.12704848143E+03  0.00000000000E+00 0.  1.
</event>
<event>
12    1  0.8113184E-002  0.1963407E+03  0.7818608E-02  0.1153108E+00
         21   -1    0    0  501  502  0.00000000000E+00  0.00000000000E+00  0.26369469880E+03  0.26369469880E+03  0.00000000000E+00 0.  1.
         21   -1    0    0  502  503 -0.00000000000E+00 -0.00000000000E+00 -0.14599278832E+03  0.14599278832E+03  0.00000000000E+00 0.  1.
         -6    2    1    2    0  503 -0.28305230607E+02 -0.88575339272E+02  0.45105129771E+02  0.20035534876E+03  0.17164211674E+03 0.  0.
        -24    2    3    3    0    0 -0.17812774395E+01  0.13070619478E+02  0.49999387465E+02  0.95086812245E+02  0.79796923958E+02 0.  0.
          6    2    1    2  501    0  0.28305230607E+02  0.88575339272E+02  0.72596780701E+02  0.20933213836E+03  0.17292447709E+03 0.  0.
         24    2    5    5    0    0  0.77322911124E+02  0.79749449056E+02  0.25470886313E+02  0.14060391080E+03  0.82352209893E+02 0.  0.
          5    1    5    5  501    0 -0.49017680517E+02  0.88258902156E+01  0.47125894388E+02  0.68728227557E+02  0.47000000000E+01 0. -1.
        -13    1    6    6    0    0  0.78921867737E+02  0.87848794739E+02  0.39331420102E+02  0.12447101089E+03  0.00000000000E+00 0.  1.
         14    1    6    6    0    0 -0.15989566130E+01 -0.80993456831E+01 -0.13860533790E+02  0.16132899915E+02  0.00000000000E+00 0. -1.
         -5    1    3    3    0  503 -0.26523953168E+02 -0.10164595875E+03 -0.48942576940E+01  0.10526853652E+03  0.47000000000E+01 0.  1.
         13    1    4    4    0    0 -0.18782772337E+02 -0.10700598087E+02  0.60332689997E+02  0.64088445280E+02  0.00000000000E+00 0. -1.
        -14    1    4    4    0    0  0.17001494898E+02  0.23771217564E+02 -0.10333302532E+02  0.30998366965E+02  0.00000000000E+00 0.  1.
</event>
<event>
12    1  0.8113184E-002  0.1862793E+03  0.7818608E-02  0.1161900E+00
         21   -1    0    0  503  502  0.00000000000E+00  0.00000000000E+00  0.84541253769E+02  0.84541253769E+02  0.00000000000E+00 0. -1.
         21   -1    0    0  501  503 -0.00000000000E+00 -0.00000000000E+00 -0.53426719960E+03  0.53426719960E+03  0.00000000000E+00 0. -1.
          6    2    1    2  501    0  0.67256319438E+02  0.17335161042E+02 -0.37411792858E+03  0.41792847462E+03  0.17284694125E+03 0.  0.
         24    2    3    3    0    0  0.96551040725E+02  0.55885058304E+02 -0.29613774664E+03  0.32601942148E+03  0.78395503620E+02 0.  0.
         -6    2    1    2    0  502 -0.67256319438E+02 -0.17335161042E+02 -0.75608017253E+02  0.20087997875E+03  0.17266230995E+03 0.  0.
        -24    2    5    5    0    0  0.24464386877E+02 -0.36707956067E+02 -0.27448070780E+02  0.95383705841E+02  0.79991715113E+02 0.  0.
          5    1    3    3  501    0 -0.29294721287E+02 -0.38549897262E+02 -0.77980181938E+02  0.91909053141E+02  0.47000000000E+01 0. -1.
        -13    1    4    4    0    0  0.51312767863E+02  0.48430124378E+02 -0.87504337759E+02  0.11240767865E+03  0.00000000000E+00 0.  1.
         14    1    4    4    0    0  0.45238272862E+02  0.74549339258E+01 -0.20863340889E+03  0.21361174283E+03  0.00000000000E+00 0. -1.
         -5    1    5    5    0  502 -0.91720706314E+02  0.19372795025E+02 -0.48159946473E+02  0.10549627291E+03  0.47000000000E+01 0.  1.
         11    1    6    6    0    0 -0.10914207142E+01  0.17088478928E+01 -0.45714165622E+02  0.45759111648E+02  0.00000000000E+00 0. -1.
        -12    1    6    6    0    0  0.25555807591E+02 -0.38416803959E+02  0.18266094842E+02  0.49624594193E+02  0.00000000000E+00 0.  1.
</event>
<event>
12    1  0.8113184E-002  0.2569188E+03  0.7818608E-02  0.1109204E+00
         21   -1    0    0  501  502  0.00000000000E+00  0.00000000000E+00  0.26111273384E+03  0.26111273384E+03  0.00000000000E+00 0. -1.
         21   -1    0    0  502  503 -0.00000000000E+00 -0.00000000000E+00 -0.25602006369E+03  0.25602006369E+03  0.00000000000E+00 0. -1.
         -6    2    1    2    0  503  0.17994580235E+03  0.60829192785E+02  0.36757261773E+02  0.25953489884E+03  0.17299301993E+03 0.  0.
        -24    2    3    3    0    0  0.78763922436E+02 -0.28673272119E+02 -0.10156136318E+02  0.11645652532E+03  0.80206378638E+02 0.  0.
          6    2    1    2  501    0 -0.17994580235E+03 -0.60829192785E+02 -0.31664591619E+02  0.25759789869E+03  0.17109456030E+03 0.  0.
         24    2    5    5    0    0 -0.15032970501E+03 -0.10516376539E+03 -0.10462082102E+02  0.20002790686E+03  0.79014369580E+02 0.  0.
          5    1    5    5  501    0 -0.29616097340E+02  0.44334572601E+02 -0.21202509518E+02  0.57569991829E+02  0.47000000000E+01 0. -1.
        -13    1    6    6    0    0 -0.28032379710E+02  0.95544261228E+01  0.96423150450E+01  0.31146036829E+02  0.00000000000E+00 0.  1.
         14    1    6    6    0    0 -0.12229732530E+03 -0.11471819151E+03 -0.20104397147E+02  0.16888187003E+03  0.00000000000E+00 0. -1.
         -5    1    3    3    0  503  0.10118187992E+03  0.89502464904E+02  0.46913398092E+02  0.14307837352E+03  0.47000000000E+01 0.  1.
         13    1    4    4    0    0  0.73087065020E+02 -0.33085385423E+02  0.22255795167E+02  0.83256724775E+02  0.00000000000E+00 0. -1.
        -14    1    4    4    0    0  0.56768574167E+01  0.44121133038E+01 -0.32411931485E+02  0.33199800550E+02  0.00000000000E+00 0.  1.
</event>
<event>
12    1  0.8113184E-002  0.1773735E+03  0.7818608E-02  0.1170918E+00
         21   -1    0    0  503  502  0.00000000000E+00  0.00000000000E+00  0.71228693742E+03  0.71228693742E+03  0.00000000000E+00 0. -1.
         21   -1    0    0  501  503 -0.00000000000E+00 -0.00000000000E+00 -0.91809370494E+02  0.91809370494E+02  0.00000000000E+00 0. -1.
          6    2    1    2  501    0  0.27511799535E+02 -0.30199327787E+02  0.18038989516E+02  0.17608865244E+03  0.17033176411E+03 0.  0.
         24    2    3    3    0    0 -0.42261901507E+02 -0.80302226478E+01  0.40705706350E+02  0.99305134473E+02  0.79711996641E+02 0.  0.
         -6    2    1    2    0  502 -0.27511799535E+02  0.30199327787E+02  0.60243857741E+03  0.62800765548E+03  0.17260497463E+03 0.  0.
        -24    2    5    5    0    0  0.15065539769E+02  0.73584936097E+02  0.29839655898E+03  0.31791286384E+03  0.79914762534E+02 0.  0.
          5    1    3    3  501    0  0.69773701042E+02 -0.22169105140E+02 -0.22666716833E+02  0.76783517970E+02  0.47000000000E+01 0. -1.
        -11    1    4    4    0    0  0.55002627734E+00 -0.24475039266E+02 -0.13775403839E+02  0.28090778325E+02  0.00000000000E+00 0.  1.
         12    1    4    4    0    0 -0.42811927784E+02  0.16444816618E+02  0.54481110189E+02  0.71214356148E+02  0.00000000000E+00 0. -1.
         -5    1    5    5    0  502 -0.42577339305E+02 -0.43385608310E+02  0.30404201843E+03  0.31009479164E+03  0.47000000000E+01 0.  1.
         13    1    6    6    0    0  0.28748857986E+02  0.64621017291E+02  0.29184273818E+03  0.30029078663E+03  0.00000000000E+00 0. -1.
        -14    1    6    6    0    0 -0.13683318216E+02  0.89639188062E+01  0.65538208075E+01  0.17622077203E+02  0.00000000000E+00 0.  1.
</event>
<event>
12    1  0.8113184E-002  0.2065770E+03  0.7818608E-02  0.1144412E+00
         21   -1    0    0  503  502  0.00000000000E+00  0.00000000000E+00  0.10824102968E+03  0.10824102968E+03  0.00000000000E+00 0.  1.
         21   -1    0    0  501  503 -0.00000000000E+00 -0.00000000000E+00 -0.60349014709E+03  0.60349014709E+03  0.00000000000E+00 0.  1.
          6    2    1    2  501    0 -0.11264490829E+03  0.10065544794E+01 -0.45787577071E+03  0.50231891084E+03  0.17315940131E+03 0.  0.
         24    2    3    3    0    0 -0.51302908991E+01  0.33100996404E+02 -0.26552594790E+03  0.27958590813E+03  0.80884208428E+02 0.  0.
         -6    2    1    2    0  502  0.11264490829E+03 -0.10065544794E+01 -0.37373346690E+02  0.20941226594E+03  0.17253069746E+03 0.  0.
        -24    2    5    5    0    0  0.12326933065E+03  0.13273250106E+01  0.22387051742E+02  0.14848837436E+03  0.79690197418E+02 0.  0.
          5    1    3    3  501    0 -0.10751461739E+03 -0.32094441925E+02 -0.19234982282E+03  0.22273300270E+03  0.47000000000E+01 0. -1.
        -11    1    4    4    0    0 -0.35314255707E+02  0.43104849258E+02 -0.16592029612E+03  0.17502762454E+03  0.00000000000E+00 0.  1.
         12    1    4    4    0    0  0.30183964808E+02 -0.10003852853E+02 -0.99605651777E+02  0.10455828360E+03  0.00000000000E+00 0. -1.
         -5    1    5    5    0  502 -0.10624422359E+02 -0.23338794900E+01 -0.59760398433E+02  0.60923891576E+02  0.47000000000E+01 0.  1.
         13    1    6    6    0    0 -0.77544904324E+00 -0.37828958885E+01 -0.17630352319E+02  0.18048294807E+02  0.00000000000E+00 0. -1.
        -14    1    6    6    0    0  0.12404477969E+03  0.51102208991E+01  0.40017404062E+02  0.13044007955E+03  0.00000000000E+00 0.  1.
</event>
<event>
12    1  0.8113184E-002  0.1911171E+03  0.7818608E-02  0.1157498E+00
         21   -1    0    0  503  502  0.00000000000E+00  0.00000000000E+00  0.98327065035E+03  0.98327065035E+03  0.00000000000E+00 0. -1.
         21   -1    0    0  501  503 -0.00000000000E+00 -0.00000000000E+00 -0.37507170705E+02  0.37507170705E+02  0.00000000000E+00 0. -1.
          6    2    1    2  501    0  0.73670964880E+02  0.39503502652E+02  0.52550938423E+03  0.55918321990E+03  0.17186571127E+03 0.  0.
         24    2    3    3    0    0  0.10374841978E+01  0.68380639309E+01  0.10965105023E+03  0.13574149148E+03  0.79715520456E+02 0.  0.
         -6    2    1    2    0  502 -0.73670964880E+02 -0.39503502652E+02  0.42025409541E+03  0.46159460115E+03  0.17166284781E+03 0.  0.
        -24    2    5    5    0    0 -0.79704595421E+02 -0.50739214077E+02  0.42904839657E+03  0.44540585069E+03  0.73324994698E+02 0.  0.
          5    1    3    3  501    0  0.72633480683E+02  0.32665438722E+02  0.41585833401E+03  0.42344172842E+03  0.47000000000E+01 0. -1.
        -11    1    4    4    0    0  0.11838176144E+02 -0.33499447764E+02  0.33188714140E+02  0.48619401077E+02  0.00000000000E+00 0.  1.
         12    1    4    4    0    0 -0.10800691946E+02  0.40337511695E+02  0.76462336086E+02  0.87122090402E+02  0.00000000000E+00 0. -1.
         -5    1    5    5    0  502  0.60336305410E+01  0.11235711424E+02 -0.87943011651E+01  0.16188750467E+02  0.47000000000E+01 0.  1.
         13    1    6    6    0    0 -0.30706253190E+02 -0.29220947152E+02  0.66033433763E+02  0.78467522657E+02  0.00000000000E+00 0. -1.
        -14    1    6    6    0    0 -0.48998342231E+02 -0.21518266924E+02  0.36301496281E+03  0.36693832803E+03  0.00000000000E+00 0.  1.
</event>
<event>
12    1  0.8113184E-002  0.2559739E+03  0.7818608E-02  0.1109637E+00
         21   -1    0    0  501  502  0.00000000000E+00  0.00000000000E+00  0.38406703794E+03  0.38406703794E+03  0.00000000000E+00 0.  1.
         21   -1    0    0  502  503 -0.00000000000E+00 -0.00000000000E+00 -0.21261017940E+03  0.21261017940E+03  0.00000000000E+00 0.  1.
         -6    2    1    2    0  503  0.18524498309E+03 -0.18151155425E+02 -0.47271202998E+02  0.25998057714E+03  0.17524316151E+03 0.  0.
        -24    2    3    3    0    0  0.18219852627E+03 -0.22239863815E+01  0.10300822210E+02  0.19998404642E+03  0.81769571314E+02 0.  0.
          6    2    1    2  501    0 -0.18524498309E+03  0.18151155425E+02  0.21872806154E+03  0.33669664020E+03  0.17571993176E+03 0.  0.
         24    2    5    5    0    0 -0.17316046454E+03  0.63289713884E+02  0.20697165695E+03  0.28828354180E+03  0.79246446769E+02 0.  0.
          5    1    5    5  501    0 -0.12084518543E+02 -0.45138558459E+02  0.11756404586E+02  0.48413098403E+02  0.47000000000E+01 0. -1.
        -11    1    6    6    0    0 -0.67115574142E+02  0.66475709017E+02  0.10240734962E+03  0.13932259486E+03  0.00000000000E+00 0.  1.
         12    1    6    6    0    0 -0.10604489040E+03 -0.31859951334E+01  0.10456430733E+03  0.14896094694E+03  0.00000000000E+00 0. -1.
         -5    1    3    3    0  503  0.30464568182E+01 -0.15927169043E+02 -0.57572025207E+02  0.59996530728E+02  0.47000000000E+01 0.  1.
         11    1    4    4    0    0  0.11431310372E+03  0.25646905030E+02 -0.23010762444E+02  0.11939323519E+03  0.00000000000E+00 0. -1.
        -12    1    4    4    0    0  0.67885422547E+02 -0.27870891412E+02  0.33311584653E+02  0.80590811229E+02  0.00000000000E+00 0.  1.
</event>
<event>
12    1  0.8113184E-002  0.2393292E+03  0.7818608E-02  0.1121429E+00
         21   -1    0    0  503  502  0.00000000000E+00  0.00000000000E+00  0.12696277601E+04  0.12696277601E+04  0.00000000000E+00 0. -1.
         21   -1    0    0  501  503 -0.00000000000E+00 -0.00000000000E+00 -0.45761909654E+02  0.45761909654E+02  0.00000000000E+00 0.  1.
          6    2    1    2  501    0  0.10931341218E+03 -0.11198918982E+03  0.73924526807E+03  0.77489397690E+03  0.17171519544E+03 0.  0.
         24    2    3    3    0    0  0.89476356571E+02 -0.11954160739E+03  0.39395127025E+03  0.42891625692E+03  0.80469483901E+02 0.  0.
         -6    2    1    2    0  502 -0.10931341218E+03  0.11198918982E+03  0.48462058233E+03  0.54049569281E+03  0.18107314658E+03 0.  0.
        -24    2    5    5    0    0 -0.36911115447E+02  0.13039599574E+03  0.38739714461E+03  0.41779528564E+03  0.78171650288E+02 0.  0.
          5    1    3    3  501    0  0.19837055613E+02  0.75524175644E+01  0.34529399782E+03  0.34597771997E+03  0.47000000000E+01 0. -1.
        -11    1    4    4    0    0  0.63449084865E+02 -0.21287992863E+02  0.13354222753E+03  0.14937366416E+03  0.00000000000E+00 0.  1.
         12    1    4    4    0    0  0.26027271706E+02 -0.98253614523E+02  0.26040904271E+03  0.27954259276E+03  0.00000000000E+00 0. -1.
         -5    1    5    5    0  502 -0.72402296737E+02 -0.18406805915E+02  0.97223437726E+02  0.12270040717E+03  0.47000000000E+01 0.  1.
         13    1    6    6    0    0 -0.13746521413E+02  0.92551423086E+01  0.14382725731E+03  0.14477881218E+03  0.00000000000E+00 0. -1.
        -14    1    6    6    0    0 -0.23164594034E+02  0.12114085343E+03  0.24356988729E+03  0.27301647346E+03  0.00000000000E+00 0.  1.
</event>
<event>
12    1  0.8113184E-002  0.2875005E+03  0.7818608E-02  0.1091682E+00
         21   -1    0    0  501  502  0.00000000000E+00  0.00000000000E+00  0.35841096386E+03  0.35841096386E+03  0.00000000000E+00 0. -1.
         21   -1    0    0  502  503 -0.00000000000E+00 -0.00000000000E+00 -0.23136731159E+03  0.23136731159E+03  0.00000000000E+00 0. -1.
         -6    2    1    2    0  503  0.13731306875E+03  0.18520240788E+03  0.81595988362E+02  0.29870781747E+03  0.17150406457E+03 0.  0.
        -24    2    3    3    0    0  0.15138184043E+03  0.19847593583E+03  0.58177542008E+02  0.26797297550E+03  0.78203136061E+02 0.  0.
          6    2    1    2  501    0 -0.13731306875E+03 -0.18520240788E+03  0.45447663910E+02  0.29107045799E+03  0.17176062012E+03 0.  0.
         24    2    5    5    0    0 -0.15935674829E+03 -0.16880229648E+03  0.68173041700E+02  0.25510630559E+03  0.80888040007E+02 0.  0.
          5    1    5    5  501    0  0.22043679541E+02 -0.16400111401E+02 -0.22725377790E+02  0.35964152393E+02  0.47000000000E+01 0.  1.
        -11    1    6    6    0    0 -0.34103208244E+02 -0.48150445847E+02  0.55055161913E+02  0.80700465309E+02  0.00000000000E+00 0.  1.
         12    1    6    6    0    0 -0.12525354005E+03 -0.12065185063E+03  0.13117879787E+02  0.17440584028E+03  0.00000000000E+00 0. -1.
         -5    1    3    3    0  503 -0.14068771676E+02 -0.13273527956E+02  0.23418446354E+02  0.30734841963E+02  0.47000000000E+01 0.  1.
         11    1    4    4    0    0  0.43828305064E+02  0.10611317760E+02  0.90145111886E+01  0.45986756805E+02  0.00000000000E+00 0. -1.
        -12    1    4    4    0    0  0.10755353536E+03  0.18786461807E+03  0.49163030820E+02  0.22198621870E+03  0.00000000000E+00 0.  1.
</event>
<event>
12    1  0.8113184E-002  0.1907055E+03  0.7818608E-02  0.1158670E+00
         21   -1    0    0  501  502  0.00000000000E+00  0.00000000000E+00  0.23655275236E+03  0.23655275236E+03  0.00000000000E+00 0. -1.
         21   -1    0    0  502  503 -0.00000000000E+00 -0.00000000000E+00 -0.15771904140E+03  0.15771904140E+03  0.00000000000E+00 0. -1.
         -6    2    1    2    0  503  0.10164380436E+03 -0.24887434740E+02  0.81190489399E+02  0.20726911361E+03  0.15942942801E+03 0.  0.
        -24    2    3    3    0    0  0.11259194087E+03 -0.49093119076E+01  0.16884286982E+02  0.13888516261E+03  0.79391200745E+02 0.  0.
          6    2    1    2  501    0 -0.10164380436E+03  0.24887434740E+02 -0.23567784443E+01  0.18700268015E+03  0.15496322340E+03 0.  0.
         24    2    5    5    0    0 -0.11791752727E+03  0.33127251549E+02  0.30148541551E+02  0.14943388370E+03  0.80122362723E+02 0.  0.
          5    1    5    5  501    0  0.16273722913E+02 -0.82398168097E+01 -0.32505319995E+02  0.37568796447E+02  0.47000000000E+01 0. -1.
        -11    1    6    6    0    0 -0.31122564331E+02  0.40545143123E+02 -0.12238178804E+02  0.52557546193E+02  0.00000000000E+00 0.  1.
         12    1    6    6    0    0 -0.86794962940E+02 -0.74178915734E+01  0.42386720355E+02  0.96876337511E+02  0.00000000000E+00 0. -1.
         -5    1    3    3    0  503 -0.10948136507E+02 -0.19978122832E+02  0.64306202418E+02  0.68383950999E+02  0.47000000000E+01 0.  1.
         13    1    4    4    0    0  0.43349510392E+02  0.26585356932E+02  0.33667151288E+02  0.60987198085E+02  0.00000000000E+00 0. -1.
        -14    1    4    4    0    0  0.69242430473E+02 -0.31494668839E+02 -0.16782864306E+02  0.77897964527E+02  0.00000000000E+00 0.  1.
</event>
<event>
12    1  0.8113184E-002  0.2211200E+03  0.7818608E-02  0.1133250E+00
         21   -1    0    0  501  502  0.00000000000E+00  0.00000000000E+00  0.18453340141E+03  0.18453340141E+03  0.00000000000E+00 0.  1.
         21   -1    0    0  502  503 -0.00000000000E+00 -0.00000000000E+00 -0.26681026586E+03  0.26681026586E+03  0.00000000000E+00 0. -1.
         -6    2    1    2    0  503 -0.48821817925E+02 -0.13023863201E+03 -0.16768203950E+02  0.22175490801E+03  0.17189646706E+03 0.  0.
        -24    2    3    3    0    0 -0.45326049027E+02 -0.14578367799E+03 -0.54609911110E+02  0.18042751207E+03  0.79148678016E+02 0.  0.
          6    2    1    2  501    0  0.48821817925E+02  0.13023863201E+03 -0.65508660499E+02  0.22958875926E+03  0.17051082840E+03 0.  0.
         24    2    5    5    0    0 -0.32117481860E+02  0.63055043994E+02 -0.19858292724E+01  0.10661703553E+03  0.79723130478E+02 0.  0.
          5    1    5    5  501    0  0.80939299785E+02  0.67183588020E+02 -0.63522831227E+02  0.12297172373E+03  0.47000000000E+01 0. -1.
        -13    1    6    6    0    0 -0.91250742694E+01 -0.15030745204E+02  0.15407418417E+02  0.23379025302E+02  0.00000000000E+00 0.  1.
         14    1    6    6    0    0 -0.22992407591E+02  0.78085789199E+02 -0.17393247689E+02  0.83238010228E+02  0.00000000000E+00 0. -1.
         -5    1    3    3    0  503 -0.34957688978E+01  0.15545045975E+02  0.37841707160E+02  0.41327395942E+02  0.47000000000E+01 0.  1.
         13    1    4    4    0    0  0.20080343708E+02 -0.50503875495E+02 -0.30665856576E+02  0.62403977461E+02  0.00000000000E+00 0. -1.
        -14    1    4    4    0    0 -0.65406392735E+02 -0.95279802494E+02 -0.23944054534E+02  0.11802353461E+03  0.00000000000E+00 0.  1.
</event>
<event>
12    1  0.8113184E-002  0.2937781E+03  0.7818608E-02  0.1088437E+00
         21   -1    0    0  503  502  0.00000000000E+00  0.00000000000E+00  0.50357376776E+03  0.50357376776E+03  0.00000000000E+00 0. -1.
         21   -1    0    0  501  503 -0.00000000000E+00 -0.00000000000E+00 -0.68027801007E+03  0.68027801007E+03  0.00000000000E+00 0. -1.
          6    2    1    2  501    0 -0.21571435754E+03 -0.10113625210E+03 -0.60040093720E+03  0.66827011949E+03  0.17129635631E+03 0.  0.
         24    2    3    3    0    0 -0.11129102267E+03 -0.82367229602E+02 -0.21381842097E+03  0.26736534162E+03  0.81214878650E+02 0.  0.
         -6    2    1    2    0  502  0.21571435754E+03  0.10113625210E+03  0.42369669489E+03  0.51558165834E+03  0.17188464626E+03 0.  0.
        -24    2    5    5    0    0  0.19825191394E+03  0.28875992721E+02  0.29018997816E+03  0.36270060839E+03  0.84875576972E+02 0.  0.
          5    1    3    3  501    0 -0.10442333487E+03 -0.18769022498E+02 -0.38658251623E+03  0.40090477787E+03  0.47000000000E+01 0. -1.
        -13    1    4    4    0    0 -0.93722836920E+02 -0.97863239635E+02 -0.16738759509E+03  0.21535967780E+03  0.00000000000E+00 0.  1.
         14    1    4    4    0    0 -0.17568185752E+02  0.15496010032E+02 -0.46430825880E+02  0.52005663820E+02  0.00000000000E+00 0. -1.
         -5    1    5    5    0  502  0.17462443600E+02  0.72260259380E+02  0.13350671673E+03  0.15288104995E+03  0.47000000000E+01 0.  1.
         13    1    6    6    0    0  0.11820357594E+03 -0.36943244326E+01  0.22591974477E+03  0.25500091073E+03  0.00000000000E+00 0. -1.
        -14    1    6    6    0    0  0.80048337994E+02  0.32570317153E+02  0.64270233393E+02  0.10769969766E+03  0.00000000000E+00 0.  1.
</event>
<event>
12    1  0.8113184E-002  0.1774640E+03  0.7818608E-02  0.1170379E+00
         21   -1    0    0  501  502  0.00000000000E+00  0.00000000000E+00  0.73165099657E+02  0.73165099657E+02  0.00000000000E+00 0. -1.
         21   -1    0    0  502  503 -0.00000000000E+00 -0.00000000000E+00 -0.48883479826E+03  0.48883479826E+03  0.00000000000E+00 0.  1.
         -6    2    1    2    0  503  0.49281577718E+02  0.12951053695E+01 -0.11011948661E+03  0.20885348117E+03  0.17047910154E+03 0.  0.
        -24    2    3    3    0    0  0.54571806770E+02 -0.45500393023E+02 -0.11975305441E+03  0.16055543957E+03  0.79930515304E+02 0.  0.
          6    2    1    2  501    0 -0.49281577718E+02 -0.12951053695E+01 -0.30555021199E+03  0.35314641675E+03  0.17006207225E+03 0.  0.
         24    2    5    5    0    0 -0.83472671417E+02  0.38130453157E+02 -0.17365078090E+03  0.21122053654E+03  0.77703944655E+02 0.  0.
          5    1    5    5  501    0  0.34191093700E+02 -0.39425558527E+02 -0.13189943108E+03  0.14192588021E+03  0.47000000000E+01 0. -1.
        -13    1    6    6    0    0 -0.35228376110E+01  0.12010290633E+02 -0.95794925874E+02  0.96609136675E+02  0.00000000000E+00 0.  1.
         14    1    6    6    0    0 -0.79949833806E+02  0.26120162525E+02 -0.77855855031E+02  0.11461139986E+03  0.00000000000E+00 0. -1.
         -5    1    3    3    0  503 -0.52902290525E+01  0.46795498392E+02  0.96335677960E+01  0.48298041593E+02  0.47000000000E+01 0.  1.
         11    1    4    4    0    0  0.50672817722E+02 -0.45328989032E+01 -0.23834452371E+02  0.56181516072E+02  0.00000000000E+00 0. -1.
        -12    1    4    4    0    0  0.38989890483E+01 -0.40967494120E+02 -0.95918602037E+02  0.10437392350E+03  0.00000000000E+00 0.  1.
</event>
<event>
12    1  0.8113184E-002  0.1897077E+03  0.7818608E-02  0.1158845E+00
         21   -1    0    0  501  502  0.00000000000E+00  0.00000000000E+00  0.15064466803E+03  0.15064466803E+03  0.00000000000E+00 0. -1.
         21   -1    0    0  502  503 -0.00000000000E+00 -0.00000000000E+00 -0.30001440393E+03  0.30001440393E+03  0.00000000000E+00 0.  1.
         -6    2    1    2    0  503  0.99883529572E+01  0.77103783154E+02  0.27648423799E+02  0.19118955566E+03  0.17246521471E+03 0.  0.
        -24    2    3    3    0    0  0.65437692651E+02  0.10357392616E+02  0.28688510892E+01  0.10082458930E+03  0.75947352155E+02 0.  0.
          6    2    1    2  501    0 -0.99883529572E+01 -0.77103783154E+02 -0.17701815969E+03  0.25946951630E+03  0.17304404196E+03 0.  0.
         24    2    5    5    0    0 -0.13977739548E+02  0.77721134064E+01 -0.25554670766E+02  0.85736642323E+02  0.80261744867E+02 0.  0.
          5    1    5    5  501    0  0.39893865907E+01 -0.84875896561E+02 -0.15146348893E+03  0.17373287398E+03  0.47000000000E+01 0. -1.
        -11    1    6    6    0    0 -0.23615064636E+02 -0.32379648055E+02 -0.79957244924E+01  0.40866177899E+02  0.00000000000E+00 0.  1.
         12    1    6    6    0    0  0.96373250881E+01  0.40151761462E+02 -0.17558946274E+02  0.44870464423E+02  0.00000000000E+00 0. -1.
         -5    1    3    3    0  503 -0.55449339694E+02  0.66746390538E+02  0.24779572710E+02  0.90364966364E+02  0.47000000000E+01 0.  1.
         13    1    4    4    0    0 -0.11914684574E+02  0.10125836633E+02  0.15992686085E+02  0.22366454440E+02  0.00000000000E+00 0. -1.
        -14    1    4    4    0    0  0.77352377225E+02  0.23155598353E+00 -0.13123834996E+02  0.78458134858E+02  0.00000000000E+00 0.  1.
</event>
<event>
12    1  0.8113184E-002  0.1801367E+03  0.7818608E-02  0.1169760E+00
         21   -1    0    0  501  502  0.00000000000E+00  0.00000000000E+00  0.50262301554E+03  0.50262301554E+03  0.00000000000E+00 0. -1.
         21   -1    0    0  502  503 -0.00000000000E+00 -0.00000000000E+00 -0.74727872549E+02  0.74727872549E+02  0.00000000000E+00 0. -1.
         -6    2    1    2    0  503 -0.51278205825E+02  0.12154117922E+02  0.88646023709E+02  0.19324259572E+03  0.16342400774E+03 0.  0.
        -24    2    3    3    0    0 -0.56245513763E+02  0.11136793912E+02  0.12337205407E+03  0.15783502193E+03  0.80022774421E+02 0.  0.
          6    2    1    2  501    0  0.51278205825E+02 -0.12154117922E+02  0.33924911928E+03  0.38410829237E+03  0.17225573535E+03 0.  0.
         24    2    5    5    0    0  0.35063460263E+01 -0.55041209424E+02  0.90761524888E+02  0.12741854234E+03  0.70398873102E+02 0.  0.
          5    1    5    5  501    0  0.47771859799E+02  0.42887091502E+02  0.24848759439E+03  0.25668975004E+03  0.47000000000E+01 0. -1.
        -11    1    6    6    0    0 -0.10306764931E+02 -0.48308430559E+01 -0.92460852666E+01  0.14664806195E+02  0.00000000000E+00 0.  1.
         12    1    6    6    0    0  0.13813110957E+02 -0.50210366368E+02  0.10000761015E+03  0.11275373614E+03  0.00000000000E+00 0. -1.
         -5    1    3    3    0  503  0.49673079375E+01  0.10173240095E+01 -0.34726030363E+02  0.35407573781E+02  0.47000000000E+01 0.  1.
         11    1    4    4    0    0 -0.22329085865E+02 -0.11436664370E+02 -0.28045645811E+01  0.25243829939E+02  0.00000000000E+00 0. -1.
        -12    1    4    4    0    0 -0.33916427897E+02  0.22573458282E+02  0.12617661865E+03  0.13259119200E+03  0.00000000000E+00 0.  1.
</event>
<event>
12    1  0.8113184E-002  0.1917512E+03  0.7818608E-02  0.1157436E+00
         21   -1    0    0  501  502  0.00000000000E+00  0.00000000000E+00  0.38776342343E+03  0.38776342343E+03  0.00000000000E+00 0.  1.
         21   -1    0    0  502  503 -0.00000000000E+00 -0.00000000000E+00 -0.72492026624E+03  0.72492026624E+03  0.00000000000E+00 0. -1.
         -6    2    1    2    0  503 -0.22652623467E+02  0.75364455944E+02 -0.68761227927E+03  0.71319962485E+03  0.17219208959E+03 0.  0.
        -24    2    3    3    0    0 -0.28453310134E+02  0.11828005857E+03 -0.54194037361E+03  0.56115426644E+03  0.79968613129E+02 0.  0.
          6    2    1    2  501    0  0.22652623467E+02 -0.75364455944E+02  0.35045543645E+03  0.39948406482E+03  0.17485869305E+03 0.  0.
         24    2    5    5    0    0  0.71278884067E+02 -0.38510887267E+02  0.29750560970E+03  0.31856142956E+03  0.80050164568E+02 0.  0.
          5    1    5    5  501    0 -0.48626260600E+02 -0.36853568677E+02  0.52949826751E+02  0.80922635259E+02  0.47000000000E+01 0. -1.
        -13    1    6    6    0    0 -0.14544582396E+02 -0.17623862913E+02  0.93557671385E+02  0.96307753042E+02  0.00000000000E+00 0.  1.
         14    1    6    6    0    0  0.85823466463E+02 -0.20887024354E+02  0.20394793832E+03  0.22225367652E+03  0.00000000000E+00 0. -1.
         -5    1    3    3    0  503  0.58006866672E+01 -0.42915602629E+02 -0.14567190566E+03  0.15204535841E+03  0.47000000000E+01 0.  1.
         13    1    4    4    0    0 -0.83758768402E+01 -0.33369185353E+01 -0.15039100583E+03  0.15066102673E+03  0.00000000000E+00 0. -1.
        -14    1    4    4    0    0 -0.20077433294E+02  0.12161697711E+03 -0.39154936777E+03  0.41049323971E+03  0.00000000000E+00 0.  1.
</event>
<event>
12    1  0.8113184E-002  0.1924848E+03  0.7818608E-02  0.1158356E+00
         21   -1    0    0  503  502  0.00000000000E+00  0.00000000000E+00  0.48333574966E+02  0.48333574966E+02  0.00000000000E+00 0.  1.
         21   -1    0    0  501  503 -0.00000000000E+00 -0.00000000000E+00 -0.73669435077E+03  0.73669435077E+03  0.00000000000E+00 0.  1.
          6    2    1    2  501    0  0.31423141998E+02  0.80336743072E+02 -0.29824729174E+03  0.35001189859E+03  0.16160283407E+03 0.  0.
         24    2    3    3    0    0  0.57058558720E+01 -0.28874820869E+01 -0.21610810707E+03  0.23019292631E+03  0.79026419871E+02 0.  0.
         -6    2    1    2    0  502 -0.31423141998E+02 -0.80336743072E+02 -0.39011348406E+03  0.43501602715E+03  0.17207268026E+03 0.  0.
        -24    2    5    5    0    0 -0.61241400728E+02 -0.62323394732E+02 -0.14347913466E+03  0.18588914868E+03  0.79585167084E+02 0.  0.
          5    1    3    3  501    0  0.25717286126E+02  0.83224225159E+02 -0.82139184677E+02  0.11981897228E+03  0.47000000000E+01 0. -1.
        -11    1    4    4    0    0 -0.34307083910E+02 -0.12618638225E+02 -0.79255744272E+02  0.87279316205E+02  0.00000000000E+00 0.  1.
         12    1    4    4    0    0  0.40012939782E+02  0.97311561382E+01 -0.13685236280E+03  0.14291361010E+03  0.00000000000E+00 0. -1.
         -5    1    5    5    0  502  0.29818258730E+02 -0.18013348340E+02 -0.24663434940E+03  0.24912687847E+03  0.47000000000E+01 0.  1.
         11    1    6    6    0    0 -0.70521465178E+02 -0.39406322324E+02 -0.65246230182E+02  0.10384221609E+03  0.00000000000E+00 0. -1.
        -12    1    6    6    0    0  0.92800644494E+01 -0.22917072408E+02 -0.78232904477E+02  0.82046932586E+02  0.00000000000E+00 0.  1.
</event>
<event>
12    1  0.8113184E-002  0.1725785E+03  0.7818608E-02  0.1175314E+00
         21   -1    0    0  503  502  0.00000000000E+00  0.00000000000E+00  0.19652087509E+04  0.19652087509E+04  0.00000000000E+00 0. -1.
         21   -1    0    0  501  503 -0.00000000000E+00 -0.00000000000E+00 -0.20060344462E+02  0.20060344462E+02  0.00000000000E+00 0. -1.
          6    2    1    2  501    0 -0.18631692248E+02  0.10757867457E+02  0.48059698544E+03  0.51064350456E+03  0.17123216599E+03 0.  0.
         24    2    3    3    0    0  0.31367240481E+02 -0.47428326830E+02  0.27142164903E+03  0.28779391887E+03  0.76956339684E+02 0.  0.
         -6    2    1    2    0  502  0.18631692248E+02 -0.10757867457E+02  0.14645514210E+04  0.14746255908E+04  0.17072462219E+03 0.  0.
        -24    2    5    5    0    0  0.45050961509E+02  0.99007980609E+01  0.13894389915E+04  0.13922318694E+04  0.75108270771E+02 0.  0.
          5    1    3    3  501    0 -0.49998932729E+02  0.58186194287E+02  0.20917533641E+03  0.22284958569E+03  0.47000000000E+01 0. -1.
        -11    1    4    4    0    0  0.61753367751E+01  0.12652261141E+02  0.14397057093E+03  0.14465731848E+03  0.00000000000E+00 0.  1.
         12    1    4    4    0    0  0.25191903706E+02 -0.60080587971E+02  0.12745107810E+03  0.14313660039E+03  0.00000000000E+00 0. -1.
         -5    1    5    5    0  502 -0.26419269261E+02 -0.20658665518E+02  0.75112429521E+02  0.82393721350E+02  0.47000000000E+01 0.  1.
         11    1    6    6    0    0  0.52845704593E+02 -0.64696123844E+01  0.54412754300E+03  0.54672598935E+03  0.00000000000E+00 0. -1.
        -12    1    6    6    0    0 -0.77947430840E+01  0.16370410445E+02  0.84531144846E+03  0.84550588009E+03  0.00000000000E+00 0.  1.
</event>
<event>
12    1  0.8113184E-002  0.3078477E+03  0.7818608E-02  0.1081387E+00
         21   -1    0    0  503  502  0.00000000000E+00  0.00000000000E+00  0.11607417610E+04  0.11607417610E+04  0.00000000000E+00 0.  1.
         21   -1    0    0  501  503 -0.00000000000E+00 -0.00000000000E+00 -0.18401823944E+03  0.18401823944E+03  0.00000000000E+00 0.  1.
          6    2    1    2  501    0 -0.25770028809E+02  0.25403248674E+03 -0.13181864334E+02  0.30809085915E+03  0.17190002107E+03 0.  0.
         24    2    3    3    0    0  0.19730082757E+02  0.57880055605E+02 -0.32771708924E+02  0.10572512983E+03  0.79777447752E+02 0.  0.
         -6    2    1    2    0  502  0.25770028809E+02 -0.25403248674E+03  0.98990538590E+03  0.10366691413E+04  0.17196987168E+03 0.  0.
        -24    2    5    5    0    0  0.75278010541E+02 -0.20996685031E+03  0.69345556256E+03  0.73286425600E+03  0.80352618965E+02 0.  0.
          5    1    3    3  501    0 -0.45500111567E+02  0.19615243113E+03  0.19589844590E+02  0.20236572932E+03  0.47000000000E+01 0. -1.
        -13    1    4    4    0    0 -0.22463469579E+02  0.39376941307E+02 -0.38267943765E+02  0.59326102958E+02  0.00000000000E+00 0.  1.
         14    1    4    4    0    0  0.42193552336E+02  0.18503114298E+02  0.54962348411E+01  0.46399026874E+02  0.00000000000E+00 0. -1.
         -5    1    5    5    0  502 -0.49507981732E+02 -0.44065636427E+02  0.29644982334E+03  0.30380488529E+03  0.47000000000E+01 0.  1.
         11    1    6    6    0    0 -0.25045604388E+01  0.59561639454E+01  0.10021398551E+02  0.11923805636E+02  0.00000000000E+00 0. -1.
        -12    1    6    6    0    0  0.77782570980E+02 -0.21592301426E+03  0.68343416401E+03  0.72094045037E+03  0.00000000000E+00 0.  1.
</event>
<event>
12    1  0.8113184E-002  0.2302702E+03  0.7818608E-02  0.1126584E+00
         21   -1    0    0  503  502  0.00000000000E+00  0.00000000000E+00  0.34690302464E+03  0.34690302464E+03  0.00000000000E+00 0. -1.
         21   -1    0    0  501  503 -0.00000000000E+00 -0.00000000000E+00 -0.18627732759E+03  0.18627732759E+03  0.00000000000E+00 0. -1.
          6    2    1    2  501    0 -0.42094492360E+02  0.14586034763E+03  0.19420166101E+03  0.30122857192E+03  0.17313919286E+03 0.  0.
         24    2    3    3    0    0  0.43415864054E+02  0.69414527384E+02  0.11500145175E+03  0.16176263474E+03  0.78984189750E+02 0.  0.
         -6    2    1    2    0  502  0.42094492360E+02 -0.14586034763E+03 -0.33575963956E+02  0.23195178031E+03  0.17212523271E+03 0.  0.
        -24    2    5    5    0    0  0.51656719913E+02 -0.10411921552E+03 -0.84954312297E+02  0.16490267156E+03  0.80414104215E+02 0.  0.
          5    1    3    3  501    0 -0.85510356414E+02  0.76445820245E+02  0.79200209268E+02  0.13946593719E+03  0.47000000000E+01 0. -1.
        -11    1    4    4    0    0  0.44783348175E+02  0.78607402034E+02  0.12071449078E+03  0.15085310807E+03  0.00000000000E+00 0.  1.
         12    1    4    4    0    0 -0.13674841203E+01 -0.91928746498E+01 -0.57130390382E+01  0.10909526672E+02  0.00000000000E+00 0. -1.
         -5    1    5    5    0  502 -0.95622275528E+01 -0.41741132105E+02  0.51378348341E+02  0.67049108745E+02  0.47000000000E+01 0.  1.
         11    1    6    6    0    0  0.54111805020E+02 -0.35380554218E+02 -0.68474720840E+02  0.94173554958E+02  0.00000000000E+00 0. -1.
        -12    1    6    6    0    0 -0.24550851071E+01 -0.68738661305E+02 -0.16479591457E+02  0.70729116603E+02  0.00000000000E+00 0.  1.
</event>
<event>
12    1  0.8113184E-002  0.1969780E+03  0.7818608E-02  0.1152326E+00
         21   -1    0    0  501  502  0.00000000000E+00  0.00000000000E+00  0.77623550326E+03  0.77623550326E+03  0.00000000000E+00 0. -1.
         21   -1    0    0  502  503 -0.00000000000E+00 -0.00000000000E+00 -0.81265880421E+02  0.81265880421E+02  0.00000000000E+00 0.  1.
         -6    2    1    2    0  503  0.72094910219E+02  0.65319354268E+02  0.81389288536E+02  0.21307827366E+03  0.17121285085E+03 0.  0.
        -24    2    3    3    0    0  0.10349063895E+03  0.67052656550E+02  0.27886968365E+02  0.15084255736E+03  0.82276503361E+02 0.  0.
          6    2    1    2  501    0 -0.72094910219E+02 -0.65319354268E+02  0.61358033430E+03  0.64442311002E+03  0.17127762249E+03 0.  0.
         24    2    5    5    0    0 -0.95487226066E+02  0.82815360614E+00  0.34086358916E+03  0.36278645346E+03  0.79419948491E+02 0.  0.
          5    1    5    5  501    0  0.23392315846E+02 -0.66147507874E+02  0.27271674514E+03  0.28163665656E+03  0.47000000000E+01 0. -1.
        -13    1    6    6    0    0 -0.73958399216E+02 -0.32852262887E+02  0.26435791383E+03  0.27646739879E+03  0.00000000000E+00 0.  1.
         14    1    6    6    0    0 -0.21528826850E+02  0.33680416493E+02  0.76505675338E+02  0.86319054672E+02  0.00000000000E+00 0. -1.
         -5    1    3    3    0  503 -0.31395728734E+02 -0.17333022825E+01  0.53502320171E+02  0.62235716299E+02  0.47000000000E+01 0.  1.
         11    1    4    4    0    0 -0.58892771155E+01 -0.53612477775E+01  0.17532134531E+02  0.19256227665E+02  0.00000000000E+00 0. -1.
        -12    1    4    4    0    0  0.10937991607E+03  0.72413904328E+02  0.10354833834E+02  0.13158632970E+03  0.00000000000E+00 0.  1.
</event>
<event>
12    1  0.8113184E-002  0.2406777E+03  0.7818608E-02  0.1119414E+00
         21   -1    0    0  503  502  0.00000000000E+00  0.00000000000E+00  0.64007660851E+03  0.64007660851E+03  0.00000000000E+00 0. -1.
         21   -1    0    0  501  503 -0.00000000000E+00 -0.00000000000E+00 -0.10972811577E+03  0.10972811577E+03  0.00000000000E+00 0. -1.
          6    2    1    2  501    0  0.67755144871E+02  0.15377662860E+03  0.42258628475E+03  0.48610327548E+03  0.17169512288E+03 0.  0.
         24    2    3    3    0    0  0.10637473307E+03  0.14544997742E+03  0.31906204751E+03  0.37519717372E+03  0.80629084354E+02 0.  0.
         -6    2    1    2    0  502 -0.67755144871E+02 -0.15377662860E+03  0.10776220799E+03  0.26370144880E+03  0.17230133333E+03 0.  0.
        -24    2    5    5    0    0  0.13605875653E+02 -0.44046550212E+02  0.85046156753E+02  0.12514310460E+03  0.79389731153E+02 0.  0.
          5    1    3    3  501    0 -0.38619588195E+02  0.83266511805E+01  0.10352423724E+03  0.11090610176E+03  0.47000000000E+01 0. -1.
        -13    1    4    4    0    0  0.14637107926E+02  0.86760086021E+02  0.12910159511E+03  0.15623309289E+03  0.00000000000E+00 0.  1.
         14    1    4    4    0    0  0.91737625141E+02  0.58689891397E+02  0.18996045239E+03  0.21896408083E+03  0.00000000000E+00 0. -1.
         -5    1    5    5    0  502 -0.81361020523E+02 -0.10973007839E+03  0.22716051235E+02  0.13855834420E+03  0.47000000000E+01 0.  1.
         13    1    6    6    0    0  0.39237338497E+02  0.11203304622E+01  0.29512658246E+02  0.49110292907E+02  0.00000000000E+00 0. -1.
        -14    1    6    6    0    0 -0.25631462845E+02 -0.45166880674E+02  0.55533498508E+02  0.76032811692E+02  0.00000000000E+00 0.  1.
</event>
<event>
12    1  0.8113184E-002  0.2223676E+03  0.7818608E-02  0.1132521E+00
         21   -1    0    0  503  502  0.00000000000E+00  0.00000000000E+00  0.42239821952E+03  0.42239821952E+03  0.00000000000E+00 0.  1.
         21   -1    0    0  501  503 -0.00000000000E+00 -0.00000000000E+00 -0.15670640314E+03  0.15670640314E+03  0.00000000000E+00 0. -1.
          6    2    1    2  501    0 -0.13440010466E+03 -0.33948117447E+02 -0.15287608598E+02  0.22077965086E+03  0.17115513562E+03 0.  0.
         24    2    3    3    0    0 -0.14839094494E+03  0.14529102691E+02 -0.54357260812E+01  0.16915665140E+03  0.79708583151E+02 0.  0.
         -6    2    1    2    0  502  0.13440010466E+03  0.33948117447E+02  0.28097942498E+03  0.35832497179E+03  0.17387203726E+03 0.  0.
        -24    2    5    5    0    0  0.99062385864E+02  0.88003056606E+02  0.19779942319E+03  0.25291295391E+03  0.85337308233E+02 0.  0.
          5    1    3    3  501    0  0.13990840288E+02 -0.48477220138E+02 -0.98518825172E+01  0.51622999461E+02  0.47000000000E+01 0. -1.
        -11    1    4    4    0    0 -0.70030146202E+02  0.34968812295E+02  0.25712331325E+02  0.82390310065E+02  0.00000000000E+00 0.  1.
         12    1    4    4    0    0 -0.78360798742E+02 -0.20439709605E+02 -0.31148057407E+02  0.86766341333E+02  0.00000000000E+00 0. -1.
         -5    1    5    5    0  502  0.35337718791E+02 -0.54054939159E+02  0.83180001788E+02  0.10541201788E+03  0.47000000000E+01 0.  1.
         11    1    6    6    0    0  0.39013613800E+02  0.54521574012E+02  0.33790157951E+02  0.75076220396E+02  0.00000000000E+00 0. -1.
        -12    1    6    6    0    0  0.60048772064E+02  0.33481482593E+02  0.16400926524E+03  0.17783673352E+03  0.00000000000E+00 0.  1.
</event>
<event>
12    1  0.8113184E-002  0.2107374E+03  0.7818608E-02  0.1141768E+00
         21   -1    0    0  501  502  0.00000000000E+00  0.00000000000E+00  0.85561885310E+03  0.85561885310E+03  0.00000000000E+00 0. -1.
         21   -1    0    0  502  503 -0.00000000000E+00 -0.00000000000E+00 -0.58165384454E+02  0.58165384454E+02  0.00000000000E+00 0. -1.
         -6    2    1    2    0  503 -0.10515928272E+03  0.35806274006E+02  0.55648123306E+03  0.59366255781E+03  0.17442277889E+03 0.  0.
        -24    2    3    3    0    0 -0.14837154502E+02 -0.18811291504E+02  0.36778309169E+03  0.37739826611E+03  0.81185238110E+02 0.  0.
          6    2    1    2  501    0  0.10515928272E+03 -0.35806274006E+02  0.24097223558E+03  0.32012167975E+03  0.17908017066E+03 0.  0.
         24    2    5    5    0    0  0.78694512231E+02 -0.84171603074E+02  0.21986812404E+03  0.26090122165E+03  0.80310463037E+02 0.  0.
          5    1    5    5  501    0  0.26464770485E+02  0.48365329068E+02  0.21104111549E+02  0.59220458095E+02  0.47000000000E+01 0. -1.
        -11    1    6    6    0    0  0.84087211196E+02 -0.41169943995E+02  0.12132713109E+03  0.15325108846E+03  0.00000000000E+00 0.  1.
         12    1    6    6    0    0 -0.53926989656E+01 -0.43001659079E+02  0.98540992947E+02  0.10765013319E+03  0.00000000000E+00 0. -1.
         -5    1    3    3    0  503 -0.90322128213E+02  0.54617565510E+02  0.18869814137E+03  0.21626429170E+03  0.47000000000E+01 0.  1.
         11    1    4    4    0    0 -0.30363617192E+02 -0.34961776786E+02  0.33176581698E+03  0.33498183892E+03  0.00000000000E+00 0. -1.
        -12    1    4    4    0    0  0.15526462690E+02  0.16150485282E+02  0.36017274708E+02  0.42416427194E+02  0.00000000000E+00 0.  1.
</event>
<event>
12    1  0.8113184E-002  0.1730929E+03  0.7818608E-02  0.1174695E+00
         21   -1    0    0  501  502  0.00000000000E+00  0.00000000000E+00  0.58778053498E+02  0.58778053498E+02  0.00000000000E+00 0.  1.
         21   -1    0    0  502  503 -0.00000000000E+00 -0.00000000000E+00 -0.52442482919E+03  0.52442482919E+03  0.00000000000E+00 0. -1.
         -6    2    1    2    0  503  0.24720579176E+01  0.22900817015E+02 -0.28239052648E+03  0.33121832209E+03  0.17155351630E+03 0.  0.
        -24    2    3    3    0    0 -0.32039878489E+02 -0.45316576260E+02 -0.13540461286E+03  0.16547262742E+03  0.77243998756E+02 0.  0.
          6    2    1    2  501    0 -0.24720579176E+01 -0.22900817015E+02 -0.18325624922E+03  0.25198456060E+03  0.17141414006E+03 0.  0.
         24    2    5    5    0    0 -0.17366049648E+02 -0.65951743708E+02 -0.17521485762E+03  0.20548760094E+03  0.82907753750E+02 0.  0.
          5    1    5    5  501    0  0.14893991730E+02  0.43050926693E+02 -0.80413916012E+01  0.46496959661E+02  0.47000000000E+01 0. -1.
        -13    1    6    6    0    0  0.31227653749E+02 -0.90730262856E+01 -0.51061181217E+02  0.60537016708E+02  0.00000000000E+00 0.  1.
         14    1    6    6    0    0 -0.48593703397E+02 -0.56878717423E+02 -0.12415367640E+03  0.14495058423E+03  0.00000000000E+00 0. -1.
         -5    1    3    3    0  503  0.34511936407E+02  0.68217393274E+02 -0.14698591362E+03  0.16574569467E+03  0.47000000000E+01 0.  1.
         13    1    4    4    0    0 -0.46514077759E+02 -0.32671441081E+01 -0.92952105312E+02  0.10399195903E+03  0.00000000000E+00 0. -1.
        -14    1    4    4    0    0  0.14474199270E+02 -0.42049432152E+02 -0.42452507544E+02  0.61480668389E+02  0.00000000000E+00 0.  1.
</event>
<event>
12    1  0.8113184E-002  0.1737586E+03  0.7818608E-02  0.1174192E+00
         21   -1    0    0  501  502  0.00000000000E+00  0.00000000000E+00  0.24317052106E+03  0.24317052106E+03  0.00000000000E+00 0. -1.
         21   -1    0    0  502  503 -0.00000000000E+00 -0.00000000000E+00 -0.12497327210E+03  0.12497327210E+03  0.00000000000E+00 0. -1.
         -6    2    1    2    0  503 -0.15832221706E+02 -0.19682736216E+02  0.78703344447E+02  0.19075187762E+03  0.17191274833E+03 0.  0.
        -24    2    3    3    0    0  0.19842936028E+02  0.21997456012E+02  0.10167333104E+03  0.13108894450E+03  0.77260694701E+02 0.  0.
          6    2    1    2  501    0  0.15832221706E+02  0.19682736216E+02  0.39493904520E+02  0.17739191554E+03  0.17108493170E+03 0.  0.
         24    2    5    5    0    0 -0.33860516994E+02 -0.16452297629E+02 -0.22365792607E+02  0.90077420300E+02  0.78717852236E+02 0.  0.
          5    1    5    5  501    0  0.49692738700E+02  0.36135033845E+02  0.61859697127E+02  0.87314495241E+02  0.47000000000E+01 0. -1.
        -13    1    6    6    0    0 -0.46537461799E+02  0.48031874520E+01 -0.38453223405E+02  0.60559527332E+02  0.00000000000E+00 0.  1.
         14    1    6    6    0    0  0.12676944806E+02 -0.21255485081E+02  0.16087430797E+02  0.29517892968E+02  0.00000000000E+00 0. -1.
         -5    1    3    3    0  503 -0.35675157734E+02 -0.41680192228E+02 -0.22969986592E+02  0.59662933112E+02  0.47000000000E+01 0.  1.
         11    1    4    4    0    0 -0.12323662740E+02  0.37625131318E+02  0.80029417953E+02  0.89287350212E+02  0.00000000000E+00 0. -1.
        -12    1    4    4    0    0  0.32166598767E+02 -0.15627675306E+02  0.21643913086E+02  0.41801594293E+02  0.00000000000E+00 0.  1.
</event>
<event>
12    1  0.8113184E-002  0.1864039E+03  0.7818608E-02  0.1161941E+00
         21   -1    0    0  501  502  0.00000000000E+00  0.00000000000E+00  0.16217408307E+03  0.16217408307E+03  0.00000000000E+00 0. -1.
         21   -1    0    0  502  503 -0.00000000000E+00 -0.00000000000E+00 -0.22418665272E+03  0.22418665272E+03  0.00000000000E+00 0. -1.
         -6    2    1    2    0  503 -0.71244537506E+02 -0.62563955729E+01  0.11661696931E+02  0.18592539965E+03  0.17122304883E+03 0.  0.
        -24    2    3    3    0    0 -0.54768871172E+02  0.23056230159E+02  0.68072989465E+02  0.12008467112E+03  0.79089679127E+02 0.  0.
          6    2    1    2  501    0  0.71244537506E+02  0.62563955729E+01 -0.73674266578E+02  0.20043533614E+03  0.17213802546E+03 0.  0.
         24    2    5    5    0    0 -0.23266564935E+02  0.18149238797E+02 -0.59535260631E+02  0.10402066042E+03  0.80032009992E+02 0.  0.
          5    1    5    5  501    0  0.94511102441E+02 -0.11892843224E+02 -0.14139005946E+02  0.96414675718E+02  0.47000000000E+01 0. -1.
        -13    1    6    6    0    0  0.20539245489E+02  0.29881566398E+02 -0.11688396711E+02  0.38097076441E+02  0.00000000000E+00 0.  1.
         14    1    6    6    0    0 -0.43805810424E+02 -0.11732327601E+02 -0.47846863921E+02  0.65923583981E+02  0.00000000000E+00 0. -1.
         -5    1    3    3    0  503 -0.16475666334E+02 -0.29312625732E+02 -0.56411292534E+02  0.65840728533E+02  0.47000000000E+01 0.  1.
         11    1    4    4    0    0  0.90590069562E-01  0.40846400508E+02  0.22904622526E+02  0.46830101154E+02  0.00000000000E+00 0. -1.
        -12    1    4    4    0    0 -0.54859461242E+02 -0.17790170350E+02  0.45168366939E+02  0.73254569965E+02  0.00000000000E+00 0.  1.
</event>
<event>
12    1  0.8113184E-002  0.1991494E+03  0.7818608E-02  0.1150637E+00
         21   -1    0    0  501  502  0.00000000000E+00  0.00000000000E+00  0.90373412956E+03  0.90373412956E+03  0.00000000000E+00 0. -1.
         21   -1    0    0  502  503 -0.00000000000E+00 -0.00000000000E+00 -0.21962344397E+03  0.21962344397E+03  0.00000000000E+00 0.  1.
         -6    2    1    2    0  503  0.79763416775E+02 -0.60350832638E+02 -0.16050186057E+03  0.25577594042E+03  0.17220934584E+03 0.  0.
        -24    2    3    3    0    0  0.10950970973E+03 -0.84915626727E+02 -0.13436383782E+03  0.20894051273E+03  0.79996604685E+02 0.  0.
          6    2    1    2  501    0 -0.79763416775E+02  0.60350832638E+02  0.84461254616E+03  0.86758163310E+03  0.17123992321E+03 0.  0.
         24    2    5    5    0    0 -0.42473115210E+02  0.10397676573E+03  0.52080723686E+03  0.53869600410E+03  0.79612018833E+02 0.  0.
          5    1    5    5  501    0 -0.37290301565E+02 -0.43625933090E+02  0.32380530931E+03  0.32888562900E+03  0.47000000000E+01 0. -1.
        -11    1    6    6    0    0 -0.65024558627E+02  0.82997821184E+02  0.43268382118E+03  0.44534494570E+03  0.00000000000E+00 0.  1.
         12    1    6    6    0    0  0.22551443417E+02  0.20978944544E+02  0.88123415675E+02  0.93351058401E+02  0.00000000000E+00 0. -1.
         -5    1    3    3    0  503 -0.29746292955E+02  0.24564794089E+02 -0.26138022756E+02  0.46835427689E+02  0.47000000000E+01 0.  1.
         13    1    4    4    0    0  0.69532517558E+01 -0.26995963846E+02  0.29501029781E+01  0.28032710920E+02  0.00000000000E+00 0. -1.
        -14    1    4    4    0    0  0.10255645797E+03 -0.57919662881E+02 -0.13731394080E+03  0.18090780181E+03  0.00000000000E+00 0.  1.
</event>
<event>
12    1  0.8113184E-002  0.3316668E+03  0.7818608E-02  0.1070494E+00
         21   -1    0    0  503  502  0.00000000000E+00  0.00000000000E+00  0.72533744136E+03  0.72533744136E+03  0.00000000000E+00 0.  1.
         21   -1    0    0  501  503 -0.00000000000E+00 -0.00000000000E+00 -0.15156338571E+03  0.15156338571E+03  0.00000000000E+00 0. -1.
          6    2    1    2  501    0 -0.14158853799E+03 -0.24588644473E+03  0.30569001904E+03  0.45043639366E+03  0.17011495877E+03 0.  0.
         24    2    3    3    0    0 -0.10645186928E+03 -0.17670191864E+03  0.11476936559E+03  0.24429598022E+03  0.62872491197E+02 0.  0.
         -6    2    1    2    0  502  0.14158853799E+03  0.24588644473E+03  0.26808403661E+03  0.42646443342E+03  0.17174226182E+03 0.  0.
        -24    2    5    5    0    0  0.65574180273E+02  0.39836317960E+02  0.89907575015E+02  0.14361504101E+03  0.81578199362E+02 0.  0.
          5    1    3    3  501    0 -0.35136668713E+02 -0.69184526093E+02  0.19092065345E+03  0.20614041344E+03  0.47000000000E+01 0. -1.
        -11    1    4    4    0    0 -0.80390720764E+02 -0.79318348911E+02  0.44370040703E+02  0.12133741785E+03  0.00000000000E+00 0.  1.
         12    1    4    4    0    0 -0.26061148516E+02 -0.97383569729E+02  0.70399324884E+02  0.12295856237E+03  0.00000000000E+00 0. -1.
         -5    1    5    5    0  502  0.76014357720E+02  0.20605012677E+03  0.17817646160E+03  0.28284939242E+03  0.47000000000E+01 0.  1.
         11    1    6    6    0    0 -0.10793922644E+02  0.32577263851E+02  0.19401271422E+02  0.39423295383E+02  0.00000000000E+00 0. -1.
        -12    1    6    6    0    0  0.76368102917E+02  0.72590541088E+01  0.70506303592E+02  0.10419174562E+03  0.00000000000E+00 0.  1.
</event>
<event>
12    1  0.8113184E-002  0.2191820E+03  0.7818608E-02  0.1135212E+00
         21   -1    0    0  503  502  0.00000000000E+00  0.00000000000E+00  0.29388079747E+03  0.29388079747E+03  0.00000000000E+00 0. -1.
         21   -1    0    0  501  503 -0.00000000000E+00 -0.00000000000E+00 -0.16799601060E+03  0.16799601060E+03  0.00000000000E+00 0. -1.
          6    2    1    2  501    0 -0.14999012135E+02 -0.13414485365E+03  0.15177748516E+02  0.21970686846E+03  0.17268738191E+03 0.  0.
         24    2    3    3    0    0  0.51587978775E+02 -0.93179579039E+02  0.30369850314E+02  0.13992672657E+03  0.85518462896E+02 0.  0.
         -6    2    1    2    0  502  0.14999012135E+02  0.13414485365E+03  0.11070703835E+03  0.24216993962E+03  0.16784045754E+03 0.  0.
        -24    2    5    5    0    0  0.46367774490E+02  0.16403782254E+02  0.43854364734E+02  0.10310761864E+03  0.79302718317E+02 0.  0.
          5    1    3    3  501    0 -0.66586990911E+02 -0.40965274610E+02 -0.15192101798E+02  0.79780141887E+02  0.47000000000E+01 0. -1.
        -13    1    4    4    0    0  0.23059159173E+02  0.13090211574E+02  0.45135112278E+01  0.26897030401E+02  0.00000000000E+00 0.  1.
         14    1    4    4    0    0  0.28528819603E+02 -0.10626979061E+03  0.25856339086E+02  0.11302969617E+03  0.00000000000E+00 0. -1.
         -5    1    5    5    0  502 -0.31368762355E+02  0.11774107139E+03  0.66852673617E+02  0.13906232097E+03  0.47000000000E+01 0.  1.
         11    1    6    6    0    0  0.23966057869E+02  0.35482576540E+02 -0.79308531359E+01  0.43546338528E+02  0.00000000000E+00 0. -1.
        -12    1    6    6    0    0  0.22401716622E+02 -0.19078794286E+02  0.51785217870E+02  0.59561280115E+02  0.00000000000E+00 0.  1.
</event>
<event>
12    1  0.8113184E-002  0.5523686E+03  0.7818608E-02  0.1000971E+00
         21   -1    0    0  503  502  0.00000000000E+00  0.00000000000E+00  0.69488694183E+03  0.69488694183E+03  0.00000000000E+00 0.  1.
         21   -1    0    0  501  503 -0.00000000000E+00 -0.00000000000E+00 -0.55755884287E+03  0.55755884287E+03  0.00000000000E+00 0. -1.
          6    2    1    2  501    0  0.53620310744E+02  0.52135398394E+03 -0.22042820716E+03  0.59434195626E+03  0.17311456370E+03 0.  0.
         24    2    3    3    0    0 -0.27136263156E+02  0.16752391230E+03 -0.96446298111E+02  0.21079150639E+03  0.79564645265E+02 0.  0.
         -6    2    1    2    0  502 -0.53620310744E+02 -0.52135398394E+03  0.35775630612E+03  0.65810382844E+03  0.17443038765E+03 0.  0.
        -24    2    5    5    0    0  0.82936047145E+01 -0.10593196888E+03  0.60471853013E+02  0.14350794856E+03  0.75148655234E+02 0.  0.
          5    1    3    3  501    0  0.80756573900E+02  0.35383007165E+03 -0.12398190905E+03  0.38355044988E+03  0.47000000000E+01 0. -1.
        -13    1    4    4    0    0  0.25793936930E+02  0.47961376429E+02 -0.14050267424E+02  0.56240828817E+02  0.00000000000E+00 0.  1.
         14    1    4    4    0    0 -0.52930200086E+02  0.11956253587E+03 -0.82396030687E+02  0.15455067757E+03  0.00000000000E+00 0. -1.
         -5    1    5    5    0  502 -0.61913915458E+02 -0.41542201506E+03  0.29728445310E+03  0.51459587987E+03  0.47000000000E+01 0.  1.
         11    1    6    6    0    0  0.14036015625E+02 -0.34024183168E+02 -0.14415556438E+02  0.39528003267E+02  0.00000000000E+00 0. -1.
        -12    1    6    6    0    0 -0.57424109110E+01 -0.71907785716E+02  0.74887409451E+02  0.10397994530E+03  0.00000000000E+00 0.  1.
</event>
<event>
12    1  0.8113184E-002  0.2041313E+03  0.7818608E-02  0.1146712E+00
         21   -1    0    0  501  502  0.00000000000E+00  0.00000000000E+00  0.34102392289E+03  0.34102392289E+03  0.00000000000E+00 0.  1.
         21   -1    0    0  502  503 -0.00000000000E+00 -0.00000000000E+00 -0.12961537979E+03  0.12961537979E+03  0.00000000000E+00 0.  1.
         -6    2    1    2    0  503  0.81859984544E+02 -0.67526122196E+02  0.44534384303E+02  0.20697936076E+03  0.17203578159E+03 0.  0.
        -24    2    3    3    0    0  0.91364335276E+02 -0.15503401886E+02 -0.20352045401E+02  0.12314002112E+03  0.78494979579E+02 0.  0.
          6    2    1    2  501    0 -0.81859984544E+02  0.67526122196E+02  0.16687415879E+03  0.26365994192E+03  0.17438103640E+03 0.  0.
         24    2    5    5    0    0 -0.26362580418E+02  0.45862563814E+02  0.17971787245E+03  0.20253447582E+03  0.76963236756E+02 0.  0.
          5    1    5    5  501    0 -0.55497404125E+02  0.21663558382E+02 -0.12843713653E+02  0.61125466107E+02  0.47000000000E+01 0. -1.
        -11    1    6    6    0    0 -0.25273587256E+02  0.62205239866E+02  0.17157100185E+03  0.18424129493E+03  0.00000000000E+00 0.  1.
         12    1    6    6    0    0 -0.10889931628E+01 -0.16342676052E+02  0.81468705948E+01  0.18293180892E+02  0.00000000000E+00 0. -1.
         -5    1    3    3    0  503 -0.95043507321E+01 -0.52022720310E+02  0.64886429704E+02  0.83839339639E+02  0.47000000000E+01 0.  1.
         13    1    4    4    0    0  0.10098040167E+03 -0.20926805064E+02 -0.31119037396E+02  0.10771892675E+03  0.00000000000E+00 0. -1.
        -14    1    4    4    0    0 -0.96160663948E+01  0.54234031785E+01  0.10766991995E+02  0.15421094370E+02  0.00000000000E+00 0.  1.
</event>
<event>
12    1  0.8113184E-002  0.1987324E+03  0.7818608E-02  0.1150962E+00
         21   -1    0    0  501  502  0.00000000000E+00  0.00000000000E+00  0.21961654595E+03  0.21961654595E+03  0.00000000000E+00 0.  1.
         21   -1    0    0  502  503 -0.00000000000E+00 -0.00000000000E+00 -0.25694450926E+03  0.25694450926E+03  0.00000000000E+00 0.  1.
         -6    2    1    2    0  503 -0.74157693292E+02 -0.64005480134E+02 -0.14970838042E+03  0.24825443957E+03  0.17210927528E+03 0.  0.
        -24    2    3    3    0    0 -0.12407670470E+02 -0.98114024938E+02 -0.10385577043E+03  0.16398694887E+03  0.79532296397E+02 0.  0.
          6    2    1    2  501    0  0.74157693292E+02  0.64005480134E+02  0.11238041711E+03  0.22830661563E+03  0.17291179147E+03 0.  0.
         24    2    5    5    0    0  0.11679855860E+03  0.51011179108E+02  0.10482650559E+03  0.18285062777E+03  0.78750949948E+02 0.  0.
          5    1    5    5  501    0 -0.42640865306E+02  0.12994301026E+02  0.75539115228E+01  0.45455987862E+02  0.47000000000E+01 0. -1.
        -13    1    6    6    0    0  0.23300403117E+02  0.48428791058E+02  0.54898980834E+02  0.76825482006E+02  0.00000000000E+00 0.  1.
         14    1    6    6    0    0  0.93498155481E+02  0.25823880492E+01  0.49927524754E+02  0.10602514577E+03  0.00000000000E+00 0. -1.
         -5    1    3    3    0  503 -0.61750022822E+02  0.34108544804E+02 -0.45852609989E+02  0.84267490706E+02  0.47000000000E+01 0.  1.
         11    1    4    4    0    0 -0.23752025902E+02 -0.74144186093E+02 -0.26548540676E+02  0.82257790378E+02  0.00000000000E+00 0. -1.
        -12    1    4    4    0    0  0.11344355432E+02 -0.23969838845E+02 -0.77307229759E+02  0.81729158489E+02  0.00000000000E+00 0.  1.
</event>
<event>
12    1  0.8113184E-002  0.2038700E+03  0.7818608E-02  0.1146839E+00
         21   -1    0    0  501  502  0.00000000000E+00  0.00000000000E+00  0.65524294238E+03  0.65524294238E+03  0.00000000000E+00 0. -1.
         21   -1    0    0  502  503 -0.00000000000E+00 -0.00000000000E+00 -0.86352391280E+02  0.86352391280E+02  0.00000000000E+00 0.  1.
         -6    2    1    2    0  503 -0.73382606166E+02  0.76205364672E+02  0.90588448414E+02  0.22165697621E+03  0.17243341795E+03 0.  0.
        -24    2    3    3    0    0 -0.10534413394E+03  0.77903328734E+02  0.10585135986E+03  0.18588731302E+03  0.78633755941E+02 0.  0.
          6    2    1    2  501    0  0.73382606166E+02 -0.76205364672E+02  0.47830210268E+03  0.51993835744E+03  0.17427199895E+03 0.  0.
         24    2    5    5    0    0  0.65688974483E+02  0.22552820713E+02  0.22987015664E+03  0.25244463235E+03  0.77873823576E+02 0.  0.
          5    1    5    5  501    0  0.76936316836E+01 -0.98758185385E+02  0.24843194604E+03  0.26749372509E+03  0.47000000000E+01 0. -1.
        -13    1    6    6    0    0  0.51164029033E+02 -0.61549387669E+01  0.57988339513E+02  0.77577629879E+02  0.00000000000E+00 0.  1.
         14    1    6    6    0    0  0.14524945450E+02  0.28707759480E+02  0.17188181713E+03  0.17486700248E+03  0.00000000000E+00 0. -1.
         -5    1    3    3    0  503  0.31961527769E+02 -0.16979640623E+01 -0.15262911450E+02  0.35769663197E+02  0.47000000000E+01 0.  1.
         13    1    4    4    0    0  0.41988016974E+01  0.14736515064E+02  0.41014568804E+02  0.43783440547E+02  0.00000000000E+00 0. -1.
        -14    1    4    4    0    0 -0.10954293563E+03  0.63166813670E+02  0.64836791060E+02  0.14210387247E+03  0.00000000000E+00 0.  1.
</event>
<event>
12    1  0.8113184E-002  0.1779728E+03  0.7818608E-02  0.1169940E+00
         21   -1    0    0  501  502  0.00000000000E+00  0.00000000000E+00  0.24710570174E+03  0.24710570174E+03  0.00000000000E+00 0.  1.
         21   -1    0    0  502  503 -0.00000000000E+00 -0.00000000000E+00 -0.14966256542E+03  0.14966256542E+03  0.00000000000E+00 0. -1.
         -6    2    1    2    0  503  0.39201279893E+02  0.24934559619E+02 -0.27332564394E+02  0.17941307253E+03  0.17112424992E+03 0.  0.
        -24    2    3    3    0    0  0.90159734698E-01 -0.41515476776E+02 -0.45588503635E+02  0.10003639854E+03  0.78774529056E+02 0.  0.
          6    2    1    2  501    0 -0.39201279893E+02 -0.24934559619E+02  0.12477570072E+03  0.21735519463E+03  0.17180172448E+03 0.  0.
         24    2    5    5    0    0  0.33625735503E+01  0.16561185789E+02  0.13397004707E+03  0.15702108726E+03  0.80137809786E+02 0.  0.
          5    1    5    5  501    0 -0.42563853443E+02 -0.41495745408E+02 -0.91943463542E+01  0.60334107367E+02  0.47000000000E+01 0. -1.
        -13    1    6    6    0    0 -0.91312006193E+00 -0.14931788760E+02  0.12222706036E+03  0.12313913427E+03  0.00000000000E+00 0.  1.
         14    1    6    6    0    0  0.42756936122E+01  0.31492974549E+02  0.11742986709E+02  0.33881952993E+02  0.00000000000E+00 0. -1.
         -5    1    3    3    0  503  0.39111120158E+02  0.66450036394E+02  0.18255939241E+02  0.79376673994E+02  0.47000000000E+01 0.  1.
         11    1    4    4    0    0  0.18484913303E+01 -0.40021849267E+02 -0.67235208117E+02  0.78267097490E+02  0.00000000000E+00 0. -1.
        -12    1    4    4    0    0 -0.17583315956E+01 -0.14936275090E+01  0.21646704483E+02  0.21769301047E+02  0.00000000000E+00 0.  1.
</event>
<event>
12    1  0.8113184E-002  0.2349283E+03  0.7818608E-02  0.1123302E+00
         21   -1    0    0  501  502  0.00000000000E+00  0.00000000000E+00  0.11295074063E+04  0.11295074063E+04  0.00000000000E+00 0.  1.
         21   -1    0    0  502  503 -0.00000000000E+00 -0.00000000000E+00 -0.48935452688E+02  0.48935452688E+02  0.00000000000E+00 0. -1.
         -6    2    1    2    0  503  0.57760213046E+02  0.14979817713E+03  0.57592936477E+03  0.62200155683E+03  0.17150967149E+03 0.  0.
        -24    2    3    3    0    0  0.23809281333E+02  0.14161095992E+03  0.28403901723E+03  0.32799175890E+03  0.79245723883E+02 0.  0.
          6    2    1    2  501    0 -0.57760213046E+02 -0.14979817713E+03  0.50464258879E+03  0.55644130211E+03  0.17084216161E+03 0.  0.
         24    2    5    5    0    0 -0.46953578193E+02 -0.17583803085E+03  0.47721240361E+03  0.51682612323E+03  0.79081678607E+02 0.  0.
          5    1    5    5  501    0 -0.10806634854E+02  0.26039853721E+02  0.27430185184E+02  0.39615178882E+02  0.47000000000E+01 0. -1.
        -13    1    6    6    0    0 -0.24361779167E+02 -0.51880319008E+02  0.25514224737E+03  0.26150072692E+03  0.00000000000E+00 0.  1.
         14    1    6    6    0    0 -0.22591799025E+02 -0.12395771184E+03  0.22207015624E+03  0.25532539631E+03  0.00000000000E+00 0. -1.
         -5    1    3    3    0  503  0.33950931714E+02  0.81872172084E+01  0.29189034754E+03  0.29400979793E+03  0.47000000000E+01 0.  1.
         13    1    4    4    0    0  0.43098592526E+02  0.38947622318E+02  0.81254193789E+02  0.99883181619E+02  0.00000000000E+00 0. -1.
        -14    1    4    4    0    0 -0.19289311193E+02  0.10266333760E+03  0.20278482344E+03  0.22810857728E+03  0.00000000000E+00 0.  1.
</event>
<event>
12    1  0.8113184E-002  0.2127402E+03  0.7818608E-02  0.1139522E+00
         21   -1    0    0  503  502  0.00000000000E+00  0.00000000000E+00  0.39792081849E+03  0.39792081849E+03  0.00000000000E+00 0. -1.
         21   -1    0    0  501  503 -0.00000000000E+00 -0.00000000000E+00 -0.12078337982E+03  0.12078337982E+03  0.00000000000E+00 0. -1.
          6    2    1    2  501    0 -0.49716578949E+02 -0.11389149293E+03  0.20233726535E+03  0.29319712534E+03  0.17199178751E+03 0.  0.
         24    2    3    3    0    0 -0.49193521855E+02 -0.52646904681E+01  0.13661871373E+03  0.16614959947E+03  0.80580995922E+02 0.  0.
         -6    2    1    2    0  502  0.49716578949E+02  0.11389149293E+03  0.74800173315E+02  0.22550707297E+03  0.17267125889E+03 0.  0.
        -24    2    5    5    0    0  0.45094142296E+02  0.11438678019E+03 -0.36797737393E+01  0.14674918880E+03  0.80024786950E+02 0.  0.
          5    1    3    3  501    0 -0.52305709400E+00 -0.10862680246E+03  0.65718551621E+02  0.12704752587E+03  0.47000000000E+01 0. -1.
        -13    1    4    4    0    0  0.14898915029E+02  0.12484933179E+02  0.73591648903E+01  0.20784814971E+02  0.00000000000E+00 0.  1.
         14    1    4    4    0    0 -0.64092436884E+02 -0.17749623647E+02  0.12925954884E+03  0.14536478450E+03  0.00000000000E+00 0. -1.
         -5    1    5    5    0  502  0.46224366534E+01 -0.49528725800E+00  0.78479947055E+02  0.78757884175E+02  0.47000000000E+01 0.  1.
         11    1    6    6    0    0  0.44682425626E+02  0.17158770853E+02  0.89821747677E+01  0.48699302260E+02  0.00000000000E+00 0. -1.
        -12    1    6    6    0    0  0.41171666975E+00  0.97228009335E+02 -0.12661948507E+02  0.98049886536E+02  0.00000000000E+00 0.  1.
</event>
<event>
12    1  0.8113184E-002  0.2721202E+03  0.7818608E-02  0.1100094E+00
         21   -1    0    0  503  502  0.00000000000E+00  0.00000000000E+00  0.87139006875E+03  0.87139006875E+03  0.00000000000E+00 0. -1.
         21   -1    0    0  501  503 -0.00000000000E+00 -0.00000000000E+00 -0.57536846304E+03  0.57536846304E+03  0.00000000000E+00 0.  1.
          6    2    1    2  501    0  0.12449544028E+03 -0.16997352265E+03 -0.51985475771E+03  0.58669826406E+03  0.17197607651E+03 0.  0.
         24    2    3    3    0    0  0.15326914556E+03 -0.16902943324E+03 -0.48245757937E+03  0.53926982989E+03  0.77357955348E+02 0.  0.
         -6    2    1    2    0  502 -0.12449544028E+03  0.16997352265E+03  0.81587636342E+03  0.86006026773E+03  0.17221878728E+03 0.  0.
        -24    2    5    5    0    0 -0.12171685648E+02  0.88943939129E+02  0.51542927129E+03  0.52919327870E+03  0.79492252969E+02 0.  0.
          5    1    3    3  501    0 -0.28773705283E+02 -0.94408940872E+00 -0.37397178337E+02  0.47428434173E+02  0.47000000000E+01 0. -1.
        -11    1    4    4    0    0  0.28470551301E+02 -0.98124787687E+01 -0.12462355100E+03  0.12821032133E+03  0.00000000000E+00 0.  1.
         12    1    4    4    0    0  0.12479859426E+03 -0.15921695447E+03 -0.35783402837E+03  0.41105950856E+03  0.00000000000E+00 0. -1.
         -5    1    5    5    0  502 -0.11232375463E+03  0.81029583519E+02  0.30044709213E+03  0.33086698903E+03  0.47000000000E+01 0.  1.
         13    1    6    6    0    0 -0.66759870498E+01  0.90636053097E+02  0.29483635138E+03  0.30852542362E+03  0.00000000000E+00 0. -1.
        -14    1    6    6    0    0 -0.54956985979E+01 -0.16921139679E+01  0.22059291991E+03  0.22066785509E+03  0.00000000000E+00 0.  1.
</event>
<event>
12    1  0.8113184E-002  0.1915258E+03  0.7818608E-02  0.1158237E+00
         21   -1    0    0  501  502  0.00000000000E+00  0.00000000000E+00  0.28561570319E+03  0.28561570319E+03  0.00000000000E+00 0. -1.
         21   -1    0    0  502  503 -0.00000000000E+00 -0.00000000000E+00 -0.12629439676E+03  0.12629439676E+03  0.00000000000E+00 0. -1.
         -6    2    1    2    0  503  0.12999167143E+02 -0.72359373902E+02  0.60387304127E+02  0.20082021820E+03  0.17685382722E+03 0.  0.
        -24    2    3    3    0    0  0.62745018996E+02 -0.19963741311E+02 -0.24303639556E+01  0.10496563295E+03  0.81709173630E+02 0.  0.
          6    2    1    2  501    0 -0.12999167143E+02  0.72359373902E+02  0.98934002297E+02  0.21108988175E+03  0.17136552754E+03 0.  0.
         24    2    5    5    0    0  0.32872750062E+02  0.96392634060E+02  0.46841107529E+02  0.13748560152E+03  0.79599269304E+02 0.  0.
          5    1    5    5  501    0 -0.45871917205E+02 -0.24033260158E+02  0.52092894768E+02  0.73604280224E+02  0.47000000000E+01 0. -1.
        -13    1    6    6    0    0  0.57936255123E+02  0.53832140047E+02  0.36119614524E+02  0.86943289063E+02  0.00000000000E+00 0.  1.
         14    1    6    6    0    0 -0.25063505060E+02  0.42560494013E+02  0.10721493005E+02  0.50542312460E+02  0.00000000000E+00 0. -1.
         -5    1    3    3    0  503 -0.49745851853E+02 -0.52395632591E+02  0.62817668082E+02  0.95854585255E+02  0.47000000000E+01 0.  1.
         11    1    4    4    0    0  0.19751279115E+02 -0.44521166153E+02 -0.19683637001E+02  0.52532778605E+02  0.00000000000E+00 0. -1.
        -12    1    4    4    0    0  0.42993739881E+02  0.24557424842E+02  0.17253273046E+02  0.52432854344E+02  0.00000000000E+00 0.  1.
</event>
<event>
12    1  0.8113184E-002  0.1876110E+03  0.7818608E-02  0.1160933E+00
         21   -1    0    0  503  502  0.00000000000E+00  0.00000000000E+00  0.27521512973E+03  0.27521512973E+03  0.00000000000E+00 0.  1.
         21   -1    0    0  501  503 -0.00000000000E+00 -0.00000000000E+00 -0.21777501303E+03  0.21777501303E+03  0.00000000000E+00 0.  1.
          6    2    1    2  501    0  0.70903837393E+02 -0.18400672705E+02 -0.13047397548E+03  0.22745369376E+03  0.17130611668E+03 0.  0.
         24    2    3    3    0    0  0.21650714475E+02  0.38449749785E+01 -0.14725386177E+03  0.17066995012E+03  0.83432576348E+02 0.  0.
         -6    2    1    2    0  502 -0.70903837393E+02  0.18400672705E+02  0.18791409218E+03  0.26553644900E+03  0.17271931216E+03 0.  0.
        -24    2    5    5    0    0  0.82419096069E+01  0.57125340481E+02  0.90488471894E+02  0.13409258018E+03  0.80382976520E+02 0.  0.
          5    1    3    3  501    0  0.49253122917E+02 -0.22245647684E+02  0.16779886289E+02  0.56783743641E+02  0.47000000000E+01 0. -1.
        -11    1    4    4    0    0  0.31416597126E+02  0.37497228728E+02 -0.10456003909E+03  0.11543763040E+03  0.00000000000E+00 0.  1.
         12    1    4    4    0    0 -0.97658826507E+01 -0.33652253749E+02 -0.42693822680E+02  0.55232319717E+02  0.00000000000E+00 0. -1.
         -5    1    5    5    0  502 -0.79145747000E+02 -0.38724667775E+02  0.97425620285E+02  0.13144386882E+03  0.47000000000E+01 0.  1.
         11    1    6    6    0    0  0.86874546350E+01  0.17917563669E+02 -0.12759508750E+02  0.23649862990E+02  0.00000000000E+00 0. -1.
        -12    1    6    6    0    0 -0.44554502812E+00  0.39207776812E+02  0.10324798064E+03  0.11044271719E+03  0.00000000000E+00 0.  1.
</event>
<event>
12    1  0.8113184E-002  0.1921898E+03  0.7818608E-02  0.1156536E+00
         21   -1    0    0  501  502  0.00000000000E+00  0.00000000000E+00  0.16992505803E+04  0.16992505803E+04  0.00000000000E+00 0.  1.
         21   -1    0    0  502  503 -0.00000000000E+00 -0.00000000000E+00 -0.95942136512E+02  0.95942136512E+02  0.00000000000E+00 0.  1.
         -6    2    1    2    0  503 -0.37806035867E+02  0.75936278543E+02  0.12241797299E+02  0.19257929899E+03  0.17245669037E+03 0.  0.
        -24    2    3    3    0    0  0.23141739529E+02 -0.73744460434E+01 -0.15689053810E+02  0.85539443797E+02  0.80504207796E+02 0.  0.
          6    2    1    2  501    0  0.37806035867E+02 -0.75936278543E+02  0.15910666464E+04  0.16026134178E+04  0.17228197426E+03 0.  0.
         24    2    5    5    0    0  0.44699760096E+02 -0.14035038650E+02  0.44284559789E+03  0.45269474531E+03  0.81395687845E+02 0.  0.
          5    1    5    5  501    0 -0.68937242290E+01 -0.61901239892E+02  0.11482210486E+04  0.11499186725E+04  0.47000000000E+01 0. -1.
        -11    1    6    6    0    0  0.24773821419E+02 -0.25575043481E+02  0.41516357053E+03  0.41668767125E+03  0.00000000000E+00 0.  1.
         12    1    6    6    0    0  0.19925938677E+02  0.11540004830E+02  0.27682027356E+02  0.36007074057E+02  0.00000000000E+00 0. -1.
         -5    1    3    3    0  503 -0.60947775397E+02  0.83310724586E+02  0.27930851109E+02  0.10703985520E+03  0.47000000000E+01 0.  1.
         11    1    4    4    0    0  0.38359983521E+02 -0.55197847789E+00  0.22071459554E+02  0.44259940610E+02  0.00000000000E+00 0. -1.
        -12    1    4    4    0    0 -0.15218243992E+02 -0.68224675655E+01 -0.37760513364E+02  0.41279503187E+02  0.00000000000E+00 0.  1.
</event>
<event>
12    1  0.8113184E-002  0.2713009E+03  0.7818608E-02  0.1100626E+00
         21   -1    0    0  501  502  0.00000000000E+00  0.00000000000E+00  0.15679545028E+03  0.15679545028E+03  0.00000000000E+00 0.  1.
         21   -1    0    0  502  503 -0.00000000000E+00 -0.00000000000E+00 -0.78444866043E+03  0.78444866043E+03  0.00000000000E+00 0.  1.
         -6    2    1    2    0  503 -0.20799092879E+03  0.19728761717E+02 -0.61235465859E+03  0.66951225663E+03  0.17210166583E+03 0.  0.
        -24    2    3    3    0    0 -0.37006206474E+02  0.44763167269E+02 -0.21452483076E+03  0.23574600778E+03  0.78626183367E+02 0.  0.
          6    2    1    2  501    0  0.20799092879E+03 -0.19728761717E+02 -0.15298551559E+02  0.27173185407E+03  0.17307427406E+03 0.  0.
         24    2    5    5    0    0  0.15282287141E+03 -0.79432717152E+02 -0.99909161602E+01  0.19013321534E+03  0.79915171209E+02 0.  0.
          5    1    5    5  501    0  0.55168057382E+02  0.59703955434E+02 -0.53076353985E+01  0.81598638734E+02  0.47000000000E+01 0. -1.
        -11    1    6    6    0    0  0.10314168866E+03 -0.52209341125E+02 -0.44417085370E+02  0.12384224123E+03  0.00000000000E+00 0.  1.
         12    1    6    6    0    0  0.49681182747E+02 -0.27223376026E+02  0.34426169210E+02  0.66290974106E+02  0.00000000000E+00 0. -1.
         -5    1    3    3    0  503 -0.17098472232E+03 -0.25034405552E+02 -0.39782982784E+03  0.43376624885E+03  0.47000000000E+01 0.  1.
         13    1    4    4    0    0 -0.68037864350E+01  0.55310957780E+02 -0.80178029357E+02  0.97642767023E+02  0.00000000000E+00 0. -1.
        -14    1    4    4    0    0 -0.30202420039E+02 -0.10547790511E+02 -0.13434680140E+03  0.13810324076E+03  0.00000000000E+00 0.  1.
</event>
<event>
12    1  0.8113184E-002  0.2304480E+03  0.7818608E-02  0.1126380E+00
         21   -1    0    0  503  502  0.00000000000E+00  0.00000000000E+00  0.24941335130E+03  0.24941335130E+03  0.00000000000E+00 0. -1.
         21   -1    0    0  501  503 -0.00000000000E+00 -0.00000000000E+00 -0.22803354475E+03  0.22803354475E+03  0.00000000000E+00 0.  1.
          6    2    1    2  501    0  0.47764045857E+02  0.14524919853E+03  0.72721208139E+02  0.24134895651E+03  0.17199479917E+03 0.  0.
         24    2    3    3    0    0 -0.29239393731E+02  0.12080037190E+03  0.60411624867E+02  0.15948998832E+03  0.79622986366E+02 0.  0.
         -6    2    1    2    0  502 -0.47764045857E+02 -0.14524919853E+03 -0.51341401587E+02  0.23609793954E+03  0.17241683151E+03 0.  0.
        -24    2    5    5    0    0 -0.19698495750E+02 -0.16976987581E+03 -0.59764021771E+02  0.19760158585E+03  0.79150533587E+02 0.  0.
          5    1    3    3  501    0  0.77003439588E+02  0.24448826629E+02  0.12309583272E+02  0.81858968185E+02  0.47000000000E+01 0. -1.
        -11    1    4    4    0    0 -0.49399919198E+02  0.77463319969E+02  0.14124333624E+02  0.92953831323E+02  0.00000000000E+00 0.  1.
         12    1    4    4    0    0  0.20160525466E+02  0.43337051935E+02  0.46287291243E+02  0.66536156998E+02  0.00000000000E+00 0. -1.
         -5    1    5    5    0  502 -0.28065550107E+02  0.24520677274E+02  0.84226201840E+01  0.38496353691E+02  0.47000000000E+01 0.  1.
         13    1    6    6    0    0  0.93093637212E+01 -0.49804705612E+02  0.15568619754E+02  0.53005234412E+02  0.00000000000E+00 0. -1.
        -14    1    6    6    0    0 -0.29007859471E+02 -0.11996517019E+03 -0.75332641525E+02  0.14459635144E+03  0.00000000000E+00 0.  1.
</event>
<event>
12    1  0.8113184E-002  0.2035147E+03  0.7818608E-02  0.1146820E+00
         21   -1    0    0  503  502  0.00000000000E+00  0.00000000000E+00  0.20017135035E+03  0.20017135035E+03  0.00000000000E+00 0. -1.
         21   -1    0    0  501  503 -0.00000000000E+00 -0.00000000000E+00 -0.48476259503E+03  0.48476259503E+03  0.00000000000E+00 0. -1.
          6    2    1    2  501    0  0.45429575701E+02 -0.99034859139E+02 -0.40159025078E+03  0.45018512868E+03  0.17181435008E+03 0.  0.
         24    2    3    3    0    0 -0.29581123476E+01  0.12243621083E+02 -0.14826997584E+03  0.16926250551E+03  0.80666928481E+02 0.  0.
         -6    2    1    2    0  502 -0.45429575701E+02  0.99034859139E+02  0.11699900610E+03  0.23474881670E+03  0.17189092425E+03 0.  0.
        -24    2    5    5    0    0 -0.14688474274E+02  0.13381812707E+03  0.97535449805E+02  0.18419378660E+03  0.79316736211E+02 0.  0.
          5    1    3    3  501    0  0.48387688048E+02 -0.11127848022E+03 -0.25332027493E+03  0.28092262317E+03  0.47000000000E+01 0. -1.
        -11    1    4    4    0    0 -0.11245881868E+02  0.89777741862E+01 -0.15648472129E+03  0.15714495946E+03  0.00000000000E+00 0.  1.
         12    1    4    4    0    0  0.82877695207E+01  0.32658468968E+01  0.82147454443E+01  0.12117546051E+02  0.00000000000E+00 0. -1.
         -5    1    5    5    0  502 -0.30741101427E+02 -0.34783267931E+02  0.19463556294E+02  0.50555030101E+02  0.47000000000E+01 0.  1.
         11    1    6    6    0    0  0.20334485985E+02  0.92220233392E+02  0.87811088707E+02  0.12895289864E+03  0.00000000000E+00 0. -1.
        -12    1    6    6    0    0 -0.35022960259E+02  0.41597893678E+02  0.97243610978E+01  0.55240887959E+02  0.00000000000E+00 0.  1.
</event>
<event>
12    1  0.8113184E-002  0.2942657E+03  0.7818608E-02  0.1088222E+00
         21   -1    0    0  501  502  0.00000000000E+00  0.00000000000E+00  0.32323389372E+03  0.32323389372E+03  0.00000000000E+00 0. -1.
         21   -1    0    0  502  503 -0.00000000000E+00 -0.00000000000E+00 -0.29937616208E+03  0.29937616208E+03  0.00000000000E+00 0. -1.
         -6    2    1    2    0  503 -0.56479737032E+02 -0.23076786008E+03 -0.89929014138E+02  0.30711089003E+03  0.17258651526E+03 0.  0.
        -24    2    3    3    0    0 -0.63706265021E+02 -0.10962969007E+03 -0.94617488426E+02  0.18557591263E+03  0.96998933418E+02 0.  0.
          6    2    1    2  501    0  0.56479737032E+02  0.23076786008E+03  0.11378674578E+03  0.31549916577E+03  0.17363333247E+03 0.  0.
         24    2    5    5    0    0 -0.58309642873E+00  0.89077546546E+02 -0.88906775161E+01  0.11952939234E+03  0.79202791527E+02 0.  0.
          5    1    5    5  501    0  0.57062833461E+02  0.14169031354E+03  0.12267742329E+03  0.19596977343E+03  0.47000000000E+01 0. -1.
        -11    1    6    6    0    0 -0.65338965845E+01  0.10256688614E+03 -0.94096075330E+00  0.10277909975E+03  0.00000000000E+00 0.  1.
         12    1    6    6    0    0  0.59508001557E+01 -0.13489339597E+02 -0.79497167628E+01  0.16750292590E+02  0.00000000000E+00 0. -1.
         -5    1    3    3    0  503  0.72265279896E+01 -0.12113817001E+03  0.46884742882E+01  0.12153497740E+03  0.47000000000E+01 0.  1.
         13    1    4    4    0    0 -0.45968833700E+02 -0.88099529916E+02 -0.11428405016E+03  0.15144472577E+03  0.00000000000E+00 0. -1.
        -14    1    4    4    0    0 -0.17737431321E+02 -0.21530160155E+02  0.19666561731E+02  0.34131186860E+02  0.00000000000E+00 0.  1.
</event>
<event>
12    1  0.8113184E-002  0.1781267E+03  0.7818608E-02  0.1170503E+00
         21   -1    0    0  503  502  0.00000000000E+00  0.00000000000E+00  0.29345677491E+03  0.29345677491E+03  0.00000000000E+00 0. -1.
         21   -1    0    0  501  503 -0.00000000000E+00 -0.00000000000E+00 -0.34154214049E+03  0.34154214049E+03  0.00000000000E+00 0. -1.
          6    2    1    2  501    0  0.29042888761E+02 -0.32977523445E+01 -0.28763551653E+03  0.33648022490E+03  0.17213479260E+03 0.  0.
         24    2    3    3    0    0  0.18807659519E+02  0.49950575256E+02 -0.25643468442E+03  0.27374485821E+03  0.79553202297E+02 0.  0.
         -6    2    1    2    0  502 -0.29042888761E+02  0.32977523445E+01  0.23955015095E+03  0.29851869050E+03  0.17571217715E+03 0.  0.
        -24    2    5    5    0    0 -0.35179662689E+02  0.13411949239E+02  0.37976338617E+02  0.96543323702E+02  0.80379860707E+02 0.  0.
          5    1    3    3  501    0  0.10235229241E+02 -0.53248327601E+02 -0.31200832108E+02  0.62735366693E+02  0.47000000000E+01 0. -1.
        -11    1    4    4    0    0 -0.18260130037E+02  0.49346180474E+02 -0.19515613058E+03  0.20212469710E+03  0.00000000000E+00 0.  1.
         12    1    4    4    0    0  0.37067789556E+02  0.60439478176E+00 -0.61278553845E+02  0.71620161107E+02  0.00000000000E+00 0. -1.
         -5    1    5    5    0  502  0.61367739287E+01 -0.10114196894E+02  0.20157381233E+03  0.20197536679E+03  0.47000000000E+01 0.  1.
         11    1    6    6    0    0  0.11258056786E+02  0.54942824593E+00  0.46292376082E+02  0.47644829701E+02  0.00000000000E+00 0. -1.
        -12    1    6    6    0    0 -0.46437719475E+02  0.12862520993E+02 -0.83160374651E+01  0.48898494000E+02  0.00000000000E+00 0.  1.
</event>
<event>
12    1  0.8113184E-002  0.2845375E+03  0.7818608E-02  0.1093349E+00
         21   -1    0    0  501  502  0.00000000000E+00  0.00000000000E+00  0.12638445059E+04  0.12638445059E+04  0.00000000000E+00 0. -1.
         21   -1    0    0  502  503 -0.00000000000E+00 -0.00000000000E+00 -0.13998461768E+03  0.13998461768E+03  0.00000000000E+00 0.  1.
         -6    2    1    2    0  503 -0.21829428970E+03  0.61027841572E+02  0.44729945988E+02  0.28803189657E+03  0.17200235757E+03 0.  0.
        -24    2    3    3    0    0 -0.15141722071E+03 -0.87876639674E+01  0.74741256931E+02  0.18669327631E+03  0.79143705797E+02 0.  0.
          6    2    1    2  501    0  0.21829428970E+03 -0.61027841572E+02  0.10791299422E+04  0.11157972270E+04  0.17060253582E+03 0.  0.
         24    2    5    5    0    0  0.20674314746E+03 -0.98007474295E+02  0.87247456717E+03  0.90548922392E+03  0.79691092587E+02 0.  0.
          5    1    5    5  501    0  0.11551142238E+02  0.36979632723E+02  0.20665537503E+03  0.21030800306E+03  0.47000000000E+01 0. -1.
        -13    1    6    6    0    0  0.12172382039E+03 -0.20064549940E+02  0.37306400875E+03  0.39293260139E+03  0.00000000000E+00 0.  1.
         14    1    6    6    0    0  0.85019327069E+02 -0.77942924355E+02  0.49941055842E+03  0.51255662253E+03  0.00000000000E+00 0. -1.
         -5    1    3    3    0  503 -0.66877068990E+02  0.69815505539E+02 -0.30011310943E+02  0.10133862025E+03  0.47000000000E+01 0.  1.
         13    1    4    4    0    0 -0.72097425791E+02  0.60409423915E+00  0.78684255047E+02  0.10672214263E+03  0.00000000000E+00 0. -1.
        -14    1    4    4    0    0 -0.79319794917E+02 -0.93917582066E+01 -0.39429981159E+01  0.79971133680E+02  0.00000000000E+00 0.  1.
</event>
<event>
12    1  0.8113184E-002  0.1772039E+03  0.7818608E-02  0.1171995E+00
         21   -1    0    0  501  502  0.00000000000E+00  0.00000000000E+00  0.90870839851E+03  0.90870839851E+03  0.00000000000E+00 0.  1.
         21   -1    0    0  502  503 -0.00000000000E+00 -0.00000000000E+00 -0.34774382613E+02  0.34774382613E+02  0.00000000000E+00 0.  1.
         -6    2    1    2    0  503 -0.27266723186E+02  0.27224881816E+02  0.53657336610E+03  0.56507716548E+03  0.17296403484E+03 0.  0.
        -24    2    3    3    0    0  0.51667159329E+02  0.86607693739E+01  0.31998050133E+03  0.33375543466E+03  0.79124361925E+02 0.  0.
          6    2    1    2  501    0  0.27266723186E+02 -0.27224881816E+02  0.33736064979E+03  0.37840561564E+03  0.16701477043E+03 0.  0.
         24    2    5    5    0    0  0.34600869850E+02 -0.40907212915E+01  0.34233458941E+03  0.35319035904E+03  0.79602163392E+02 0.  0.
          5    1    5    5  501    0 -0.73341466636E+01 -0.23134160525E+02 -0.49739396170E+01  0.25215256607E+02  0.47000000000E+01 0. -1.
        -11    1    6    6    0    0  0.50580251936E+02  0.19846669599E+02  0.17008831907E+03  0.17855612132E+03  0.00000000000E+00 0.  1.
         12    1    6    6    0    0 -0.15979382086E+02 -0.23937390891E+02  0.17224627034E+03  0.17463423771E+03  0.00000000000E+00 0. -1.
         -5    1    3    3    0  503 -0.78933882515E+02  0.18564112442E+02  0.21659286477E+03  0.23132173082E+03  0.47000000000E+01 0.  1.
         11    1    4    4    0    0  0.25625199684E+02 -0.34948353620E+02  0.12642309045E+03  0.13364443901E+03  0.00000000000E+00 0. -1.
        -12    1    4    4    0    0  0.26041959645E+02  0.43609122994E+02  0.19355741089E+03  0.20011099565E+03  0.00000000000E+00 0.  1.
</event>
<event>
12    1  0.8113184E-002  0.2526132E+03  0.7818608E-02  0.1111675E+00
         21   -1    0    0  503  502  0.00000000000E+00  0.00000000000E+00  0.30389347397E+03  0.30389347397E+03  0.00000000000E+00 0. -1.
         21   -1    0    0  501  503 -0.00000000000E+00 -0.00000000000E+00 -0.30331313729E+03  0.30331313729E+03  0.00000000000E+00 0. -1.
          6    2    1    2  501    0  0.27104468976E+02  0.18271706054E+03 -0.16817058908E+03  0.30341344612E+03  0.17221555041E+03 0.  0.
         24    2    3    3    0    0 -0.14417976194E+02  0.13018986660E+03 -0.17878553153E+03  0.23545767698E+03  0.79490703619E+02 0.  0.
         -6    2    1    2    0  502 -0.27104468976E+02 -0.18271706054E+03  0.16875092575E+03  0.30379316514E+03  0.17231725332E+03 0.  0.
        -24    2    5    5    0    0  0.22043676164E+02 -0.17941789611E+03  0.15870077307E+03  0.25330039115E+03  0.79362760022E+02 0.  0.
          5    1    3    3  501    0  0.41522445170E+02  0.52527193934E+02  0.10614942451E+02  0.67955769135E+02  0.47000000000E+01 0. -1.
        -11    1    4    4    0    0  0.36929254578E+01 -0.10570610573E+02 -0.10945017316E+02  0.15657870557E+02  0.00000000000E+00 0.  1.
         12    1    4    4    0    0 -0.18110901652E+02  0.14076047718E+03 -0.16784051421E+03  0.21979980643E+03  0.00000000000E+00 0. -1.
         -5    1    5    5    0  502 -0.49148145140E+02 -0.32991644282E+01  0.10050152680E+02  0.50492773993E+02  0.47000000000E+01 0.  1.
         13    1    6    6    0    0 -0.19938858360E+02 -0.13421709066E+03  0.10668563821E+03  0.17260825849E+03  0.00000000000E+00 0. -1.
        -14    1    6    6    0    0  0.41982534524E+02 -0.45200805449E+02  0.52015134861E+02  0.80692132658E+02  0.00000000000E+00 0.  1.
</event>
<event>
12    1  0.8113184E-002  0.2472767E+03  0.7818608E-02  0.1115044E+00
         21   -1    0    0  503  502  0.00000000000E+00  0.00000000000E+00  0.23173972115E+03  0.23173972115E+03  0.00000000000E+00 0. -1.
         21   -1    0    0  501  503 -0.00000000000E+00 -0.00000000000E+00 -0.26394216433E+03  0.26394216433E+03  0.00000000000E+00 0. -1.
          6    2    1    2  501    0  0.17467938675E+03  0.33162522229E+02 -0.21460991153E+02  0.24817200751E+03  0.17180259059E+03 0.  0.
         24    2    3    3    0    0  0.42027484467E+02 -0.95061674911E+01 -0.51121362646E+02  0.10562737625E+03  0.81774520629E+02 0.  0.
         -6    2    1    2    0  502 -0.17467938675E+03 -0.33162522229E+02 -0.10741452029E+02  0.24750987797E+03  0.17185202898E+03 0.  0.
        -24    2    5    5    0    0 -0.11707057213E+03 -0.48837033270E+02 -0.68562537804E+02  0.16426425479E+03  0.78685126511E+02 0.  0.
          5    1    3    3  501    0  0.13265190228E+03  0.42668689720E+02  0.29660371493E+02  0.14254463125E+03  0.47000000000E+01 0. -1.
        -13    1    4    4    0    0  0.35980705265E+01  0.31744953973E+02 -0.34118187021E+02  0.46741190612E+02  0.00000000000E+00 0.  1.
         14    1    4    4    0    0  0.38429413940E+02 -0.41251121464E+02 -0.17003175626E+02  0.58886185640E+02  0.00000000000E+00 0. -1.
         -5    1    5    5    0  502 -0.57608814622E+02  0.15674511041E+02  0.57821085775E+02  0.83245623181E+02  0.47000000000E+01 0.  1.
         13    1    6    6    0    0 -0.32249636279E+02 -0.13319164486E+02  0.16860951969E+02  0.38752172636E+02  0.00000000000E+00 0. -1.
        -14    1    6    6    0    0 -0.84820935850E+02 -0.35517868785E+02 -0.85423489773E+02  0.12551208215E+03  0.00000000000E+00 0.  1.
</event>
<event>
12    1  0.8113184E-002  0.2649263E+03  0.7818608E-02  0.1104253E+00
         21   -1    0    0  503  502  0.00000000000E+00  0.00000000000E+00  0.13005107442E+04  0.13005107442E+04  0.00000000000E+00 0. -1.
         21   -1    0    0  501  503 -0.00000000000E+00 -0.00000000000E+00 -0.28879927616E+03  0.28879927616E+03  0.00000000000E+00 0. -1.
          6    2    1    2  501    0 -0.28782539374E+02  0.19915094566E+03 -0.21082602361E+03  0.33839680654E+03  0.17197456998E+03 0.  0.
         24    2    3    3    0    0 -0.11082836303E+02  0.16942985536E+03 -0.81819930551E+02  0.20475068896E+03  0.79993990071E+02 0.  0.
         -6    2    1    2    0  502  0.28782539374E+02 -0.19915094566E+03  0.12225374917E+04  0.12509132138E+04  0.17232648160E+03 0.  0.
        -24    2    5    5    0    0  0.44060218782E+02 -0.36443995156E+02  0.55523691949E+03  0.56387674983E+03  0.79996778515E+02 0.  0.
          5    1    3    3  501    0 -0.17699703071E+02  0.29721090294E+02 -0.12900609306E+03  0.13364611758E+03  0.47000000000E+01 0. -1.
        -11    1    4    4    0    0  0.21744574888E+02  0.13188131228E+02 -0.17375041598E+00  0.25431939201E+02  0.00000000000E+00 0.  1.
         12    1    4    4    0    0 -0.32827411191E+02  0.15624172413E+03 -0.81646180135E+02  0.17931874976E+03  0.00000000000E+00 0. -1.
         -5    1    5    5    0  502 -0.15277679408E+02 -0.16270695050E+03  0.66730057217E+03  0.68703646399E+03  0.47000000000E+01 0.  1.
         13    1    6    6    0    0  0.67585197376E+02 -0.29947158612E+02  0.41910289371E+03  0.42557235193E+03  0.00000000000E+00 0. -1.
        -14    1    6    6    0    0 -0.23524978594E+02 -0.64968365441E+01  0.13613402578E+03  0.13830439790E+03  0.00000000000E+00 0.  1.
</event>
<event>
12    1  0.8113184E-002  0.2190594E+03  0.7818608E-02  0.1134872E+00
         21   -1    0    0  503  502  0.00000000000E+00  0.00000000000E+00  0.21709133256E+03  0.21709133256E+03  0.00000000000E+00 0. -1.
         21   -1    0    0  501  503 -0.00000000000E+00 -0.00000000000E+00 -0.28759348667E+03  0.28759348667E+03  0.00000000000E+00 0.  1.
          6    2    1    2  501    0  0.33773981707E+02  0.12905210773E+03  0.87427112701E+02  0.23586119018E+03  0.17375808657E+03 0.  0.
         24    2    3    3    0    0  0.36770940613E+02  0.16085702132E+03  0.60020988313E+02  0.19350885914E+03  0.81339265707E+02 0.  0.
         -6    2    1    2    0  502 -0.33773981707E+02 -0.12905210773E+03 -0.15792926681E+03  0.26882362905E+03  0.17184109483E+03 0.  0.
        -24    2    5    5    0    0  0.28482150591E+02 -0.59960802903E+02 -0.24882879878E+02  0.10642638312E+03  0.79378123720E+02 0.  0.
          5    1    3    3  501    0 -0.29969589062E+01 -0.31804913584E+02  0.27406124389E+02  0.42352331043E+02  0.47000000000E+01 0. -1.
        -13    1    4    4    0    0 -0.33901594974E+00 -0.28106618692E+01 -0.10940429375E+02  0.11300785232E+02  0.00000000000E+00 0.  1.
         14    1    4    4    0    0  0.37109956563E+02  0.16366768319E+03  0.70961417688E+02  0.18220807390E+03  0.00000000000E+00 0. -1.
         -5    1    5    5    0  502 -0.62256132298E+02 -0.69091304829E+02 -0.13304638693E+03  0.16239724594E+03  0.47000000000E+01 0.  1.
         13    1    6    6    0    0 -0.21037637672E+02 -0.46183152512E+02 -0.38698284569E+01  0.50896378526E+02  0.00000000000E+00 0. -1.
        -14    1    6    6    0    0  0.49519788263E+02 -0.13777650391E+02 -0.21013051421E+02  0.55530004591E+02  0.00000000000E+00 0.  1.
</event>
<event>
12    1  0.8113184E-002  0.1878778E+03  0.7818608E-02  0.1160601E+00
         21   -1    0    0  503  502  0.00000000000E+00  0.00000000000E+00  0.39777555480E+03  0.39777555480E+03  0.00000000000E+00 0. -1.
         21   -1    0    0  501  503 -0.00000000000E+00 -0.00000000000E+00 -0.14572005697E+03  0.14572005697E+03  0.00000000000E+00 0. -1.
          6    2    1    2  501    0  0.71884070681E+02 -0.23596840236E+02 -0.44363090695E+02  0.19304444175E+03  0.17197075969E+03 0.  0.
         24    2    3    3    0    0 -0.15021481828E+02  0.31278389751E+01 -0.58740401120E+02  0.10087296791E+03  0.80557387234E+02 0.  0.
         -6    2    1    2    0  502 -0.71884070681E+02  0.23596840236E+02  0.29641858852E+03  0.35045117002E+03  0.17096172805E+03 0.  0.
        -24    2    5    5    0    0 -0.66954238402E+02 -0.43335397919E+02  0.13928690462E+03  0.17952228469E+03  0.80415061715E+02 0.  0.
          5    1    3    3  501    0  0.86905552509E+02 -0.26724679212E+02  0.14377310426E+02  0.92171473845E+02  0.47000000000E+01 0. -1.
        -13    1    4    4    0    0  0.51944405811E+01  0.23471671140E+02 -0.66872462331E+02  0.71062140253E+02  0.00000000000E+00 0.  1.
         14    1    4    4    0    0 -0.20215922409E+02 -0.20343832165E+02  0.81320612108E+01  0.29810827656E+02  0.00000000000E+00 0. -1.
         -5    1    5    5    0  502 -0.49298322792E+01  0.66932238156E+02  0.15713168391E+03  0.17092888533E+03  0.47000000000E+01 0.  1.
         11    1    6    6    0    0 -0.72320414568E+02 -0.98933748488E+01  0.12024627128E+03  0.14066729182E+03  0.00000000000E+00 0. -1.
        -12    1    6    6    0    0  0.53661761664E+01 -0.33442023070E+02  0.19040633333E+02  0.38854992876E+02  0.00000000000E+00 0.  1.
</event>
<event>
12    1  0.8113184E-002  0.2066906E+03  0.7818608E-02  0.1144359E+00
         21   -1    0    0  503  502  0.00000000000E+00  0.00000000000E+00  0.72064964885E+03  0.72064964885E+03  0.00000000000E+00 0.  1.
         21   -1    0    0  501  503 -0.00000000000E+00 -0.00000000000E+00 -0.62373040376E+02  0.62373040376E+02  0.00000000000E+00 0.  1.
          6    2    1    2  501    0 -0.73919912254E+02  0.86868042231E+02  0.41969225020E+03  0.46782752272E+03  0.17236819876E+03 0.  0.
         24    2    3    3    0    0  0.34792722748E+02  0.35696503312E+02  0.18575970396E+03  0.20479997740E+03  0.70367529610E+02 0.  0.
         -6    2    1    2    0  502  0.73919912254E+02 -0.86868042231E+02  0.23858435827E+03  0.31519516650E+03  0.17150885338E+03 0.  0.
        -24    2    5    5    0    0 -0.10221147738E+02 -0.69560753837E+02  0.70845088672E+02  0.12668041171E+03  0.78011087596E+02 0.  0.
          5    1    3    3  501    0 -0.10871263500E+03  0.51171538919E+02  0.23393254625E+03  0.26302754532E+03  0.47000000000E+01 0. -1.
        -13    1    4    4    0    0 -0.21069093848E+02  0.17709532430E+02  0.57036339133E+02  0.63329915807E+02  0.00000000000E+00 0.  1.
         14    1    4    4    0    0  0.55861816597E+02  0.17986970881E+02  0.12872336482E+03  0.14147006159E+03  0.00000000000E+00 0. -1.
         -5    1    5    5    0  502  0.84141059992E+02 -0.17307288394E+02  0.16773926960E+03  0.18851475479E+03  0.47000000000E+01 0.  1.
         11    1    6    6    0    0 -0.15341058766E+02 -0.14029580293E+02 -0.14061357628E+02  0.25097788460E+02  0.00000000000E+00 0. -1.
        -12    1    6    6    0    0  0.51199110283E+01 -0.55531173544E+02  0.84906446299E+02  0.10158262325E+03  0.00000000000E+00 0.  1.
</event>
<event>
12    1  0.8113184E-002  0.1985225E+03  0.7818608E-02  0.1151482E+00
         21   -1    0    0  503  502  0.00000000000E+00  0.00000000000E+00  0.83035316636E+02  0.83035316636E+02  0.00000000000E+00 0. -1.
         21   -1    0    0  501  503 -0.00000000000E+00 -0.00000000000E+00 -0.95190133897E+03  0.95190133897E+03  0.00000000000E+00 0. -1.
          6    2    1    2  501    0  0.97025173478E+02 -0.13668313597E+02 -0.80417180365E+03  0.82831363863E+03  0.17265713733E+03 0.  0.
         24    2    3    3    0    0  0.21171273211E+02  0.48166417129E+02 -0.32946726134E+03  0.34360358035E+03  0.82137187590E+02 0.  0.
         -6    2    1    2    0  502 -0.97025173478E+02  0.13668313597E+02 -0.64694218678E+02  0.20662301697E+03  0.17002065206E+03 0.  0.
        -24    2    5    5    0    0 -0.70176477184E+02  0.21879132232E+02 -0.10898494073E+03  0.15397296384E+03  0.80165590564E+02 0.  0.
          5    1    3    3  501    0  0.75853900267E+02 -0.61834730725E+02 -0.47470454231E+03  0.48471005828E+03  0.47000000000E+01 0. -1.
        -11    1    4    4    0    0  0.37499774729E+02  0.60734097774E+02 -0.19677350526E+03  0.20931955501E+03  0.00000000000E+00 0.  1.
         12    1    4    4    0    0 -0.16328501518E+02 -0.12567680646E+02 -0.13269375608E+03  0.13428402534E+03  0.00000000000E+00 0. -1.
         -5    1    5    5    0  502 -0.26848696294E+02 -0.82108186353E+01  0.44290722049E+02  0.52650053133E+02  0.47000000000E+01 0.  1.
         11    1    6    6    0    0 -0.61776853649E+02  0.49274976234E+02 -0.89107604105E+02  0.11909898421E+03  0.00000000000E+00 0. -1.
        -12    1    6    6    0    0 -0.83996235354E+01 -0.27395844002E+02 -0.19877336622E+02  0.34873979631E+02  0.00000000000E+00 0.  1.
</event>
<event>
12    1  0.8113184E-002  0.2449923E+03  0.7818608E-02  0.1117004E+00
         21   -1    0    0  503  502  0.00000000000E+00  0.00000000000E+00  0.95797614814E+02  0.95797614814E+02  0.00000000000E+00 0.  1.
         21   -1    0    0  501  503 -0.00000000000E+00 -0.00000000000E+00 -0.78618698545E+03  0.78618698545E+03  0.00000000000E+00 0.  1.
          6    2    1    2  501    0  0.16042262411E+03 -0.66876490788E+02 -0.55033762021E+03  0.60240577306E+03  0.17266538696E+03 0.  0.
         24    2    3    3    0    0  0.97541837393E+02 -0.20012099072E+01 -0.44965938546E+03  0.46705071272E+03  0.80152295265E+02 0.  0.
         -6    2    1    2    0  502 -0.16042262411E+03  0.66876490788E+02 -0.14005175043E+03  0.27957882721E+03  0.16835065927E+03 0.  0.
        -24    2    5    5    0    0 -0.51040512012E+02 -0.18678473887E+02 -0.71585390393E+02  0.12467940537E+03  0.86408719191E+02 0.  0.
          5    1    3    3  501    0  0.62880786721E+02 -0.64875280881E+02 -0.10067823475E+03  0.13535506034E+03  0.47000000000E+01 0. -1.
        -11    1    4    4    0    0  0.95991209415E+02 -0.19302380926E+02 -0.28241263767E+03  0.29890431932E+03  0.00000000000E+00 0.  1.
         12    1    4    4    0    0  0.15506279782E+01  0.17301171018E+02 -0.16724674779E+03  0.16814639340E+03  0.00000000000E+00 0. -1.
         -5    1    5    5    0  502 -0.10938211210E+03  0.85554964676E+02 -0.68466360038E+02  0.15489942184E+03  0.47000000000E+01 0.  1.
         13    1    6    6    0    0  0.95154369661E+01 -0.87989036783E-01 -0.59419194204E+02  0.60176340222E+02  0.00000000000E+00 0. -1.
        -14    1    6    6    0    0 -0.60555948978E+02 -0.18590484850E+02 -0.12166196189E+02  0.64503065146E+02  0.00000000000E+00 0.  1.
</event>
<event>
12    1  0.8113184E-002  0.2137044E+03  0.7818608E-02  0.1138695E+00
         21   -1    0    0  503  502  0.00000000000E+00  0.00000000000E+00  0.92576710581E+02  0.92576710581E+02  0.00000000000E+00 0.  1.
         21   -1    0    0  501  503 -0.00000000000E+00 -0.00000000000E+00 -0.49728020399E+03  0.49728020399E+03  0.00000000000E+00 0. -1.
          6    2    1    2  501    0  0.25391400197E+02  0.12370461428E+03 -0.22991185072E+03  0.31389336422E+03  0.17240078365E+03 0.  0.
         24    2    3    3    0    0  0.78921808546E+02  0.64670661534E+02 -0.17070092820E+03  0.21450254201E+03  0.80383999114E+02 0.  0.
         -6    2    1    2    0  502 -0.25391400197E+02 -0.12370461428E+03 -0.17479164269E+03  0.27596355035E+03  0.17220977896E+03 0.  0.
        -24    2    5    5    0    0  0.95104006563E+01 -0.15979176509E+02 -0.20969222540E+02  0.84897246189E+02  0.80137708440E+02 0.  0.
          5    1    3    3  501    0 -0.53530408349E+02  0.59033952742E+02 -0.59210922526E+02  0.99390822216E+02  0.47000000000E+01 0. -1.
        -13    1    4    4    0    0  0.15033067085E+02  0.54762522764E+02 -0.42530519457E+02  0.70949080972E+02  0.00000000000E+00 0.  1.
         14    1    4    4    0    0  0.63888741461E+02  0.99081387709E+01 -0.12817040874E+03  0.14355346104E+03  0.00000000000E+00 0. -1.
         -5    1    5    5    0  502 -0.34901800854E+02 -0.10772543777E+03 -0.15382242015E+03  0.19106630416E+03  0.47000000000E+01 0.  1.
         11    1    6    6    0    0 -0.10860808963E+02 -0.36148279935E+02 -0.36318195832E+02  0.52380021593E+02  0.00000000000E+00 0. -1.
        -12    1    6    6    0    0  0.20371209619E+02  0.20169103426E+02  0.15348973292E+02  0.32517224597E+02  0.00000000000E+00 0.  1.
</event>
<event>
12    1  0.8113184E-002  0.1715746E+03  0.7818608E-02  0.1176358E+00
         21   -1    0    0  501  502  0.00000000000E+00  0.00000000000E+00  0.79693435531E+03  0.79693435531E+03  0.00000000000E+00 0.  1.
         21   -1    0    0  502  503 -0.00000000000E+00 -0.00000000000E+00 -0.52697167463E+02  0.52697167463E+02  0.00000000000E+00 0.  1.
         -6    2    1    2    0  503 -0.83668452840E+00 -0.19823093043E+01  0.13852470078E+03  0.22008767895E+03  0.17101129819E+03 0.  0.
        -24    2    3    3    0    0  0.58164467552E+02 -0.31624180011E+02  0.68385622230E+02  0.12364413699E+03  0.78918218664E+02 0.  0.
          6    2    1    2  501    0  0.83668452840E+00  0.19823093043E+01  0.60571248706E+03  0.62954384382E+03  0.17156108159E+03 0.  0.
         24    2    5    5    0    0 -0.26636545891E+02  0.56177468674E+02  0.47203824605E+03  0.48263303279E+03  0.79051407561E+02 0.  0.
          5    1    5    5  501    0  0.27473230420E+02 -0.54195159369E+02  0.13367424101E+03  0.14691081103E+03  0.47000000000E+01 0. -1.
        -13    1    6    6    0    0  0.16701137687E+02  0.31780204478E+02  0.83040042975E+02  0.90468547761E+02  0.00000000000E+00 0.  1.
         14    1    6    6    0    0 -0.43337683579E+02  0.24397264196E+02  0.38899820308E+03  0.39216448503E+03  0.00000000000E+00 0. -1.
         -5    1    3    3    0  503 -0.59001152080E+02  0.29641870706E+02  0.70139078553E+02  0.96443541961E+02  0.47000000000E+01 0.  1.
         11    1    4    4    0    0  0.22913166952E+02 -0.34646902716E+01  0.74585331229E+02  0.78102425910E+02  0.00000000000E+00 0. -1.
        -12    1    4    4    0    0  0.35251300600E+02 -0.28159489739E+02 -0.61997089990E+01  0.45541711079E+02  0.00000000000E+00 0.  1.
</event>
<event>
12    1  0.8113184E-002  0.1791944E+03  0.7818608E-02  0.1168979E+00
         21   -1    0    0  503  502  0.00000000000E+00  0.00000000000E+00  0.64029705326E+02  0.64029705326E+02  0.00000000000E+00 0.  1.
         21   -1    0    0  501  503 -0.00000000000E+00 -0.00000000000E+00 -0.49821442444E+03  0.49821442444E+03  0.00000000000E+00 0.  1.
          6    2    1    2  501    0  0.17336554449E+02  0.43588871798E+02 -0.22999089790E+03  0.29057197522E+03  0.17127671705E+03 0.  0.
         24    2    3    3    0    0  0.27266917129E+02  0.91033250586E+02 -0.14494479352E+03  0.19256936785E+03  0.83925149888E+02 0.  0.
         -6    2    1    2    0  502 -0.17336554449E+02 -0.43588871798E+02 -0.20419382122E+03  0.27167215455E+03  0.17294535862E+03 0.  0.
        -24    2    5    5    0    0  0.23134341879E+02 -0.57893059275E+02 -0.53562918361E+02  0.11497415799E+03  0.80394444436E+02 0.  0.
          5    1    3    3  501    0 -0.99303626798E+01 -0.47444378788E+02 -0.85046104379E+02  0.98002607371E+02  0.47000000000E+01 0. -1.
        -13    1    4    4    0    0 -0.13484381688E+02 -0.10685554022E+02 -0.19703728056E+02  0.26158106078E+02  0.00000000000E+00 0.  1.
         14    1    4    4    0    0  0.40751298817E+02  0.10171880461E+03 -0.12524106546E+03  0.16641126177E+03  0.00000000000E+00 0. -1.
         -5    1    5    5    0  502 -0.40470896328E+02  0.14304187478E+02 -0.15063090286E+03  0.15669799656E+03  0.47000000000E+01 0.  1.
         13    1    6    6    0    0 -0.69090024781E+00 -0.55295945505E+02 -0.67491881730E+02  0.87254071721E+02  0.00000000000E+00 0. -1.
        -14    1    6    6    0    0  0.23825242126E+02 -0.25971137705E+01  0.13928963369E+02  0.27720086271E+02  0.00000000000E+00 0.  1.
</event>
<event>
12    1  0.8113184E-002  0.2015065E+03  0.7818608E-02  0.1148563E+00
         21   -1    0    0  503  502  0.00000000000E+00  0.00000000000E+00  0.15904056065E+03  0.15904056065E+03  0.00000000000E+00 0. -1.
         21   -1    0    0  501  503 -0.00000000000E+00 -0.00000000000E+00 -0.43645121175E+03  0.43645121175E+03  0.00000000000E+00 0. -1.
          6    2    1    2  501    0 -0.43620777012E+02  0.95063918771E+02 -0.33089294862E+03  0.38742097683E+03  0.17223515612E+03 0.  0.
         24    2    3    3    0    0 -0.11735681362E+02  0.48157641903E+01 -0.25008737279E+03  0.26206939202E+03  0.77303003830E+02 0.  0.
         -6    2    1    2    0  502  0.43620777012E+02 -0.95063918771E+02  0.53482297522E+02  0.20807079557E+03  0.17173578247E+03 0.  0.
        -24    2    5    5    0    0  0.78053520926E+02 -0.58080650436E+02 -0.91274628727E+01  0.12747645279E+03  0.81860987988E+02 0.  0.
          5    1    3    3  501    0 -0.31885095649E+02  0.90248154581E+02 -0.80805575825E+02  0.12535158481E+03  0.47000000000E+01 0. -1.
        -11    1    4    4    0    0 -0.13256639270E+02 -0.34466538992E+02 -0.91238084396E+02  0.98427988089E+02  0.00000000000E+00 0.  1.
         12    1    4    4    0    0  0.15209579073E+01  0.39282303183E+02 -0.15884928840E+03  0.16364140393E+03  0.00000000000E+00 0. -1.
         -5    1    5    5    0  502 -0.34432743914E+02 -0.36983268335E+02  0.62609760395E+02  0.80594342773E+02  0.47000000000E+01 0.  1.
         11    1    6    6    0    0  0.74650849203E+02 -0.35313473947E+02  0.25024715815E+02  0.86290365224E+02  0.00000000000E+00 0. -1.
        -12    1    6    6    0    0  0.34026717228E+01 -0.22767176489E+02 -0.34152178688E+02  0.41186087569E+02  0.00000000000E+00 0.  1.
</event>
<event>
12    1  0.8113184E-002  0.1833287E+03  0.7818608E-02  0.1167627E+00
         21   -1    0    0  503  502  0.00000000000E+00  0.00000000000E+00  0.58843129987E+03  0.58843129987E+03  0.00000000000E+00 0. -1.
         21   -1    0    0  501  503 -0.00000000000E+00 -0.00000000000E+00 -0.14153195162E+03  0.14153195162E+03  0.00000000000E+00 0. -1.
          6    2    1    2  501    0 -0.15716206521E+02 -0.30227177470E+01 -0.61647849253E+02  0.19341634301E+03  0.18262882702E+03 0.  0.
         24    2    3    3    0    0 -0.52978276506E+02  0.53211354487E+02 -0.55303974354E+02  0.12549677670E+03  0.83980743951E+02 0.  0.
         -6    2    1    2    0  502  0.15716206521E+02  0.30227177470E+01  0.50854719751E+03  0.53654690848E+03  0.17031205750E+03 0.  0.
        -24    2    5    5    0    0 -0.13592042606E+02 -0.39507220649E+01  0.49736885559E+03  0.50407156925E+03  0.80697066786E+02 0.  0.
          5    1    3    3  501    0  0.37262069985E+02 -0.56234072234E+02 -0.63438748984E+01  0.67919566314E+02  0.47000000000E+01 0. -1.
        -11    1    4    4    0    0 -0.41911459310E+02  0.44418868813E+02  0.71277423886E+01  0.61485047285E+02  0.00000000000E+00 0.  1.
         12    1    4    4    0    0 -0.11066817197E+02  0.87924856743E+01 -0.62431716743E+02  0.64011729415E+02  0.00000000000E+00 0. -1.
         -5    1    5    5    0  502  0.29308249127E+02  0.69734398119E+01  0.11178341918E+02  0.32475339224E+02  0.47000000000E+01 0.  1.
         13    1    6    6    0    0  0.33386580601E+02 -0.57868577100E+01  0.24865810301E+03  0.25095617880E+03  0.00000000000E+00 0. -1.
        -14    1    6    6    0    0 -0.46978623207E+02  0.18361356451E+01  0.24871075259E+03  0.25311539045E+03  0.00000000000E+00 0.  1.
</event>
<event>
12    1  0.8113184E-002  0.1922170E+03  0.7818608E-02  0.1158316E+00
         21   -1    0    0  501  502  0.00000000000E+00  0.00000000000E+00  0.33578644530E+03  0.33578644530E+03  0.00000000000E+00 0. -1.
         21   -1    0    0  502  503 -0.00000000000E+00 -0.00000000000E+00 -0.18740698726E+03  0.18740698726E+03  0.00000000000E+00 0. -1.
         -6    2    1    2    0  503 -0.33954140091E+02 -0.46356897588E+02 -0.97886854893E+02  0.21570630787E+03  0.18342717713E+03 0.  0.
        -24    2    3    3    0    0 -0.20606091160E+02  0.36562979895E+02 -0.94598584786E+02  0.13152329763E+03  0.81166637756E+02 0.  0.
          6    2    1    2  501    0  0.33954140091E+02  0.46356897588E+02  0.24626631294E+03  0.30748712469E+03  0.17492681149E+03 0.  0.
         24    2    5    5    0    0 -0.39483306850E+02  0.14121266681E+02  0.18747992060E+03  0.20793751677E+03  0.79567258089E+02 0.  0.
          5    1    5    5  501    0  0.73437446941E+02  0.32235630906E+02  0.58786392336E+02  0.99549607920E+02  0.47000000000E+01 0. -1.
        -11    1    6    6    0    0 -0.33410203713E+02 -0.21118583963E+02  0.40190729721E+02  0.56369593366E+02  0.00000000000E+00 0.  1.
         12    1    6    6    0    0 -0.60731031369E+01  0.35239850644E+02  0.14728919088E+03  0.15156792340E+03  0.00000000000E+00 0. -1.
         -5    1    3    3    0  503 -0.13348048930E+02 -0.82919877483E+02 -0.32882701066E+01  0.84183010236E+02  0.47000000000E+01 0.  1.
         13    1    4    4    0    0  0.16936925578E+02  0.39249076996E+02 -0.80843715081E+02  0.91449744457E+02  0.00000000000E+00 0. -1.
        -14    1    4    4    0    0 -0.37543016739E+02 -0.26860971008E+01 -0.13754869705E+02  0.40073553175E+02  0.00000000000E+00 0.  1.
</event>
<event>
12    1  0.8113184E-002  0.2100833E+03  0.7818608E-02  0.1143882E+00
         21   -1    0    0  503  502  0.00000000000E+00  0.00000000000E+00  0.14461114187E+04  0.14461114187E+04  0.00000000000E+00 0.  1.
         21   -1    0    0  501  503 -0.00000000000E+00 -0.00000000000E+00 -0.30981792230E+02  0.30981792230E+02  0.00000000000E+00 0.  1.
          6    2    1    2  501    0 -0.10689536072E+03 -0.53357062423E+02  0.92016307893E+03  0.94384059518E+03  0.17280446477E+03 0.  0.
         24    2    3    3    0    0 -0.80773957499E+02  0.33622534436E+02  0.41555453892E+03  0.43110319006E+03  0.74225862223E+02 0.  0.
         -6    2    1    2    0  502  0.10689536072E+03  0.53357062423E+02  0.49496654750E+03  0.53325261570E+03  0.15840730651E+03 0.  0.
        -24    2    5    5    0    0  0.76065280448E+02 -0.17063701831E+02  0.37173485590E+03  0.38793325119E+03  0.78919626699E+02 0.  0.
          5    1    3    3  501    0 -0.26121403216E+02 -0.86979596859E+02  0.50460854000E+03  0.51273740513E+03  0.47000000000E+01 0. -1.
        -13    1    4    4    0    0 -0.54775819974E+02 -0.15677365896E+02  0.25030998569E+03  0.25671240560E+03  0.00000000000E+00 0.  1.
         14    1    4    4    0    0 -0.25998137525E+02  0.49299900331E+02  0.16524455324E+03  0.17439078445E+03  0.00000000000E+00 0. -1.
         -5    1    5    5    0  502  0.30830080268E+02  0.70420764254E+02  0.12323169160E+03  0.14531936451E+03  0.47000000000E+01 0.  1.
         13    1    6    6    0    0  0.66200280840E+02  0.16078112762E+02  0.30777593930E+03  0.31522533481E+03  0.00000000000E+00 0. -1.
        -14    1    6    6    0    0  0.98649996075E+01 -0.33141814593E+02  0.63958916592E+02  0.72707916374E+02  0.00000000000E+00 0.  1.
</event>
<event>
12    1  0.8113184E-002  0.1786985E+03  0.7818608E-02  0.1169476E+00
         21   -1    0    0  501  502  0.00000000000E+00  0.00000000000E+00  0.45848000368E+03  0.45848000368E+03  0.00000000000E+00 0.  1.
         21   -1    0    0  502  503 -0.00000000000E+00 -0.00000000000E+00 -0.11172137940E+03  0.11172137940E+03  0.00000000000E+00 0.  1.
         -6    2    1    2    0  503 -0.28091315228E+02 -0.29309785386E+02 -0.24110229000E+01  0.17871473003E+03  0.17402573427E+03 0.  0.
        -24    2    3    3    0    0  0.42885192604E+02  0.50202918116E+01 -0.28718112029E+02  0.95465875367E+02  0.80153978856E+02 0.  0.
          6    2    1    2  501    0  0.28091315228E+02  0.29309785386E+02  0.34916964718E+03  0.39148665306E+03  0.17231996837E+03 0.  0.
         24    2    5    5    0    0 -0.18116912950E+02  0.73105481467E+02  0.25127617215E+03  0.27461712837E+03  0.81254037126E+02 0.  0.
          5    1    5    5  501    0  0.46208228177E+02 -0.43795696081E+02  0.97893475028E+02  0.11686952468E+03  0.47000000000E+01 0. -1.
        -11    1    6    6    0    0  0.25911094859E+02  0.49483757318E+02  0.17262806442E+03  0.18144000579E+03  0.00000000000E+00 0.  1.
         12    1    6    6    0    0 -0.44028007809E+02  0.23621724149E+02  0.78648107733E+02  0.93177122586E+02  0.00000000000E+00 0. -1.
         -5    1    3    3    0  503 -0.70976507831E+02 -0.34330077198E+02  0.26307089129E+02  0.83248854663E+02  0.47000000000E+01 0.  1.
         11    1    4    4    0    0 -0.42807400050E+01  0.18216066645E+02 -0.40916710019E+02  0.44992521354E+02  0.00000000000E+00 0. -1.
        -12    1    4    4    0    0  0.47165932609E+02 -0.13195774834E+02  0.12198597991E+02  0.50473354012E+02  0.00000000000E+00 0.  1.
</event>
<event>
12    1  0.8113184E-002  0.2590411E+03  0.7818608E-02  0.1107814E+00
         21   -1    0    0  501  502  0.00000000000E+00  0.00000000000E+00  0.51084137953E+03  0.51084137953E+03  0.00000000000E+00 0. -1.
         21   -1    0    0  502  503 -0.00000000000E+00 -0.00000000000E+00 -0.13370837638E+03  0.13370837638E+03  0.00000000000E+00 0. -1.
         -6    2    1    2    0  503 -0.85644137137E+02 -0.17204166982E+03  0.14285351049E+03  0.29528028622E+03  0.17277172104E+03 0.  0.
        -24    2    3    3    0    0 -0.12574892222E+03 -0.11649478912E+03  0.90383117039E+02  0.20885643575E+03  0.77897853476E+02 0.  0.
          6    2    1    2  501    0  0.85644137137E+02  0.17204166982E+03  0.23427949267E+03  0.34926946969E+03  0.17369233544E+03 0.  0.
         24    2    5    5    0    0 -0.94249162610E+01  0.27386576894E+02  0.77403596969E+02  0.11561297508E+03  0.80846703963E+02 0.  0.
          5    1    5    5  501    0  0.95069053398E+02  0.14465509293E+03  0.15687589570E+03  0.23365649461E+03  0.47000000000E+01 0. -1.
        -13    1    6    6    0    0  0.20502340969E+02 -0.17841690422E+02  0.96808341781E+01  0.28851177666E+02  0.00000000000E+00 0.  1.
         14    1    6    6    0    0 -0.29927257230E+02  0.45228267316E+02  0.67722762791E+02  0.86761797410E+02  0.00000000000E+00 0. -1.
         -5    1    3    3    0  503  0.40104785082E+02 -0.55546880704E+02  0.52470393452E+02  0.86423850478E+02  0.47000000000E+01 0.  1.
         13    1    4    4    0    0 -0.37210356040E+02 -0.70597246623E+02  0.71929122592E+02  0.10743547135E+03  0.00000000000E+00 0. -1.
        -14    1    4    4    0    0 -0.88538566178E+02 -0.45897542494E+02  0.18453994447E+02  0.10142096440E+03  0.00000000000E+00 0.  1.
</event>
<event>
12    1  0.8113184E-002  0.1819895E+03  0.7818608E-02  0.1166675E+00
         21   -1    0    0  503  502  0.00000000000E+00  0.00000000000E+00  0.84029089650E+02  0.84029089650E+02  0.00000000000E+00 0.  1.
         21   -1    0    0  501  503 -0.00000000000E+00 -0.00000000000E+00 -0.45822587153E+03  0.45822587153E+03  0.00000000000E+00 0.  1.
          6    2    1    2  501    0  0.47806403919E+02  0.23627379142E+02 -0.29531078726E+03  0.34688416228E+03  0.17400130938E+03 0.  0.
         24    2    3    3    0    0  0.81267783421E+02 -0.14596456131E+02 -0.25973117304E+03  0.28468509115E+03  0.82266698747E+02 0.  0.
         -6    2    1    2    0  502 -0.47806403919E+02 -0.23627379142E+02 -0.78885994615E+02  0.19537079890E+03  0.17059614185E+03 0.  0.
        -24    2    5    5    0    0 -0.10177254740E+02 -0.78448552660E+02 -0.44312061463E+02  0.12027911635E+03  0.79030089904E+02 0.  0.
          5    1    3    3  501    0 -0.33461379502E+02  0.38223835273E+02 -0.35579614226E+02  0.62199071131E+02  0.47000000000E+01 0. -1.
        -13    1    4    4    0    0  0.84060213350E+02 -0.38459221892E+02 -0.20150438138E+03  0.22169629436E+03  0.00000000000E+00 0.  1.
         14    1    4    4    0    0 -0.27924299297E+01  0.23862765761E+02 -0.58226791659E+02  0.62988796795E+02  0.00000000000E+00 0. -1.
         -5    1    5    5    0  502 -0.37629149179E+02  0.54821173518E+02 -0.34573933153E+02  0.75091682545E+02  0.47000000000E+01 0.  1.
         13    1    6    6    0    0  0.30938446136E+02 -0.23206747935E+02 -0.53417166527E+00  0.38678494521E+02  0.00000000000E+00 0. -1.
        -14    1    6    6    0    0 -0.41115700876E+02 -0.55241804725E+02 -0.43777889797E+02  0.81600621829E+02  0.00000000000E+00 0.  1.
</event>
<event>
12    1  0.8113184E-002  0.2057289E+03  0.7818608E-02  0.1145180E+00
         21   -1    0    0  501  502  0.00000000000E+00  0.00000000000E+00  0.75197092092E+03  0.75197092092E+03  0.00000000000E+00 0. -1.
         21   -1    0    0  502  503 -0.00000000000E+00 -0.00000000000E+00 -0.68996171917E+02  0.68996171917E+02  0.00000000000E+00 0. -1.
         -6    2    1    2    0  503 -0.10619904923E+03  0.31992320056E+02  0.16419353263E+03  0.26321833469E+03  0.17327039263E+03 0.  0.
        -24    2    3    3    0    0 -0.78576252310E+02  0.82564095637E+02  0.14713981117E+03  0.20294028885E+03  0.80892394522E+02 0.  0.
          6    2    1    2  501    0  0.10619904923E+03 -0.31992320056E+02  0.51878121637E+03  0.55774875814E+03  0.17218588837E+03 0.  0.
         24    2    5    5    0    0  0.58129159620E+02 -0.63956503093E+02  0.20120523987E+03  0.23493454821E+03  0.85095592755E+02 0.  0.
          5    1    5    5  501    0  0.48069889608E+02  0.31964183037E+02  0.31757597650E+03  0.32281420993E+03  0.47000000000E+01 0. -1.
        -11    1    6    6    0    0  0.40237929080E+02  0.10591264263E+02  0.47332028529E+02  0.63020526339E+02  0.00000000000E+00 0.  1.
         12    1    6    6    0    0  0.17891230539E+02 -0.74547767356E+02  0.15387321134E+03  0.17191402187E+03  0.00000000000E+00 0. -1.
         -5    1    3    3    0  503 -0.27622796918E+02 -0.50571775581E+02  0.17053721463E+02  0.60278045844E+02  0.47000000000E+01 0.  1.
         13    1    4    4    0    0 -0.73676464777E+02  0.32912818880E+02  0.53439092012E+02  0.96784356503E+02  0.00000000000E+00 0. -1.
        -14    1    4    4    0    0 -0.48997875326E+01  0.49651276757E+02  0.93700719158E+02  0.10615593235E+03  0.00000000000E+00 0.  1.
</event>
<event>
12    1  0.8113184E-002  0.2248477E+03  0.7818608E-02  0.1130760E+00
         21   -1    0    0  503  502  0.00000000000E+00  0.00000000000E+00  0.37181327322E+03  0.37181327322E+03  0.00000000000E+00 0.  1.
         21   -1    0    0  501  503 -0.00000000000E+00 -0.00000000000E+00 -0.20093880944E+03  0.20093880944E+03  0.00000000000E+00 0.  1.
          6    2    1    2  501    0  0.20169926233E+02  0.13875247699E+03 -0.79523361102E+02  0.23621744480E+03  0.17267206048E+03 0.  0.
         24    2    3    3    0    0  0.81090324556E+01 -0.23718146280E+01 -0.35764694064E+02  0.87898727896E+02  0.79847924908E+02 0.  0.
         -6    2    1    2    0  502 -0.20169926233E+02 -0.13875247699E+03  0.25039782488E+03  0.33653463787E+03  0.17577660819E+03 0.  0.
        -24    2    5    5    0    0 -0.31243626589E+02 -0.64949097430E+01  0.13067087563E+03  0.15772937142E+03  0.82373107356E+02 0.  0.
          5    1    3    3  501    0  0.12060893777E+02  0.14112429162E+03 -0.43758667038E+02  0.14831871690E+03  0.47000000000E+01 0. -1.
        -11    1    4    4    0    0  0.13658848102E+02  0.73352197707E+01 -0.59593322251E+02  0.61577054472E+02  0.00000000000E+00 0.  1.
         12    1    4    4    0    0 -0.55498156462E+01 -0.97070343987E+01  0.23828628187E+02  0.26321673423E+02  0.00000000000E+00 0. -1.
         -5    1    5    5    0  502  0.11073700357E+02 -0.13225756724E+03  0.11972694926E+03  0.17880526645E+03  0.47000000000E+01 0.  1.
         11    1    6    6    0    0  0.18885035848E+02 -0.26723532818E+02  0.35520424952E+02  0.48295883613E+02  0.00000000000E+00 0. -1.
        -12    1    6    6    0    0 -0.50128662437E+02  0.20228623075E+02  0.95150450675E+02  0.10943348780E+03  0.00000000000E+00 0.  1.
</event>
<event>
12    1  0.8113184E-002  0.2000432E+03  0.7818608E-02  0.1149929E+00
         21   -1    0    0  501  502  0.00000000000E+00  0.00000000000E+00  0.25377181291E+03  0.25377181291E+03  0.00000000000E+00 0.  1.
         21   -1    0    0  502  503 -0.00000000000E+00 -0.00000000000E+00 -0.22200890110E+03  0.22200890110E+03  0.00000000000E+00 0.  1.
         -6    2    1    2    0  503 -0.96827307761E+02  0.31720510809E+02  0.14473254877E+03  0.24604300042E+03  0.17090327395E+03 0.  0.
        -24    2    3    3    0    0 -0.49237707039E+02 -0.34362824003E+02  0.11734007363E+03  0.15999525245E+03  0.90689759384E+02 0.  0.
          6    2    1    2  501    0  0.96827307761E+02 -0.31720510809E+02 -0.11296963696E+03  0.22973771359E+03  0.17214981800E+03 0.  0.
         24    2    5    5    0    0  0.33598729076E+02  0.48164708094E+02 -0.62163706421E+02  0.11579547410E+03  0.78074014404E+02 0.  0.
          5    1    5    5  501    0  0.63228578685E+02 -0.79885218904E+02 -0.50805930541E+02  0.11394223949E+03  0.47000000000E+01 0. -1.
        -13    1    6    6    0    0  0.54159558440E+02  0.29957245025E+02 -0.19196997249E+02  0.64801381183E+02  0.00000000000E+00 0.  1.
         14    1    6    6    0    0 -0.20560829363E+02  0.18207463069E+02 -0.42966709173E+02  0.50994092919E+02  0.00000000000E+00 0. -1.
         -5    1    3    3    0  503 -0.47589600722E+02  0.66083334812E+02  0.27392475139E+02  0.86047747972E+02  0.47000000000E+01 0.  1.
         11    1    4    4    0    0 -0.25858900710E+02 -0.45986432426E+02  0.15684481786E+02  0.55040327779E+02  0.00000000000E+00 0. -1.
        -12    1    4    4    0    0 -0.23378806330E+02  0.11623608423E+02  0.10165559185E+03  0.10495492467E+03  0.00000000000E+00 0.  1.
</event>
<event>
12    1  0.8113184E-002  0.1767395E+03  0.7818608E-02  0.1171636E+00
         21   -1    0    0  503  502  0.00000000000E+00  0.00000000000E+00  0.13090809360E+03  0.13090809360E+03  0.00000000000E+00 0. -1.
         21   -1    0    0  501  503 -0.00000000000E+00 -0.00000000000E+00 -0.23526786416E+03  0.23526786416E+03  0.00000000000E+00 0. -1.
          6    2    1    2  501    0  0.32926269254E+02 -0.25136274133E+02 -0.48140002614E+02  0.18071033907E+03  0.16918272758E+03 0.  0.
         24    2    3    3    0    0 -0.29920395494E+02 -0.47867772764E+01 -0.72891919183E+02  0.11000989589E+03  0.76621159014E+02 0.  0.
         -6    2    1    2    0  502 -0.32926269254E+02  0.25136274133E+02 -0.56219767951E+02  0.18546561868E+03  0.17181636104E+03 0.  0.
        -24    2    5    5    0    0 -0.21425597576E+02  0.64000603049E+02  0.10892304681E+02  0.10692377121E+03  0.82212633623E+02 0.  0.
          5    1    3    3  501    0  0.62846664747E+02 -0.20349496856E+02  0.24751916569E+02  0.70700443181E+02  0.47000000000E+01 0. -1.
        -13    1    4    4    0    0 -0.17527816385E+01 -0.37561243174E+02 -0.23323839407E+02  0.44248397902E+02  0.00000000000E+00 0.  1.
         14    1    4    4    0    0 -0.28167613855E+02  0.32774465897E+02 -0.49568079775E+02  0.65761497989E+02  0.00000000000E+00 0. -1.
         -5    1    5    5    0  502 -0.11500671678E+02 -0.38864328916E+02 -0.67112072633E+02  0.78541847471E+02  0.47000000000E+01 0.  1.
         11    1    6    6    0    0  0.90842189121E+01 -0.87271353119E+01 -0.18818050660E+02  0.22645197165E+02  0.00000000000E+00 0. -1.
        -12    1    6    6    0    0 -0.30509816488E+02  0.72727738360E+02  0.29710355341E+02  0.84278574049E+02  0.00000000000E+00 0.  1.
</event>
<event>
12    1  0.8113184E-002  0.1948929E+03  0.7818608E-02  0.1154341E+00
         21   -1    0    0  503  502  0.00000000000E+00  0.00000000000E+00  0.11440656636E+04  0.11440656636E+04  0.00000000000E+00 0.  1.
         21   -1    0    0  501  503 -0.00000000000E+00 -0.00000000000E+00 -0.71837390126E+02  0.71837390126E+02  0.00000000000E+00 0. -1.
          6    2    1    2  501    0  0.74535453794E+02 -0.53689866237E+02  0.89908536516E+02  0.21463171946E+03  0.17188686526E+03 0.  0.
         24    2    3    3    0    0  0.43869122298E+02 -0.66952535006E+02 -0.64297360190E+01  0.11255588968E+03  0.78869163563E+02 0.  0.
         -6    2    1    2    0  502 -0.74535453794E+02  0.53689866237E+02  0.98231973692E+03  0.10012713342E+04  0.17074566934E+03 0.  0.
        -24    2    5    5    0    0 -0.58086561074E+02  0.21416814710E+02  0.25895079136E+03  0.27698075902E+03  0.76355091485E+02 0.  0.
          5    1    3    3  501    0  0.30666331496E+02  0.13262668769E+02  0.96338272535E+02  0.10207582978E+03  0.47000000000E+01 0. -1.
        -11    1    4    4    0    0 -0.14110903200E+01  0.77316978706E+01 -0.22427032548E+02  0.23764303414E+02  0.00000000000E+00 0.  1.
         12    1    4    4    0    0  0.45280212618E+02 -0.74684232877E+02  0.15997296529E+02  0.88791586264E+02  0.00000000000E+00 0. -1.
         -5    1    5    5    0  502 -0.16448892719E+02  0.32273051527E+02  0.72336894556E+03  0.72429057520E+03  0.47000000000E+01 0.  1.
         11    1    6    6    0    0 -0.56672427512E+02  0.43284448557E+02  0.22915562683E+03  0.23999501835E+03  0.00000000000E+00 0. -1.
        -12    1    6    6    0    0 -0.14141335624E+01 -0.21867633847E+02  0.29795164530E+02  0.36985740673E+02  0.00000000000E+00 0.  1.
</event>
<event>
12    1  0.8113184E-002  0.1965191E+03  0.7818608E-02  0.1153563E+00
         21   -1    0    0  501  502  0.00000000000E+00  0.00000000000E+00  0.28346358188E+02  0.28346358188E+02  0.00000000000E+00 0.  1.
         21   -1    0    0  502  503 -0.00000000000E+00 -0.00000000000E+00 -0.13488567245E+04  0.13488567245E+04  0.00000000000E+00 0. -1.
         -6    2    1    2    0  503 -0.41952181811E+02  0.73062671638E+02 -0.73550229412E+03  0.76130374531E+03  0.17754331421E+03 0.  0.
        -24    2    3    3    0    0 -0.32776924254E+02 -0.31019175747E+02 -0.35740254021E+03  0.36900445878E+03  0.79944973708E+02 0.  0.
          6    2    1    2  501    0  0.41952181811E+02 -0.73062671638E+02 -0.58500807217E+03  0.61589933736E+03  0.17320337672E+03 0.  0.
         24    2    5    5    0    0  0.61552216531E+00  0.23099811297E+02 -0.17948470324E+03  0.19705899152E+03  0.77996841549E+02 0.  0.
          5    1    5    5  501    0  0.41336659646E+02 -0.96162482935E+02 -0.40552336893E+03  0.41884034584E+03  0.47000000000E+01 0. -1.
        -13    1    6    6    0    0 -0.33567053912E+02 -0.75650826881E+01 -0.61822251741E+02  0.70752868455E+02  0.00000000000E+00 0.  1.
         14    1    6    6    0    0  0.34182576077E+02  0.30664893985E+02 -0.11766245150E+03  0.12630612306E+03  0.00000000000E+00 0. -1.
         -5    1    3    3    0  503 -0.91752575576E+01  0.10408184739E+03 -0.37809975391E+03  0.39229928653E+03  0.47000000000E+01 0.  1.
         11    1    4    4    0    0  0.16393607079E+02 -0.38614795123E+02 -0.17203083396E+03  0.17707190796E+03  0.00000000000E+00 0. -1.
        -12    1    4    4    0    0 -0.49170531333E+02  0.75956193763E+01 -0.18537170625E+03  0.19193255082E+03  0.00000000000E+00 0.  1.
</event>
<event>
12    1  0.8113184E-002  0.3167486E+03  0.7818608E-02  0.1077178E+00
         21   -1    0    0  501  502  0.00000000000E+00  0.00000000000E+00  0.89109807386E+03  0.89109807386E+03  0.00000000000E+00 0. -1.
         21   -1    0    0  502  503 -0.00000000000E+00 -0.00000000000E+00 -0.12004753438E+03  0.12004753438E+03  0.00000000000E+00 0.  1.
         -6    2    1    2    0  503 -0.26569060310E+03 -0.43241368427E+01  0.25884104352E+03  0.40890958974E+03  0.17204119284E+03 0.  0.
        -24    2    3    3    0    0 -0.82975056269E+02  0.57510714701E+01  0.52490758719E+02  0.13306722368E+03  0.89630750749E+02 0.  0.
          6    2    1    2  501    0  0.26569060310E+03  0.43241368427E+01  0.51220949595E+03  0.60223601851E+03  0.17239332793E+03 0.  0.
         24    2    5    5    0    0  0.13555578049E+03  0.53907694662E+02  0.19875292441E+03  0.25920436763E+03  0.80017311066E+02 0.  0.
          5    1    5    5  501    0  0.13013482261E+03 -0.49583557819E+02  0.31345657154E+03  0.34303165088E+03  0.47000000000E+01 0. -1.
        -13    1    6    6    0    0  0.78660430863E+01  0.35248263016E+02  0.57298744092E+02  0.67730796201E+02  0.00000000000E+00 0.  1.
         14    1    6    6    0    0  0.12768973740E+03  0.18659431646E+02  0.14145418032E+03  0.19147357143E+03  0.00000000000E+00 0. -1.
         -5    1    3    3    0  503 -0.18271554683E+03 -0.10075208313E+02  0.20635028481E+03  0.27584236606E+03  0.47000000000E+01 0.  1.
         13    1    4    4    0    0  0.57395220487E+01  0.17939368678E+01  0.43383933269E+02  0.43798698482E+02  0.00000000000E+00 0. -1.
        -14    1    4    4    0    0 -0.88714578318E+02  0.39571346023E+01  0.91068254494E+01  0.89268525193E+02  0.00000000000E+00 0.  1.
</event>
<event>
12    1  0.8113184E-002  0.2054174E+03  0.7818608E-02  0.1145498E+00
         21   -1    0    0  503  502  0.00000000000E+00  0.00000000000E+00  0.36577920799E+03  0.36577920799E+03  0.00000000000E+00 0. -1.
         21   -1    0    0  501  503 -0.00000000000E+00 -0.00000000000E+00 -0.20568073686E+03  0.20568073686E+03  0.00000000000E+00 0. -1.
          6    2    1    2  501    0 -0.11133590932E+03  0.10952728960E+02 -0.10988036465E+03  0.23295921219E+03  0.17228073900E+03 0.  0.
         24    2    3    3    0    0 -0.14180158179E+03  0.34550387058E+02 -0.90733135513E+02  0.18967280496E+03  0.80261156349E+02 0.  0.
         -6    2    1    2    0  502  0.11133590932E+03 -0.10952728960E+02  0.26997883578E+03  0.33850073266E+03  0.17081723351E+03 0.  0.
        -24    2    5    5    0    0  0.74008255847E+02 -0.17487595623E+02  0.27814809168E+03  0.29945095752E+03  0.80755663114E+02 0.  0.
          5    1    3    3  501    0  0.30465672468E+02 -0.23597658098E+02 -0.19147229136E+02  0.43286407222E+02  0.47000000000E+01 0. -1.
        -13    1    4    4    0    0 -0.94999849580E+02 -0.17463721097E+02 -0.52932127761E+02  0.11014428321E+03  0.00000000000E+00 0.  1.
         14    1    4    4    0    0 -0.46801732211E+02  0.52014108155E+02 -0.37801007752E+02  0.79528521753E+02  0.00000000000E+00 0. -1.
         -5    1    5    5    0  502  0.37327653477E+02  0.65348666637E+01 -0.81692558938E+01  0.39049775137E+02  0.47000000000E+01 0.  1.
         11    1    6    6    0    0  0.64863167865E+02 -0.38693378996E+02  0.13712303816E+03  0.15654755098E+03  0.00000000000E+00 0. -1.
        -12    1    6    6    0    0  0.91450879816E+01  0.21205783373E+02  0.14102505352E+03  0.14290340655E+03  0.00000000000E+00 0.  1.
</event>
<event>
12    1  0.8113184E-002  0.1786577E+03  0.7818608E-02  0.1169486E+00
         21   -1    0    0  503  502  0.00000000000E+00  0.00000000000E+00  0.47203780264E+02  0.47203780264E+02  0.00000000000E+00 0. -1.
         21   -1    0    0  501  503 -0.00000000000E+00 -0.00000000000E+00 -0.98566072184E+03  0.98566072184E+03  0.00000000000E+00 0.  1.
          6    2    1    2  501    0 -0.40663573117E+02  0.65454673681E+01 -0.76268757723E+03  0.78333320452E+03  0.17384533222E+03 0.  0.
         24    2    3    3    0    0 -0.54137307084E+02 -0.57934994204E+02 -0.52009233054E+03  0.53190962737E+03  0.78386911130E+02 0.  0.
         -6    2    1    2    0  502  0.40663573117E+02 -0.65454673681E+01 -0.17576936435E+03  0.24953129758E+03  0.17226325698E+03 0.  0.
        -24    2    5    5    0    0  0.91447163995E+02  0.49199945828E+01 -0.14389023867E+03  0.18830386440E+03  0.79794451018E+02 0.  0.
          5    1    3    3  501    0  0.13473733967E+02  0.64480461572E+02 -0.24259524669E+03  0.25142357715E+03  0.47000000000E+01 0. -1.
        -13    1    4    4    0    0  0.36926850379E+01  0.13125265658E+02 -0.15107697036E+03  0.15169100005E+03  0.00000000000E+00 0.  1.
         14    1    4    4    0    0 -0.57829992122E+02 -0.71060259862E+02 -0.36901536017E+03  0.38021862733E+03  0.00000000000E+00 0. -1.
         -5    1    5    5    0  502 -0.50783590878E+02 -0.11465461951E+02 -0.31879125687E+02  0.61227433188E+02  0.47000000000E+01 0.  1.
         11    1    6    6    0    0  0.14224353526E+02 -0.25482269382E+02 -0.10135248921E+02  0.30893390180E+02  0.00000000000E+00 0. -1.
        -12    1    6    6    0    0  0.77222810469E+02  0.30402263965E+02 -0.13375498975E+03  0.15741047422E+03  0.00000000000E+00 0.  1.
</event>
<event>
12    1  0.8113184E-002  0.2080627E+03  0.7818608E-02  0.1143153E+00
         21   -1    0    0  501  502  0.00000000000E+00  0.00000000000E+00  0.86642063893E+03  0.86642063893E+03  0.00000000000E+00 0.  1.
         21   -1    0    0  502  503 -0.00000000000E+00 -0.00000000000E+00 -0.65252604016E+02  0.65252604016E+02  0.00000000000E+00 0.  1.
         -6    2    1    2    0  503 -0.50379538684E+02  0.10659701281E+03  0.17487723561E+03  0.27179427129E+03  0.17143236951E+03 0.  0.
        -24    2    3    3    0    0 -0.49949107382E+02  0.29597655778E+02  0.16770616849E+03  0.19431782031E+03  0.79139887425E+02 0.  0.
          6    2    1    2  501    0  0.50379538684E+02 -0.10659701281E+03  0.62629079930E+03  0.65987897165E+03  0.17116971367E+03 0.  0.
         24    2    5    5    0    0  0.61156534161E+02 -0.13101398565E+03  0.35388829041E+03  0.38613173596E+03  0.54369194626E+02 0.  0.
          5    1    5    5  501    0 -0.10776995477E+02  0.24416972839E+02  0.27240250889E+03  0.27374723569E+03  0.47000000000E+01 0. -1.
        -13    1    6    6    0    0  0.10468692602E+02 -0.30501367959E+02  0.14806223140E+03  0.15153333409E+03  0.00000000000E+00 0.  1.
         14    1    6    6    0    0  0.50687841559E+02 -0.10051261769E+03  0.20582605901E+03  0.23459840187E+03  0.00000000000E+00 0. -1.
         -5    1    3    3    0  503 -0.43043130176E+00  0.76999357029E+02  0.71710671142E+01  0.77476450987E+02  0.47000000000E+01 0.  1.
         11    1    4    4    0    0  0.21387801120E+02  0.11527868947E+02  0.35667218497E+02  0.43156462721E+02  0.00000000000E+00 0. -1.
        -12    1    4    4    0    0 -0.71336908502E+02  0.18069786831E+02  0.13203895000E+03  0.15116135759E+03  0.00000000000E+00 0.  1.
</event>
<event>
12    1  0.8113184E-002  0.2260396E+03  0.7818608E-02  0.1129788E+00
         21   -1    0    0  503  502  0.00000000000E+00  0.00000000000E+00  0.17405997503E+04  0.17405997503E+04  0.00000000000E+00 0. -1.
         21   -1    0    0  501  503 -0.00000000000E+00 -0.00000000000E+00 -0.45559425720E+02  0.45559425720E+02  0.00000000000E+00 0. -1.
          6    2    1    2  501    0 -0.18960465264E+02  0.14254729207E+03  0.30883402824E+03  0.38164438368E+03  0.17203124390E+03 0.  0.
         24    2    3    3    0    0 -0.22579616108E+02  0.74087519961E+02  0.28965261311E+03  0.31030116160E+03  0.79933565750E+02 0.  0.
         -6    2    1    2    0  502  0.18960465264E+02 -0.14254729207E+03  0.13862062963E+04  0.14045147923E+04  0.17439803944E+03 0.  0.
        -24    2    5    5    0    0 -0.99310272773E+01 -0.49149568544E+02  0.10480280192E+04  0.10524572825E+04  0.82397190946E+02 0.  0.
          5    1    3    3  501    0  0.36191508442E+01  0.68459772111E+02  0.19181415130E+02  0.71343222079E+02  0.47000000000E+01 0. -1.
        -13    1    4    4    0    0 -0.37054485028E+01 -0.17449333454E+02  0.46974894552E+02  0.50247888560E+02  0.00000000000E+00 0.  1.
         14    1    4    4    0    0 -0.18874167606E+02  0.91536853415E+02  0.24267771856E+03  0.26005327304E+03  0.00000000000E+00 0. -1.
         -5    1    5    5    0  502  0.28891492542E+02 -0.93397723527E+02  0.33817827717E+03  0.35205750986E+03  0.47000000000E+01 0.  1.
         11    1    6    6    0    0 -0.37685901143E+02 -0.78495658713E+00  0.30101911986E+03  0.30336999493E+03  0.00000000000E+00 0. -1.
        -12    1    6    6    0    0  0.27754873866E+02 -0.48364611957E+02  0.74700889931E+03  0.74908728754E+03  0.00000000000E+00 0.  1.
</event>
<event>
12    1  0.8113184E-002  0.2054300E+03  0.7818608E-02  0.1145351E+00
         21   -1    0    0  503  502  0.00000000000E+00  0.00000000000E+00  0.80038286676E+03  0.80038286676E+03  0.00000000000E+00 0. -1.
         21   -1    0    0  501  503 -0.00000000000E+00 -0.00000000000E+00 -0.85536142382E+02  0.85536142382E+02  0.00000000000E+00 0.  1.
          6    2    1    2  501    0 -0.81267730830E+02  0.76949954480E+02  0.82783983854E+02  0.22148286714E+03  0.17226645897E+03 0.  0.
         24    2    3    3    0    0 -0.89545127627E+02  0.95608637671E+02  0.10942400312E+03  0.18759419082E+03  0.77837179369E+02 0.  0.
         -6    2    1    2    0  502  0.81267730830E+02 -0.76949954480E+02  0.63206274052E+03  0.66443614200E+03  0.17159935684E+03 0.  0.
        -24    2    5    5    0    0  0.93618389532E+02 -0.40480959590E+02  0.26008683159E+03  0.29044323673E+03  0.79429231723E+02 0.  0.
          5    1    3    3  501    0  0.82773967973E+01 -0.18658683192E+02 -0.26640019267E+02  0.33888676320E+02  0.47000000000E+01 0. -1.
        -13    1    4    4    0    0 -0.43791442254E+02  0.64797705746E+02  0.17113059449E+02  0.80058040748E+02  0.00000000000E+00 0.  1.
         14    1    4    4    0    0 -0.45753685373E+02  0.30810931925E+02  0.92310943671E+02  0.10753615007E+03  0.00000000000E+00 0. -1.
         -5    1    5    5    0  502 -0.12350658702E+02 -0.36468994890E+02  0.37197590894E+03  0.37399290526E+03  0.47000000000E+01 0.  1.
         13    1    6    6    0    0  0.10513791823E+03 -0.39509972019E+02  0.25318440526E+03  0.27697899344E+03  0.00000000000E+00 0. -1.
        -14    1    6    6    0    0 -0.11519528701E+02 -0.97098757073E+00  0.69024263285E+01  0.13464243298E+02  0.00000000000E+00 0.  1.
</event>
<event>
12    1  0.8113184E-002  0.2533066E+03  0.7818608E-02  0.1111319E+00
         21   -1    0    0  503  502  0.00000000000E+00  0.00000000000E+00  0.21450778396E+03  0.21450778396E+03  0.00000000000E+00 0. -1.
         21   -1    0    0  501  503 -0.00000000000E+00 -0.00000000000E+00 -0.32712791107E+03  0.32712791107E+03  0.00000000000E+00 0.  1.
          6    2    1    2  501    0  0.43023500489E+02  0.18000203816E+03  0.23796475196E+02  0.25442190694E+03  0.17295224532E+03 0.  0.
         24    2    3    3    0    0 -0.30952844303E+02  0.13419210164E+03 -0.11922660330E+02  0.16024655711E+03  0.81063003412E+02 0.  0.
         -6    2    1    2    0  502 -0.43023500489E+02 -0.18000203816E+03 -0.13641660230E+03  0.28721378809E+03  0.17213516593E+03 0.  0.
        -24    2    5    5    0    0  0.23102657494E+02 -0.16236047047E+03 -0.83987903023E+02  0.20087288128E+03  0.80008071013E+02 0.  0.
          5    1    3    3  501    0  0.73976344791E+02  0.45809936524E+02  0.35719135526E+02  0.94175349831E+02  0.47000000000E+01 0. -1.
        -13    1    4    4    0    0 -0.15013299177E+02 -0.77975630336E+01 -0.15834842960E+01  0.16991426190E+02  0.00000000000E+00 0.  1.
         14    1    4    4    0    0 -0.15939545125E+02  0.14198966467E+03 -0.10339176034E+02  0.14325513092E+03  0.00000000000E+00 0. -1.
         -5    1    5    5    0  502 -0.66126157982E+02 -0.17641567696E+02 -0.52428699281E+02  0.86340906809E+02  0.47000000000E+01 0.  1.
         13    1    6    6    0    0  0.77444599589E+01 -0.18951310002E+02  0.15483458757E+02  0.25668391183E+02  0.00000000000E+00 0. -1.
        -14    1    6    6    0    0  0.15358197535E+02 -0.14340916047E+03 -0.99471361780E+02  0.17520449010E+03  0.00000000000E+00 0.  1.
</event>
<event>
12    1  0.8113184E-002  0.1979578E+03  0.7818608E-02  0.1151523E+00
         21   -1    0    0  501  502  0.00000000000E+00  0.00000000000E+00  0.16344285800E+04  0.16344285800E+04  0.00000000000E+00 0.  1.
         21   -1    0    0  502  503 -0.00000000000E+00 -0.00000000000E+00 -0.25790411023E+02  0.25790411023E+02  0.00000000000E+00 0.  1.
         -6    2    1    2    0  503 -0.35535746084E+02 -0.90808678804E+02  0.10257554046E+04  0.10446382926E+04  0.17200583406E+03 0.  0.
        -24    2    3    3    0    0 -0.31406369457E+02 -0.12556686613E+03  0.93494429115E+03  0.94720148405E+03  0.79475945587E+02 0.  0.
          6    2    1    2  501    0  0.35535746084E+02  0.90808678804E+02  0.58288276445E+03  0.61558069847E+03  0.17227383389E+03 0.  0.
         24    2    5    5    0    0  0.32395466323E+01  0.96799015291E+02  0.23869867334E+03  0.26980084480E+03  0.80217798392E+02 0.  0.
          5    1    5    5  501    0  0.32296199452E+02 -0.59903364870E+01  0.34418409111E+03  0.34577985367E+03  0.47000000000E+01 0. -1.
        -11    1    6    6    0    0  0.40726705689E+02  0.56378156076E+02  0.15045449828E+03  0.16575197462E+03  0.00000000000E+00 0.  1.
         12    1    6    6    0    0 -0.37487159057E+02  0.40420859214E+02  0.88244175063E+02  0.10404887018E+03  0.00000000000E+00 0. -1.
         -5    1    3    3    0  503 -0.41293766274E+01  0.34758187327E+02  0.90811113411E+02  0.97436808530E+02  0.47000000000E+01 0.  1.
         11    1    4    4    0    0  0.77426023366E+01  0.38220145528E+01  0.18293035854E+03  0.18313402677E+03  0.00000000000E+00 0. -1.
        -12    1    4    4    0    0 -0.39148971793E+02 -0.12938888068E+03  0.75201393261E+03  0.76406745728E+03  0.00000000000E+00 0.  1.
</event>
<event>
12    1  0.8113184E-002  0.2212066E+03  0.7818608E-02  0.1133122E+00
         21   -1    0    0  501  502  0.00000000000E+00  0.00000000000E+00  0.33156658945E+03  0.33156658945E+03  0.00000000000E+00 0. -1.
         21   -1    0    0  502  503 -0.00000000000E+00 -0.00000000000E+00 -0.15444607335E+03  0.15444607335E+03  0.00000000000E+00 0. -1.
         -6    2    1    2    0  503  0.79958199047E+02 -0.11342973356E+03  0.35679772590E+02  0.22406564299E+03  0.17225779560E+03 0.  0.
        -24    2    3    3    0    0 -0.15076105776E+02 -0.35262154203E+02 -0.16547570425E+02  0.90306624923E+02  0.80067196364E+02 0.  0.
          6    2    1    2  501    0 -0.79958199047E+02  0.11342973356E+03  0.14144074351E+03  0.26194701981E+03  0.17132174180E+03 0.  0.
         24    2    5    5    0    0 -0.15038529371E+02  0.75777976738E+02  0.11023181826E+02  0.11140450522E+03  0.79504679876E+02 0.  0.
          5    1    5    5  501    0 -0.64919669676E+02  0.37651756823E+02  0.13041756168E+03  0.15054251459E+03  0.47000000000E+01 0. -1.
        -13    1    6    6    0    0  0.21194971668E+02  0.70675745217E+02  0.12237725505E+02  0.74793380132E+02  0.00000000000E+00 0.  1.
         14    1    6    6    0    0 -0.36233501039E+02  0.51022315208E+01 -0.12145436793E+01  0.36611125090E+02  0.00000000000E+00 0. -1.
         -5    1    3    3    0  503  0.95034304823E+02 -0.78167579359E+02  0.52227343014E+02  0.13375901807E+03  0.47000000000E+01 0.  1.
         13    1    4    4    0    0  0.22815436702E+02 -0.44027460253E+02 -0.12934065961E+02  0.51246965476E+02  0.00000000000E+00 0. -1.
        -14    1    4    4    0    0 -0.37891542478E+02  0.87653060508E+01 -0.36135044639E+01  0.39059659446E+02  0.00000000000E+00 0.  1.
</event>
<event>
12    1  0.8113184E-002  0.1889394E+03  0.7818608E-02  0.1159424E+00
         21   -1    0    0  501  502  0.00000000000E+00  0.00000000000E+00  0.99608610788E+03  0.99608610788E+03  0.00000000000E+00 0. -1.
         21   -1    0    0  502  503 -0.00000000000E+00 -0.00000000000E+00 -0.11533745288E+03  0.11533745288E+03  0.00000000000E+00 0. -1.
         -6    2    1    2    0  503  0.50922791355E+02  0.59549656281E+02 -0.20993608868E+02  0.19010214182E+03  0.17192672994E+03 0.  0.
        -24    2    3    3    0    0  0.81380634531E+02  0.53631754512E+02 -0.60937234848E+02  0.13930563575E+03  0.78699052047E+02 0.  0.
          6    2    1    2  501    0 -0.50922791355E+02 -0.59549656281E+02  0.90174226387E+03  0.92132141895E+03  0.17191496246E+03 0.  0.
         24    2    5    5    0    0 -0.56532795225E+02 -0.42078048921E+02  0.25842118058E+03  0.27772151573E+03  0.73356762422E+02 0.  0.
          5    1    5    5  501    0  0.56100038697E+01 -0.17471607360E+02  0.64332108329E+03  0.64359990321E+03  0.47000000000E+01 0. -1.
        -11    1    6    6    0    0  0.32357555094E+01  0.16775655562E+02  0.57757473005E+02  0.60231374060E+02  0.00000000000E+00 0.  1.
         12    1    6    6    0    0 -0.59768550734E+02 -0.58853704483E+02  0.20066370757E+03  0.21749014167E+03  0.00000000000E+00 0. -1.
         -5    1    3    3    0  503 -0.30457843176E+02  0.59179017686E+01  0.39943625980E+02  0.50796506068E+02  0.47000000000E+01 0.  1.
         13    1    4    4    0    0  0.24233570349E+02  0.32382371855E+02 -0.66762205900E+02  0.78058158289E+02  0.00000000000E+00 0. -1.
        -14    1    4    4    0    0  0.57147064183E+02  0.21249382657E+02  0.58249710526E+01  0.61247477465E+02  0.00000000000E+00 0.  1.
</event>
<event>
12    1  0.8113184E-002  0.1736122E+03  0.7818608E-02  0.1174770E+00
         21   -1    0    0  503  502  0.00000000000E+00  0.00000000000E+00  0.10071603148E+03  0.10071603148E+03  0.00000000000E+00 0.  1.
         21   -1    0    0  501  503 -0.00000000000E+00 -0.00000000000E+00 -0.31957232360E+03  0.31957232360E+03  0.00000000000E+00 0.  1.
          6    2    1    2  501    0 -0.11054334976E+02 -0.96004441033E+01 -0.16698670548E+03  0.23909328468E+03  0.17048950738E+03 0.  0.
         24    2    3    3    0    0  0.20597010195E+01 -0.39528147312E+02 -0.18239441418E+03  0.20266345011E+03  0.78981231254E+02 0.  0.
         -6    2    1    2    0  502  0.11054334976E+02  0.96004441033E+01 -0.51869586649E+02  0.18119507040E+03  0.17299373593E+03 0.  0.
        -24    2    5    5    0    0  0.27864040174E+02 -0.48467011665E+02  0.66694914766E+01  0.96913938016E+02  0.78882021467E+02 0.  0.
          5    1    3    3  501    0 -0.13114035996E+02  0.29927703209E+02  0.15407708700E+02  0.36429834571E+02  0.47000000000E+01 0. -1.
        -11    1    4    4    0    0 -0.20939233944E+02 -0.40251136290E+02 -0.17113248820E+03  0.17704500560E+03  0.00000000000E+00 0.  1.
         12    1    4    4    0    0  0.22998934964E+02  0.72298897768E+00 -0.11261925979E+02  0.25618444513E+02  0.00000000000E+00 0. -1.
         -5    1    5    5    0  502 -0.16809705198E+02  0.58067455768E+02 -0.58539078126E+02  0.84281132385E+02  0.47000000000E+01 0.  1.
         13    1    6    6    0    0  0.43945182313E+02 -0.41790071938E+00  0.13052998686E+02  0.45844677600E+02  0.00000000000E+00 0. -1.
        -14    1    6    6    0    0 -0.16081142139E+02 -0.48049110945E+02 -0.63835072096E+01  0.51069260416E+02  0.00000000000E+00 0.  1.
</event>
<event>
12    1  0.8113184E-002  0.2406117E+03  0.7818608E-02  0.1120168E+00
         21   -1    0    0  501  502  0.00000000000E+00  0.00000000000E+00  0.20965141971E+03  0.20965141971E+03  0.00000000000E+00 0. -1.
         21   -1    0    0  502  503 -0.00000000000E+00 -0.00000000000E+00 -0.27616178620E+03  0.27616178620E+03  0.00000000000E+00 0.  1.
         -6    2    1    2    0  503  0.62093236878E+02 -0.14962505718E+03 -0.66728572490E+02  0.24520137462E+03  0.17154528243E+03 0.  0.
        -24    2    3    3    0    0  0.70632490704E+02 -0.33975922581E+02 -0.53657341589E+01  0.11391874394E+03  0.82494709281E+02 0.  0.
          6    2    1    2  501    0 -0.62093236878E+02  0.14962505718E+03  0.21820600330E+00  0.24061183129E+03  0.17790665514E+03 0.  0.
         24    2    5    5    0    0 -0.21196880244E+01  0.10520305101E+03 -0.59561951950E+02  0.14487313233E+03  0.79802401792E+02 0.  0.
          5    1    5    5  501    0 -0.59973548853E+02  0.44422006173E+02  0.59780157953E+02  0.95738698964E+02  0.47000000000E+01 0. -1.
        -11    1    6    6    0    0 -0.21675312922E+02  0.10679542450E+03 -0.37254816257E+02  0.11516511285E+03  0.00000000000E+00 0.  1.
         12    1    6    6    0    0  0.19555624898E+02 -0.15923734877E+01 -0.22307135693E+02  0.29708019478E+02  0.00000000000E+00 0. -1.
         -5    1    3    3    0  503 -0.85392538265E+01 -0.11564913460E+03 -0.61362838331E+02  0.13128263068E+03  0.47000000000E+01 0.  1.
         11    1    4    4    0    0  0.70291788902E+02 -0.57155351534E+02 -0.35476000583E+01  0.90665623376E+02  0.00000000000E+00 0. -1.
        -12    1    4    4    0    0  0.34070180214E+00  0.23179428953E+02 -0.18181341006E+01  0.23253120563E+02  0.00000000000E+00 0.  1.
</event>
<event>
12    1  0.8113184E-002  0.2245799E+03  0.7818608E-02  0.1130665E+00
         21   -1    0    0  503  502  0.00000000000E+00  0.00000000000E+00  0.16725203058E+04  0.16725203058E+04  0.00000000000E+00 0.  1.
         21   -1    0    0  501  503 -0.00000000000E+00 -0.00000000000E+00 -0.34856912330E+02  0.34856912330E+02  0.00000000000E+00 0.  1.
          6    2    1    2  501    0 -0.12995469261E+03 -0.63513088188E+02  0.50031745012E+03  0.54807055337E+03  0.17070924427E+03 0.  0.
         24    2    3    3    0    0 -0.39897775544E+02  0.29930914119E+02  0.20218157091E+03  0.22287965197E+03  0.79437142045E+02 0.  0.
         -6    2    1    2    0  502  0.12995469261E+03  0.63513088188E+02  0.11373459434E+04  0.11593066648E+04  0.17179643068E+03 0.  0.
        -24    2    5    5    0    0  0.43608365925E+01  0.67407122698E+02  0.30165427989E+03  0.31420807492E+03  0.56290964466E+02 0.  0.
          5    1    3    3  501    0 -0.90056917066E+02 -0.93444002307E+02  0.29813587921E+03  0.32519090140E+03  0.47000000000E+01 0. -1.
        -11    1    4    4    0    0 -0.54308822385E+02  0.36958169846E+01  0.77834197782E+02  0.94980364267E+02  0.00000000000E+00 0.  1.
         12    1    4    4    0    0  0.14411046841E+02  0.26235097135E+02  0.12434737313E+03  0.12789928771E+03  0.00000000000E+00 0. -1.
         -5    1    5    5    0  502  0.12559385602E+03 -0.38940345101E+01  0.83569166348E+03  0.84509858986E+03  0.47000000000E+01 0.  1.
         11    1    6    6    0    0 -0.23083742488E+02  0.21892976702E+02  0.15471570968E+03  0.15795288037E+03  0.00000000000E+00 0. -1.
        -12    1    6    6    0    0  0.27444579081E+02  0.45514145996E+02  0.14693857021E+03  0.15625519455E+03  0.00000000000E+00 0.  1.
</event>
<event>
12    1  0.8113184E-002  0.2865035E+03  0.7818608E-02  0.1094327E+00
         21   -1    0    0  503  502  0.00000000000E+00  0.00000000000E+00  0.17896330310E+04  0.17896330310E+04  0.00000000000E+00 0. -1.
         21   -1    0    0  501  503 -0.00000000000E+00 -0.00000000000E+00 -0.81936404246E+02  0.81936404246E+02  0.00000000000E+00 0. -1.
          6    2    1    2  501    0  0.14486491162E+03 -0.15272273693E+03  0.22488047931E+03  0.36421901598E+03  0.19435581966E+03 0.  0.
         24    2    3    3    0    0  0.53044244698E+02 -0.58410158599E+02  0.20183436325E+03  0.23050622388E+03  0.78552979185E+02 0.  0.
         -6    2    1    2    0  502 -0.14486491162E+03  0.15272273693E+03  0.14828161474E+04  0.15073504192E+04  0.17044495392E+03 0.  0.
        -24    2    5    5    0    0 -0.56122362927E+02  0.14344780254E+03  0.80480598729E+03  0.82347825896E+03  0.81711529967E+02 0.  0.
          5    1    3    3  501    0  0.91820666923E+02 -0.94312578334E+02  0.23046116061E+02  0.13371279210E+03  0.47000000000E+01 0. -1.
        -11    1    4    4    0    0  0.59113981320E+02 -0.73027052521E+02  0.18442283121E+03  0.20697631231E+03  0.00000000000E+00 0.  1.
         12    1    4    4    0    0 -0.60697366229E+01  0.14616893923E+02  0.17411532035E+02  0.23529911569E+02  0.00000000000E+00 0. -1.
         -5    1    5    5    0  502 -0.88742548693E+02  0.92749343968E+01  0.67801016014E+03  0.68387216028E+03  0.47000000000E+01 0.  1.
         11    1    6    6    0    0 -0.13494930600E+02  0.54902433552E+02  0.13292913720E+03  0.14445257311E+03  0.00000000000E+00 0. -1.
        -12    1    6    6    0    0 -0.42627432327E+02  0.88545368984E+02  0.67187685009E+03  0.67902568585E+03  0.00000000000E+00 0.  1.
</event>
<event>
12    1  0.8113184E-002  0.1810116E+03  0.7818608E-02  0.1167279E+00
         21   -1    0    0  503  502  0.00000000000E+00  0.00000000000E+00  0.53596785835E+03  0.53596785835E+03  0.00000000000E+00 0. -1.
         21   -1    0    0  501  503 -0.00000000000E+00 -0.00000000000E+00 -0.60692844312E+02  0.60692844312E+02  0.00000000000E+00 0.  1.
          6    2    1    2  501    0  0.11003345124E+02  0.52633235700E+02  0.25556515987E+03  0.31317526927E+03  0.17284058331E+03 0.  0.
         24    2    3    3    0    0  0.10924584421E+02  0.10168827869E+03  0.19882220828E+03  0.23802038918E+03  0.81630769905E+02 0.  0.
         -6    2    1    2    0  502 -0.11003345124E+02 -0.52633235700E+02  0.21970985416E+03  0.28348543339E+03  0.17088077663E+03 0.  0.
        -24    2    5    5    0    0  0.36473506533E+01  0.19818859383E+02  0.45273941864E+02  0.93975733193E+02  0.79847468734E+02 0.  0.
          5    1    3    3  501    0  0.78760703028E-01 -0.49055042985E+02  0.56742951595E+02  0.75154880089E+02  0.47000000000E+01 0. -1.
        -11    1    4    4    0    0 -0.85478368348E+01  0.57697810799E+02  0.36704277727E+02  0.68915215221E+02  0.00000000000E+00 0.  1.
         12    1    4    4    0    0  0.19472421256E+02  0.43990467887E+02  0.16211793055E+03  0.16910517396E+03  0.00000000000E+00 0. -1.
         -5    1    5    5    0  502 -0.14650695778E+02 -0.72452095083E+02  0.17443591230E+03  0.18950970020E+03  0.47000000000E+01 0.  1.
         13    1    6    6    0    0  0.37650282841E+02  0.16462470676E+02  0.43383627924E+02  0.59755300272E+02  0.00000000000E+00 0. -1.
        -14    1    6    6    0    0 -0.34002932187E+02  0.33563887062E+01  0.18903139393E+01  0.34220432921E+02  0.00000000000E+00 0.  1.
</event>
<event>
12    1  0.8113184E-002  0.1766561E+03  0.7818608E-02  0.1171553E+00
         21   -1    0    0  501  502  0.00000000000E+00  0.00000000000E+00  0.14333731882E+03  0.14333731882E+03  0.00000000000E+00 0. -1.
         21   -1    0    0  502  503 -0.00000000000E+00 -0.00000000000E+00 -0.32141418393E+03  0.32141418393E+03  0.00000000000E+00 0. -1.
         -6    2    1    2    0  503 -0.31034447059E+02  0.48996819071E+01 -0.22282485073E+03  0.28435592601E+03  0.17383968121E+03 0.  0.
        -24    2    3    3    0    0 -0.95015441291E+01 -0.34174448104E+02 -0.22497637114E+03  0.23944298149E+03  0.73894530062E+02 0.  0.
          6    2    1    2  501    0  0.31034447059E+02 -0.48996819071E+01  0.44747985626E+02  0.18039557674E+03  0.17190997092E+03 0.  0.
         24    2    5    5    0    0 -0.15780177768E+02 -0.60436049966E+02  0.29104510434E+02  0.10594622758E+03  0.80473601037E+02 0.  0.
          5    1    5    5  501    0  0.46814624827E+02  0.55536368059E+02  0.15643475192E+02  0.74449349164E+02  0.47000000000E+01 0. -1.
        -13    1    6    6    0    0 -0.70101156026E+01 -0.28845675946E+02 -0.27543389193E+02  0.40495098836E+02  0.00000000000E+00 0.  1.
         14    1    6    6    0    0 -0.87700621653E+01 -0.31590374021E+02  0.56647899627E+02  0.65451128739E+02  0.00000000000E+00 0. -1.
         -5    1    3    3    0  503 -0.21532902930E+02  0.39074130011E+02  0.21515204029E+01  0.44912944512E+02  0.47000000000E+01 0.  1.
         13    1    4    4    0    0 -0.35892459486E+02  0.32471213051E+01 -0.10598266146E+03  0.11194256105E+03  0.00000000000E+00 0. -1.
        -14    1    4    4    0    0  0.26390915357E+02 -0.37421569409E+02 -0.11899370968E+03  0.12750042045E+03  0.00000000000E+00 0.  1.
</event>
<event>
12    1  0.8113184E-002  0.2137204E+03  0.7818608E-02  0.1138965E+00
         21   -1    0    0  503  502  0.00000000000E+00  0.00000000000E+00  0.18728752196E+03  0.18728752196E+03  0.00000000000E+00 0. -1.
         21   -1    0    0  501  503 -0.00000000000E+00 -0.00000000000E+00 -0.10506676916E+04  0.10506676916E+04  0.00000000000E+00 0. -1.
          6    2    1    2  501    0  0.91911854625E+02  0.84330770770E+02 -0.97432960527E+03  0.99715201116E+03  0.17156481496E+03 0.  0.
         24    2    3    3    0    0  0.85387068455E+02  0.13014789098E+02 -0.36557241802E+03  0.38417897333E+03  0.80560254079E+02 0.  0.
         -6    2    1    2    0  502 -0.91911854625E+02 -0.84330770770E+02  0.11094943560E+03  0.24080320243E+03  0.17354232083E+03 0.  0.
        -24    2    5    5    0    0 -0.84101535087E+02 -0.87680848913E+02  0.14499543301E+03  0.20539919059E+03  0.80025948491E+02 0.  0.
          5    1    3    3  501    0  0.65247861699E+01  0.71315981672E+02 -0.60875718725E+03  0.61297303783E+03  0.47000000000E+01 0. -1.
        -13    1    4    4    0    0  0.46404491495E+02  0.45223647292E+02 -0.24518733016E+03  0.25360477514E+03  0.00000000000E+00 0.  1.
         14    1    4    4    0    0  0.38982576961E+02 -0.32208858194E+02 -0.12038508786E+03  0.13057419818E+03  0.00000000000E+00 0. -1.
         -5    1    5    5    0  502 -0.78103195384E+01  0.33500781431E+01 -0.34045997405E+02  0.35404011837E+02  0.47000000000E+01 0.  1.
         13    1    6    6    0    0 -0.70514673460E+01 -0.52186051528E+02  0.90080077531E+02  0.10434331571E+03  0.00000000000E+00 0. -1.
        -14    1    6    6    0    0 -0.77050067741E+02 -0.35494797386E+02  0.54915355477E+02  0.10105587488E+03  0.00000000000E+00 0.  1.
</event>
<event>
12    1  0.8113184E-002  0.1850648E+03  0.7818608E-02  0.1163066E+00
         21   -1    0    0  501  502  0.00000000000E+00  0.00000000000E+00  0.18316754258E+03  0.18316754258E+03  0.00000000000E+00 0. -1.
         21   -1    0    0  502  503 -0.00000000000E+00 -0.00000000000E+00 -0.28577375902E+03  0.28577375902E+03  0.00000000000E+00 0. -1.
         -6    2    1    2    0  503  0.33692645461E+02  0.63261501250E+02  0.86818145428E+02  0.20411952202E+03  0.17026501988E+03 0.  0.
        -24    2    3    3    0    0  0.23899112185E+02 -0.29027302588E+02  0.61010121728E+02  0.10767637454E+03  0.80363018997E+02 0.  0.
          6    2    1    2  501    0 -0.33692645461E+02 -0.63261501250E+02 -0.18942436187E+03  0.26482177959E+03  0.17062172832E+03 0.  0.
         24    2    5    5    0    0  0.92415699088E+01 -0.43201943320E+02 -0.24547872266E+02  0.93205697770E+02  0.78312767433E+02 0.  0.
          5    1    5    5  501    0 -0.42934215370E+02 -0.20059557930E+02 -0.16487648960E+03  0.17161608182E+03  0.47000000000E+01 0. -1.
        -11    1    6    6    0    0 -0.14134130823E+02 -0.54510570719E+02  0.16250001165E+01  0.56336636389E+02  0.00000000000E+00 0.  1.
         12    1    6    6    0    0  0.23375700732E+02  0.11308627399E+02 -0.26172872383E+02  0.36869061381E+02  0.00000000000E+00 0. -1.
         -5    1    3    3    0  503  0.97935332765E+01  0.92288803838E+02  0.25808023700E+02  0.96443147476E+02  0.47000000000E+01 0.  1.
         13    1    4    4    0    0 -0.21533804731E+02  0.82362373635E+01  0.38253137679E+02  0.44663664139E+02  0.00000000000E+00 0. -1.
        -14    1    4    4    0    0  0.45432916916E+02 -0.37263539951E+02  0.22756984050E+02  0.63012710402E+02  0.00000000000E+00 0.  1.
</event>
<event>
12    1  0.8113184E-002  0.2485171E+03  0.7818608E-02  0.1114314E+00
         21   -1    0    0  501  502  0.00000000000E+00  0.00000000000E+00  0.22102613862E+03  0.22102613862E+03  0.00000000000E+00 0. -1.
         21   -1    0    0  502  503 -0.00000000000E+00 -0.00000000000E+00 -0.31843986660E+03  0.31843986660E+03  0.00000000000E+00 0.  1.
         -6    2    1    2    0  503 -0.79745840917E+02 -0.15981209055E+03  0.46326241904E+02  0.25237384367E+03  0.17218342792E+03 0.  0.
        -24    2    3    3    0    0  0.17316523484E+02 -0.60356413881E+02 -0.11440516838E+02  0.10180285503E+03  0.79310637274E+02 0.  0.
          6    2    1    2  501    0  0.79745840917E+02  0.15981209055E+03 -0.14373996988E+03  0.28709216154E+03  0.17280459151E+03 0.  0.
         24    2    5    5    0    0  0.10691269860E+03  0.10554977314E+03 -0.53617264629E+02  0.17834185465E+03  0.79749146221E+02 0.  0.
          5    1    5    5  501    0 -0.27166857678E+02  0.54262317419E+02 -0.90122705250E+02  0.10875030689E+03  0.47000000000E+01 0. -1.
        -11    1    6    6    0    0  0.10252801744E+03  0.10608274236E+03 -0.68615180737E+02  0.16270705460E+03  0.00000000000E+00 0.  1.
         12    1    6    6    0    0  0.43846811531E+01 -0.53296922884E+00  0.14997916108E+02  0.15634800050E+02  0.00000000000E+00 0. -1.
         -5    1    3    3    0  503 -0.97062364400E+02 -0.99455676673E+02  0.57766758742E+02  0.15057098864E+03  0.47000000000E+01 0.  1.
         11    1    4    4    0    0  0.70885528443E+01 -0.44771984986E+02  0.31359333462E+02  0.55119742527E+02  0.00000000000E+00 0. -1.
        -12    1    4    4    0    0  0.10227970639E+02 -0.15584428895E+02 -0.42799850300E+02  0.46683112505E+02  0.00000000000E+00 0.  1.
</event>
<event>
12    1  0.8113184E-002  0.1981588E+03  0.7818608E-02  0.1151694E+00
         21   -1    0    0  503  502  0.00000000000E+00  0.00000000000E+00  0.29850811855E+03  0.29850811855E+03  0.00000000000E+00 0. -1.
         21   -1    0    0  501  503 -0.00000000000E+00 -0.00000000000E+00 -0.16361820034E+03  0.16361820034E+03  0.00000000000E+00 0.  1.
          6    2    1    2  501    0 -0.91013896935E+02  0.26159775606E+02 -0.36522098210E+02  0.20149637643E+03  0.17406625969E+03 0.  0.
         24    2    3    3    0    0 -0.92333129473E+02 -0.41391953430E+02 -0.87643871421E+01  0.12830104192E+03  0.78394146907E+02 0.  0.
         -6    2    1    2    0  502  0.91013896935E+02 -0.26159775606E+02  0.17141201642E+03  0.26062994247E+03  0.17198262773E+03 0.  0.
        -24    2    5    5    0    0 -0.66769066704E+00  0.25139471078E+02  0.12006888441E+03  0.14360287970E+03  0.74651264137E+02 0.  0.
          5    1    3    3  501    0  0.13192325380E+01  0.67551729036E+02 -0.27757711068E+02  0.73195334509E+02  0.47000000000E+01 0. -1.
        -11    1    4    4    0    0 -0.54149963764E+02 -0.13560140191E+02 -0.42570954057E+02  0.70202436617E+02  0.00000000000E+00 0.  1.
         12    1    4    4    0    0 -0.38183165710E+02 -0.27831813239E+02  0.33806566915E+02  0.58098605305E+02  0.00000000000E+00 0. -1.
         -5    1    5    5    0  502  0.91681587602E+02 -0.51299246684E+02  0.51343132013E+02  0.11702706277E+03  0.47000000000E+01 0.  1.
         11    1    6    6    0    0  0.12480317697E+02 -0.45702296680E+01  0.10820081657E+03  0.10901404513E+03  0.00000000000E+00 0. -1.
        -12    1    6    6    0    0 -0.13148008364E+02  0.29709700746E+02  0.11868067834E+02  0.34588834564E+02  0.00000000000E+00 0.  1.
</event>
<event>
12    1  0.8113184E-002  0.2111776E+03  0.7818608E-02  0.1140725E+00
         21   -1    0    0  503  502  0.00000000000E+00  0.00000000000E+00  0.27886120092E+03  0.27886120092E+03  0.00000000000E+00 0.  1.
         21   -1    0    0  501  503 -0.00000000000E+00 -0.00000000000E+00 -0.18077767160E+03  0.18077767160E+03  0.00000000000E+00 0.  1.
          6    2    1    2  501    0 -0.11122058600E+03 -0.53780195848E+02 -0.29601633646E+02  0.21324222774E+03  0.17127072944E+03 0.  0.
         24    2    3    3    0    0 -0.85512155253E+02 -0.74585440775E+02 -0.73331161491E+02  0.15821366031E+03  0.82333385648E+02 0.  0.
         -6    2    1    2    0  502  0.11122058600E+03  0.53780195848E+02  0.12768516297E+03  0.24639664477E+03  0.17072046596E+03 0.  0.
        -24    2    5    5    0    0  0.13632944987E+03  0.25235921806E+02  0.65448702892E+02  0.17331656823E+03  0.80824064870E+02 0.  0.
          5    1    3    3  501    0 -0.25708430749E+02  0.20805244927E+02  0.43729527845E+02  0.55028567432E+02  0.47000000000E+01 0. -1.
        -13    1    4    4    0    0 -0.60930727457E+02 -0.87603621245E+02 -0.38059779464E+02  0.11329384280E+03  0.00000000000E+00 0.  1.
         14    1    4    4    0    0 -0.24581427796E+02  0.13018180470E+02 -0.35271382027E+02  0.44919817512E+02  0.00000000000E+00 0. -1.
         -5    1    5    5    0  502 -0.25108863865E+02  0.28544274042E+02  0.62236460075E+02  0.73080076545E+02  0.47000000000E+01 0.  1.
         11    1    6    6    0    0  0.11695627913E+02 -0.23413649903E+02  0.56825112828E+01  0.26782039664E+02  0.00000000000E+00 0. -1.
        -12    1    6    6    0    0  0.12463382195E+03  0.48649571709E+02  0.59766191609E+02  0.14653452857E+03  0.00000000000E+00 0.  1.
</event>
<event>
12    1  0.8113184E-002  0.2157326E+03  0.7818608E-02  0.1137268E+00
         21   -1    0    0  501  502  0.00000000000E+00  0.00000000000E+00  0.13133559274E+03  0.13133559274E+03  0.00000000000E+00 0. -1.
         21   -1    0    0  502  503 -0.00000000000E+00 -0.00000000000E+00 -0.35391704364E+03  0.35391704364E+03  0.00000000000E+00 0. -1.
         -6    2    1    2    0  503 -0.27271390552E+02  0.12601092536E+03 -0.98973373820E+02  0.23735268833E+03  0.17296845920E+03 0.  0.
        -24    2    3    3    0    0 -0.50550038617E+02  0.72642891469E+02  0.50736106847E+01  0.11802998520E+03  0.77929710613E+02 0.  0.
          6    2    1    2  501    0  0.27271390552E+02 -0.12601092536E+03 -0.12360807708E+03  0.24789994805E+03  0.17190970150E+03 0.  0.
         24    2    5    5    0    0  0.27740127161E+02  0.32369571168E+01 -0.33929510417E+02  0.90516435066E+02  0.79132931158E+02 0.  0.
          5    1    5    5  501    0 -0.46873660858E+00 -0.12924788248E+03 -0.89678566667E+02  0.15738351298E+03  0.47000000000E+01 0. -1.
        -13    1    6    6    0    0 -0.16623012785E+02  0.13634547482E+02 -0.39138076751E+02  0.44654389380E+02  0.00000000000E+00 0.  1.
         14    1    6    6    0    0  0.44363139946E+02 -0.10397590365E+02  0.52085663343E+01  0.45862045686E+02  0.00000000000E+00 0. -1.
         -5    1    3    3    0  503  0.23278648065E+02  0.53368033891E+02 -0.10404698450E+03  0.11932270313E+03  0.47000000000E+01 0.  1.
         13    1    4    4    0    0 -0.51316568538E+02  0.66640203706E+02 -0.24689644113E+02  0.87657774800E+02  0.00000000000E+00 0. -1.
        -14    1    4    4    0    0  0.76652992167E+00  0.60026877630E+01  0.29763254798E+02  0.30372210402E+02  0.00000000000E+00 0.  1.
</event>
<event>
12    1  0.8113184E-002  0.1810191E+03  0.7818608E-02  0.1167811E+00
         21   -1    0    0  503  502  0.00000000000E+00  0.00000000000E+00  0.20441441137E+03  0.20441441137E+03  0.00000000000E+00 0.  1.
         21   -1    0    0  501  503 -0.00000000000E+00 -0.00000000000E+00 -0.21956252954E+03  0.21956252954E+03  0.00000000000E+00 0.  1.
          6    2    1    2  501    0 -0.15293618714E+02 -0.39112859566E+02 -0.12104879838E+03  0.21776301121E+03  0.17608011502E+03 0.  0.
         24    2    3    3    0    0  0.48234878957E+01  0.43442658954E+02 -0.38161885789E+02  0.98967212062E+02  0.80172619291E+02 0.  0.
         -6    2    1    2    0  502  0.15293618714E+02  0.39112859566E+02  0.10590068022E+03  0.20621392970E+03  0.17188810364E+03 0.  0.
        -24    2    5    5    0    0  0.56963618993E+02 -0.20973009343E+02  0.32115935593E+02  0.10222845425E+03  0.75726498195E+02 0.  0.
          5    1    3    3  501    0 -0.20117106609E+02 -0.82555518519E+02 -0.82886912595E+02  0.11879579915E+03  0.47000000000E+01 0. -1.
        -11    1    4    4    0    0 -0.32892863573E+02  0.44437986724E+01 -0.28732634062E+02  0.43900479278E+02  0.00000000000E+00 0.  1.
         12    1    4    4    0    0  0.37716351469E+02  0.38998860281E+02 -0.94292517267E+01  0.55066732784E+02  0.00000000000E+00 0. -1.
         -5    1    5    5    0  502 -0.41670000279E+02  0.60085868908E+02  0.73784744624E+02  0.10398547545E+03  0.47000000000E+01 0.  1.
         13    1    6    6    0    0  0.43020864960E+02  0.12713679506E+02 -0.10573624499E+02  0.46089413139E+02  0.00000000000E+00 0. -1.
        -14    1    6    6    0    0  0.13942754033E+02 -0.33686688849E+02  0.42689560091E+02  0.56139041107E+02  0.00000000000E+00 0.  1.
</event>
<event>
12    1  0.8113184E-002  0.2456460E+03  0.7818608E-02  0.1116534E+00
         21   -1    0    0  501  502  0.00000000000E+00  0.00000000000E+00  0.57192056154E+03  0.57192056154E+03  0.00000000000E+00 0. -1.
         21   -1    0    0  502  503 -0.00000000000E+00 -0.00000000000E+00 -0.10657726982E+03  0.10657726982E+03  0.00000000000E+00 0.  1.
         -6    2    1    2    0  503  0.12760317173E+03  0.11993231248E+03  0.18214769418E+03  0.30360890109E+03  0.16832781504E+03 0.  0.
        -24    2    3    3    0    0  0.13149659295E+02  0.24482665263E+02  0.31120966085E+02  0.91379298395E+02  0.81297891776E+02 0.  0.
          6    2    1    2  501    0 -0.12760317173E+03 -0.11993231248E+03  0.28319559754E+03  0.37488893028E+03  0.17226617359E+03 0.  0.
         24    2    5    5    0    0 -0.54794234278E+02 -0.44544049728E+02  0.23723629106E+03  0.26035125356E+03  0.80716398342E+02 0.  0.
          5    1    5    5  501    0 -0.72808937449E+02 -0.75388262756E+02  0.45959306486E+02  0.11453767671E+03  0.47000000000E+01 0. -1.
        -13    1    6    6    0    0 -0.16180975681E+02 -0.22735104394E+02  0.11304145394E+02  0.30108016356E+02  0.00000000000E+00 0.  1.
         14    1    6    6    0    0 -0.38613258597E+02 -0.21808945334E+02  0.22593214566E+03  0.23024323721E+03  0.00000000000E+00 0. -1.
         -5    1    3    3    0  503  0.11445351243E+03  0.95449647221E+02  0.15102672809E+03  0.21222960270E+03  0.47000000000E+01 0.  1.
         11    1    4    4    0    0 -0.14026664543E+02  0.38620466804E+02  0.42109301079E+02  0.58834352310E+02  0.00000000000E+00 0. -1.
        -12    1    4    4    0    0  0.27176323838E+02 -0.14137801540E+02 -0.10988334995E+02  0.32544946085E+02  0.00000000000E+00 0.  1.
</event>
<event>
12    1  0.8113184E-002  0.2439129E+03  0.7818608E-02  0.1117279E+00
         21   -1    0    0  501  502  0.00000000000E+00  0.00000000000E+00  0.94987655156E+03  0.94987655156E+03  0.00000000000E+00 0.  1.
         21   -1    0    0  502  503 -0.00000000000E+00 -0.00000000000E+00 -0.13570670541E+03  0.13570670541E+03  0.00000000000E+00 0. -1.
         -6    2    1    2    0  503  0.11165811719E+03  0.13208120651E+03  0.86555468762E+01  0.24406644326E+03  0.17198991245E+03 0.  0.
        -24    2    3    3    0    0  0.24227964718E+02  0.67409068934E+02 -0.51800071018E+02  0.11955343721E+03  0.80490994170E+02 0.  0.
          6    2    1    2  501    0 -0.11165811719E+03 -0.13208120651E+03  0.80551429926E+03  0.84151681371E+03  0.17141843890E+03 0.  0.
         24    2    5    5    0    0 -0.89293910177E+02 -0.15419026828E+03  0.53955442854E+03  0.57366291472E+03  0.78880397734E+02 0.  0.
          5    1    5    5  501    0 -0.22364207012E+02  0.22109061764E+02  0.26595987073E+03  0.26785389899E+03  0.47000000000E+01 0. -1.
        -13    1    6    6    0    0 -0.55040392641E+02 -0.13818516826E+03  0.48493638788E+03  0.50723553290E+03  0.00000000000E+00 0.  1.
         14    1    6    6    0    0 -0.34253517536E+02 -0.16005100019E+02  0.54618040660E+02  0.66427381822E+02  0.00000000000E+00 0. -1.
         -5    1    3    3    0  503  0.87430152471E+02  0.64672137579E+02  0.60455617894E+02  0.12451300605E+03  0.47000000000E+01 0.  1.
         11    1    4    4    0    0  0.46402503463E+02  0.52691440845E+02 -0.11334211941E+02  0.71119931287E+02  0.00000000000E+00 0. -1.
        -12    1    4    4    0    0 -0.22174538745E+02  0.14717628089E+02 -0.40465859077E+02  0.48433505923E+02  0.00000000000E+00 0.  1.
</event>
<event>
12    1  0.8113184E-002  0.1790993E+03  0.7818608E-02  0.1169175E+00
         21   -1    0    0  501  502  0.00000000000E+00  0.00000000000E+00  0.31929632450E+03  0.31929632450E+03  0.00000000000E+00 0. -1.
         21   -1    0    0  502  503 -0.00000000000E+00 -0.00000000000E+00 -0.10900751261E+03  0.10900751261E+03  0.00000000000E+00 0.  1.
         -6    2    1    2    0  503  0.17397180550E+02  0.46908141280E+02  0.40771062676E+02  0.18170126488E+03  0.16985297907E+03 0.  0.
        -24    2    3    3    0    0  0.13904110030E+02  0.91358164593E+02  0.15443529768E+01  0.12212920039E+03  0.79834316230E+02 0.  0.
          6    2    1    2  501    0 -0.17397180550E+02 -0.46908141280E+02  0.16951774921E+03  0.24660257223E+03  0.17196954883E+03 0.  0.
         24    2    5    5    0    0 -0.64434210058E+02 -0.41727173456E+02  0.57722055596E+02  0.12511310074E+03  0.80178100779E+02 0.  0.
          5    1    5    5  501    0  0.47037029507E+02 -0.51809678234E+01  0.11179569361E+03  0.12148947149E+03  0.47000000000E+01 0. -1.
        -11    1    6    6    0    0 -0.80563522589E+02 -0.22114397260E+02  0.33468115240E+02  0.89998013733E+02  0.00000000000E+00 0.  1.
         12    1    6    6    0    0  0.16129312531E+02 -0.19612776197E+02  0.24253940355E+02  0.35115087009E+02  0.00000000000E+00 0. -1.
         -5    1    3    3    0  503  0.34930705204E+01 -0.44450023313E+02  0.39226709699E+02  0.59572064494E+02  0.47000000000E+01 0.  1.
         13    1    4    4    0    0 -0.59976851096E+01  0.98396990729E+02  0.10622137045E+02  0.99150238560E+02  0.00000000000E+00 0. -1.
        -14    1    4    4    0    0  0.19901795140E+02 -0.70388261353E+01 -0.90777840683E+01  0.22978961829E+02  0.00000000000E+00 0.  1.
</event>
<event>
12    1  0.8113184E-002  0.1731344E+03  0.7818608E-02  0.1175365E+00
         21   -1    0    0  503  502  0.00000000000E+00  0.00000000000E+00  0.24994098388E+02  0.24994098388E+02  0.00000000000E+00 0. -1.
         21   -1    0    0  501  503 -0.00000000000E+00 -0.00000000000E+00 -0.17226221022E+04  0.17226221022E+04  0.00000000000E+00 0. -1.
          6    2    1    2  501    0  0.99593444590E+01  0.30414555542E+01 -0.13444757719E+04  0.13555775927E+04  0.17282091785E+03 0.  0.
         24    2    3    3    0    0 -0.40422616891E+02  0.49729681125E+02 -0.69253224120E+03  0.70000868736E+03  0.79399169683E+02 0.  0.
         -6    2    1    2    0  502 -0.99593444590E+01 -0.30414555542E+01 -0.35315223194E+03  0.39203860790E+03  0.16990977655E+03 0.  0.
        -24    2    5    5    0    0  0.40286074883E+02  0.46220999163E+02 -0.21168679574E+03  0.23396915719E+03  0.78555193537E+02 0.  0.
          5    1    3    3  501    0  0.50381961350E+02 -0.46688225570E+02 -0.65194353066E+03  0.65556890531E+03  0.47000000000E+01 0. -1.
        -13    1    4    4    0    0 -0.33621488897E+02  0.31262235746E+02 -0.66258603584E+03  0.66417466587E+03  0.00000000000E+00 0.  1.
         14    1    4    4    0    0 -0.68011279944E+01  0.18467445379E+02 -0.29946205358E+02  0.35834021490E+02  0.00000000000E+00 0. -1.
         -5    1    5    5    0  502 -0.50245419342E+02 -0.49262454718E+02 -0.14146543620E+03  0.15806945072E+03  0.47000000000E+01 0.  1.
         13    1    6    6    0    0 -0.17231570454E+02  0.26883807033E+02 -0.36118493210E+02  0.48210078331E+02  0.00000000000E+00 0. -1.
        -14    1    6    6    0    0  0.57517645338E+02  0.19337192130E+02 -0.17556830253E+03  0.18575907886E+03  0.00000000000E+00 0.  1.
</event>
<event>
12    1  0.8113184E-002  0.2415514E+03  0.7818608E-02  0.1118983E+00
         21   -1    0    0  501  502  0.00000000000E+00  0.00000000000E+00  0.23160119850E+03  0.23160119850E+03  0.00000000000E+00 0.  1.
         21   -1    0    0  502  503 -0.00000000000E+00 -0.00000000000E+00 -0.31231630642E+03  0.31231630642E+03  0.00000000000E+00 0. -1.
         -6    2    1    2    0  503 -0.56127156566E+02  0.15930328867E+03 -0.16121185493E+03  0.28930639010E+03  0.17082485095E+03 0.  0.
        -24    2    3    3    0    0 -0.97213030312E+02  0.83058342752E+02 -0.78667760978E+02  0.16956935220E+03  0.78842165283E+02 0.  0.
          6    2    1    2  501    0  0.56127156566E+02 -0.15930328867E+03  0.80496747002E+02  0.25461111482E+03  0.17268265120E+03 0.  0.
         24    2    5    5    0    0  0.56491565429E+02 -0.21745361083E+02  0.67141901917E+01  0.98443666467E+02  0.77342856323E+02 0.  0.
          5    1    5    5  501    0 -0.36440886367E+00 -0.13755792758E+03  0.73782556811E+02  0.15616744835E+03  0.47000000000E+01 0. -1.
        -13    1    6    6    0    0  0.17356860332E+02  0.10696153847E+02 -0.29621408683E+02  0.35959646273E+02  0.00000000000E+00 0.  1.
         14    1    6    6    0    0  0.39134705097E+02 -0.32441514931E+02  0.36335598875E+02  0.62484020194E+02  0.00000000000E+00 0. -1.
         -5    1    3    3    0  503  0.41085873746E+02  0.76244945913E+02 -0.82544093952E+02  0.11973703790E+03  0.47000000000E+01 0.  1.
         13    1    4    4    0    0  0.99728022940E+01  0.26312509960E+01 -0.21566193805E+02  0.23905668421E+02  0.00000000000E+00 0. -1.
        -14    1    4    4    0    0 -0.10718583261E+03  0.80427091756E+02 -0.57101567173E+02  0.14566368378E+03  0.00000000000E+00 0.  1.
</event>
<event>
12    1  0.8113184E-002  0.2682684E+03  0.7818608E-02  0.1102279E+00
         21   -1    0    0  503  502  0.00000000000E+00  0.00000000000E+00  0.10445115696E+04  0.10445115696E+04  0.00000000000E+00 0.  1.
         21   -1    0    0  501  503 -0.00000000000E+00 -0.00000000000E+00 -0.12018599242E+03  0.12018599242E+03  0.00000000000E+00 0. -1.
          6    2    1    2  501    0 -0.19587729808E+03  0.67293052202E+02  0.81740060465E+02  0.28044495904E+03  0.17050415476E+03 0.  0.
         24    2    3    3    0    0 -0.10762781610E+03  0.30464104570E+02  0.11388206634E+03  0.17945218210E+03  0.81988731914E+02 0.  0.
         -6    2    1    2    0  502  0.19587729808E+03 -0.67293052202E+02  0.84258551671E+03  0.88425260298E+03  0.17045832956E+03 0.  0.
        -24    2    5    5    0    0  0.16930623252E+03 -0.45021044782E+02  0.45068001440E+03  0.49078840310E+03  0.84079048490E+02 0.  0.
          5    1    3    3  501    0 -0.88249481975E+02  0.36828947633E+02 -0.32142005873E+02  0.10099277694E+03  0.47000000000E+01 0. -1.
        -11    1    4    4    0    0 -0.54898174108E+01 -0.21320104769E+02  0.31294524501E+02  0.38262674061E+02  0.00000000000E+00 0.  1.
         12    1    4    4    0    0 -0.10213799869E+03  0.51784209339E+02  0.82587541838E+02  0.14118950804E+03  0.00000000000E+00 0. -1.
         -5    1    5    5    0  502  0.26571065555E+02 -0.22272007421E+02  0.39190550232E+03  0.39346419988E+03  0.47000000000E+01 0.  1.
         13    1    6    6    0    0  0.49231516502E+02 -0.51664259717E+02  0.20886926280E+03  0.22072450451E+03  0.00000000000E+00 0. -1.
        -14    1    6    6    0    0  0.12007471602E+03  0.66432149352E+01  0.24181075160E+03  0.27006389859E+03  0.00000000000E+00 0.  1.
</event>
<event>
12    1  0.8113184E-002  0.2158459E+03  0.7818608E-02  0.1137213E+00
         21   -1    0    0  501  502  0.00000000000E+00  0.00000000000E+00  0.26156098676E+03  0.26156098676E+03  0.00000000000E+00 0. -1.
         21   -1    0    0  502  503 -0.00000000000E+00 -0.00000000000E+00 -0.67458481592E+03  0.67458481592E+03  0.00000000000E+00 0. -1.
         -6    2    1    2    0  503 -0.12890000313E+03  0.72203993377E+01 -0.60827097091E+03  0.64509443204E+03  0.17171460982E+03 0.  0.
        -24    2    3    3    0    0 -0.10227667621E+02  0.36381988970E+02 -0.19384925468E+03  0.21300535511E+03  0.79784042619E+02 0.  0.
          6    2    1    2  501    0  0.12890000313E+03 -0.72203993377E+01  0.19524714175E+03  0.29105137063E+03  0.17298008270E+03 0.  0.
         24    2    5    5    0    0  0.10280717255E+03 -0.65357452032E+02  0.10230068481E+03  0.17826002982E+03  0.80438155468E+02 0.  0.
          5    1    5    5  501    0  0.26092830579E+02  0.58137052694E+02  0.92946456942E+02  0.11279134081E+03  0.47000000000E+01 0. -1.
        -13    1    6    6    0    0 -0.97671322727E+01 -0.22028164380E+02  0.26394031712E+02  0.35739079574E+02  0.00000000000E+00 0.  1.
         14    1    6    6    0    0  0.11257430482E+03 -0.43329287652E+02  0.75906653099E+02  0.14252095025E+03  0.00000000000E+00 0. -1.
         -5    1    3    3    0  503 -0.11867233551E+03 -0.29161589632E+02 -0.41442171623E+03  0.43208907694E+03  0.47000000000E+01 0.  1.
         11    1    4    4    0    0 -0.17071432909E+02 -0.22571143506E+02 -0.51161455027E+02  0.58466954951E+02  0.00000000000E+00 0. -1.
        -12    1    4    4    0    0  0.68437652886E+01  0.58953132476E+02 -0.14268779966E+03  0.15453840016E+03  0.00000000000E+00 0.  1.
</event>
<event>
12    1  0.8113184E-002  0.1964853E+03  0.7818608E-02  0.1154440E+00
         21   -1    0    0  501  502  0.00000000000E+00  0.00000000000E+00  0.28105935590E+03  0.28105935590E+03  0.00000000000E+00 0.  1.
         21   -1    0    0  502  503 -0.00000000000E+00 -0.00000000000E+00 -0.14128432589E+03  0.14128432589E+03  0.00000000000E+00 0. -1.
         -6    2    1    2    0  503  0.66566580077E+02 -0.39030858138E+02  0.12263986500E+03  0.22511265592E+03  0.17228074151E+03 0.  0.
        -24    2    3    3    0    0  0.57347316213E+02 -0.51952862397E+02  0.53607843710E+01  0.10667091592E+03  0.73226577865E+02 0.  0.
          6    2    1    2  501    0 -0.66566580077E+02  0.39030858138E+02  0.17135165010E+02  0.19723102587E+03  0.18069849534E+03 0.  0.
         24    2    5    5    0    0 -0.10351598116E+03  0.19776613404E+02  0.52960362931E+02  0.14208105773E+03  0.79218395152E+02 0.  0.
          5    1    5    5  501    0  0.36949401081E+02  0.19254244735E+02 -0.35825197921E+02  0.55149968147E+02  0.47000000000E+01 0. -1.
        -13    1    6    6    0    0 -0.53376844225E+01  0.93287242367E+01  0.41284306923E+02  0.42660402823E+02  0.00000000000E+00 0.  1.
         14    1    6    6    0    0 -0.98178296735E+02  0.10447889167E+02  0.11676056008E+02  0.99420654905E+02  0.00000000000E+00 0. -1.
         -5    1    3    3    0  503  0.92192638638E+01  0.12922004259E+02  0.11727908063E+03  0.11844174000E+03  0.47000000000E+01 0.  1.
         11    1    4    4    0    0 -0.20439601126E+01 -0.46800126877E+02  0.43722578002E+01  0.47048339895E+02  0.00000000000E+00 0. -1.
        -12    1    4    4    0    0  0.59391276325E+02 -0.51527355205E+01  0.98852657078E+00  0.59622576024E+02  0.00000000000E+00 0.  1.
</event>
<event>
12    1  0.8113184E-002  0.1729359E+03  0.7818608E-02  0.1174965E+00
         21   -1    0    0  503  502  0.00000000000E+00  0.00000000000E+00  0.12588521487E+03  0.12588521487E+03  0.00000000000E+00 0. -1.
         21   -1    0    0  501  503 -0.00000000000E+00 -0.00000000000E+00 -0.28544708001E+03  0.28544708001E+03  0.00000000000E+00 0. -1.
          6    2    1    2  501    0 -0.19538562041E+02 -0.54272697047E+00 -0.16479688919E+03  0.23888249908E+03  0.17182777343E+03 0.  0.
         24    2    3    3    0    0 -0.60312614600E+02 -0.36812993193E+02 -0.64324479512E+02  0.12444976478E+03  0.79732661694E+02 0.  0.
         -6    2    1    2    0  502  0.19538562041E+02  0.54272697047E+00  0.52350240490E+01  0.17244979580E+03  0.17125850821E+03 0.  0.
        -24    2    5    5    0    0  0.46521101433E+02  0.57492306363E+02 -0.64588830831E+01  0.10818355669E+03  0.78691718742E+02 0.  0.
          5    1    3    3  501    0  0.40774052559E+02  0.36270266222E+02 -0.10047240967E+03  0.11443273430E+03  0.47000000000E+01 0. -1.
        -13    1    4    4    0    0 -0.18216037214E+02  0.24647505913E+02 -0.99564719769E+01  0.32225066234E+02  0.00000000000E+00 0.  1.
         14    1    4    4    0    0 -0.42096577386E+02 -0.61460499106E+02 -0.54368007535E+02  0.92224698543E+02  0.00000000000E+00 0. -1.
         -5    1    5    5    0  502 -0.26982539392E+02 -0.56949579393E+02  0.11693907132E+02  0.64266239108E+02  0.47000000000E+01 0.  1.
         13    1    6    6    0    0 -0.19759118597E+02  0.40872403057E+01  0.82583713632E+01  0.21802041157E+02  0.00000000000E+00 0. -1.
        -14    1    6    6    0    0  0.66280220030E+02  0.53405066058E+02 -0.14717254446E+02  0.86381515536E+02  0.00000000000E+00 0.  1.
</event>
<event>
12    1  0.8113184E-002  0.1861460E+03  0.7818608E-02  0.1164354E+00
         21   -1    0    0  501  502  0.00000000000E+00  0.00000000000E+00  0.87176551007E+02  0.87176551007E+02  0.00000000000E+00 0. -1.
         21   -1    0    0  502  503 -0.00000000000E+00 -0.00000000000E+00 -0.94038273083E+03  0.94038273083E+03  0.00000000000E+00 0. -1.
         -6    2    1    2    0  503 -0.24938887465E+02 -0.22854428123E+02 -0.81969555642E+03  0.83842096135E+03  0.17292955278E+03 0.  0.
        -24    2    3    3    0    0 -0.40268432765E+02 -0.79486553490E+02 -0.47629429283E+03  0.49001213480E+03  0.72910767430E+02 0.  0.
          6    2    1    2  501    0  0.24938887465E+02  0.22854428123E+02 -0.33510623410E+02  0.18913832049E+03  0.18304663178E+03 0.  0.
         24    2    5    5    0    0  0.93397168495E+01  0.74764458591E+02 -0.63600166296E+02  0.12696552919E+03  0.79989435993E+02 0.  0.
          5    1    5    5  501    0  0.15599170616E+02 -0.51910030468E+02  0.30089542886E+02  0.62172791301E+02  0.47000000000E+01 0. -1.
        -11    1    6    6    0    0  0.60651854235E+01 -0.14937443463E+02  0.13374603807E+01  0.16177221384E+02  0.00000000000E+00 0.  1.
         12    1    6    6    0    0  0.32745314260E+01  0.89701902054E+02 -0.64937626677E+02  0.11078830781E+03  0.00000000000E+00 0. -1.
         -5    1    3    3    0  503  0.15329545299E+02  0.56632125367E+02 -0.34340126359E+03  0.34840882655E+03  0.47000000000E+01 0.  1.
         13    1    4    4    0    0 -0.14090265172E+02 -0.12802743180E+02 -0.28675757696E+03  0.28738885460E+03  0.00000000000E+00 0. -1.
        -14    1    4    4    0    0 -0.26178167592E+02 -0.66683810310E+02 -0.18953671587E+03  0.20262328020E+03  0.00000000000E+00 0.  1.
</event>
<event>
12    1  0.8113184E-002  0.2449976E+03  0.7818608E-02  0.1117302E+00
         21   -1    0    0  503  502  0.00000000000E+00  0.00000000000E+00  0.91474200816E+02  0.91474200816E+02  0.00000000000E+00 0.  1.
         21   -1    0    0  501  503 -0.00000000000E+00 -0.00000000000E+00 -0.65587184923E+03  0.65587184923E+03  0.00000000000E+00 0. -1.
          6    2    1    2  501    0  0.16913312181E+03  0.29591338650E+02 -0.23317719403E+03  0.33822391896E+03  0.17476314063E+03 0.  0.
         24    2    3    3    0    0  0.13030889900E+03 -0.45624022091E+02 -0.16832699764E+03  0.23148916014E+03  0.78684767121E+02 0.  0.
         -6    2    1    2    0  502 -0.16913312181E+03 -0.29591338650E+02 -0.33122045438E+03  0.40912213109E+03  0.16790553453E+03 0.  0.
        -24    2    5    5    0    0 -0.91841808255E+02  0.10330282164E+00 -0.82396179217E+02  0.14684111996E+03  0.79613163157E+02 0.  0.
          5    1    3    3  501    0  0.38824222812E+02  0.75215360741E+02 -0.64850196391E+02  0.10673475882E+03  0.47000000000E+01 0. -1.
        -13    1    4    4    0    0  0.12184887511E+01  0.12526299932E+02 -0.14900186075E+01  0.12673320807E+02  0.00000000000E+00 0.  1.
         14    1    4    4    0    0  0.12909041025E+03 -0.58150322024E+02 -0.16683697903E+03  0.21881583933E+03  0.00000000000E+00 0. -1.
         -5    1    5    5    0  502 -0.77291313557E+02 -0.29694641472E+02 -0.24882427516E+03  0.26228101112E+03  0.47000000000E+01 0.  1.
         11    1    6    6    0    0 -0.88995916641E+02 -0.27657700805E+02 -0.57958566460E+02  0.10974705927E+03  0.00000000000E+00 0. -1.
        -12    1    6    6    0    0 -0.28458916136E+01  0.27761003627E+02 -0.24437612757E+02  0.37094060693E+02  0.00000000000E+00 0.  1.
</event>
<event>
12    1  0.8113184E-002  0.1805681E+03  0.7818608E-02  0.1168646E+00
         21   -1    0    0  501  502  0.00000000000E+00  0.00000000000E+00  0.12985311532E+03  0.12985311532E+03  0.00000000000E+00 0.  1.
         21   -1    0    0  502  503 -0.00000000000E+00 -0.00000000000E+00 -0.24472286587E+03  0.24472286587E+03  0.00000000000E+00 0.  1.
         -6    2    1    2    0  503 -0.20507441958E+02 -0.34594077967E+02 -0.43848414943E+02  0.18581582075E+03  0.17603275360E+03 0.  0.
        -24    2    3    3    0    0 -0.34245284036E+02  0.45562240359E+02 -0.18000709254E+02  0.10035262655E+03  0.80609967730E+02 0.  0.
          6    2    1    2  501    0  0.20507441958E+02  0.34594077967E+02 -0.71021335610E+02  0.18876016044E+03  0.17020300424E+03 0.  0.
         24    2    5    5    0    0 -0.44422980491E+01 -0.60094424459E+01 -0.10335617022E+03  0.13097809640E+03  0.80105657746E+02 0.  0.
          5    1    5    5  501    0  0.24949740007E+02  0.40603520413E+02  0.32334834609E+02  0.57782064047E+02  0.47000000000E+01 0. -1.
        -11    1    6    6    0    0 -0.17490229852E+02  0.10202583628E+02  0.48234017668E+01  0.20815044021E+02  0.00000000000E+00 0.  1.
         12    1    6    6    0    0  0.13047931803E+02 -0.16212026074E+02 -0.10817957199E+03  0.11016305238E+03  0.00000000000E+00 0. -1.
         -5    1    3    3    0  503  0.13737842078E+02 -0.80156318326E+02 -0.25847705689E+02  0.85463194195E+02  0.47000000000E+01 0.  1.
         11    1    4    4    0    0  0.16703896761E+02  0.27552981171E+02 -0.31065054865E+02  0.44757396843E+02  0.00000000000E+00 0. -1.
        -12    1    4    4    0    0 -0.50949180797E+02  0.18009259189E+02  0.13064345611E+02  0.55595229711E+02  0.00000000000E+00 0.  1.
</event>
<event>
12    1  0.8113184E-002  0.2605541E+03  0.7818608E-02  0.1107583E+00
         21   -1    0    0  503  502  0.00000000000E+00  0.00000000000E+00  0.24003797059E+03  0.24003797059E+03  0.00000000000E+00 0.  1.
         21   -1    0    0  501  503 -0.00000000000E+00 -0.00000000000E+00 -0.44502355840E+03  0.44502355840E+03  0.00000000000E+00 0. -1.
          6    2    1    2  501    0  0.16360191279E+03  0.93504002821E+02 -0.31339451876E+03  0.40755926915E+03  0.17994401649E+03 0.  0.
         24    2    3    3    0    0  0.19333351921E+03  0.85741990317E+02 -0.29481624908E+03  0.37134519230E+03  0.79063851221E+02 0.  0.
         -6    2    1    2    0  502 -0.16360191279E+03 -0.93504002821E+02  0.10840893096E+03  0.27750225984E+03  0.17247151501E+03 0.  0.
        -24    2    5    5    0    0 -0.65464135095E+02  0.20460681911E+02  0.41482202288E+02  0.11281999064E+03  0.79393858030E+02 0.  0.
          5    1    3    3  501    0 -0.29731606413E+02  0.77620125033E+01 -0.18578269678E+02  0.36214076852E+02  0.47000000000E+01 0. -1.
        -13    1    4    4    0    0  0.11783052327E+03  0.33932876869E+02 -0.10844698314E+03  0.16369551154E+03  0.00000000000E+00 0.  1.
         14    1    4    4    0    0  0.75502995940E+02  0.51809113448E+02 -0.18636926595E+03  0.20764968077E+03  0.00000000000E+00 0. -1.
         -5    1    5    5    0  502 -0.98137777699E+02 -0.11396468473E+03  0.66926728669E+02  0.16468226920E+03  0.47000000000E+01 0.  1.
         11    1    6    6    0    0 -0.31204154608E+02 -0.28676629929E+02  0.49766158732E+01  0.42671009766E+02  0.00000000000E+00 0. -1.
        -12    1    6    6    0    0 -0.34259980487E+02  0.49137311841E+02  0.36505586415E+02  0.70148980872E+02  0.00000000000E+00 0.  1.
</event>
<event>
12    1  0.8113184E-002  0.2820843E+03  0.7818608E-02  0.1094581E+00
         21   -1    0    0  501  502  0.00000000000E+00  0.00000000000E+00  0.93774784757E+03  0.93774784757E+03  0.00000000000E+00 0. -1.
         21   -1    0    0  502  503 -0.00000000000E+00 -0.00000000000E+00 -0.85021769909E+02  0.85021769909E+02  0.00000000000E+00 0. -1.
         -6    2    1    2    0  503 -0.97598941114E+02  0.20125559384E+03  0.45240980447E+03  0.53305062099E+03  0.17157787153E+03 0.  0.
        -24    2    3    3    0    0 -0.60005727978E+02  0.21726481720E+03  0.40788406738E+03  0.47243563794E+03  0.77597238295E+02 0.  0.
          6    2    1    2  501    0  0.97598941114E+02 -0.20125559384E+03  0.40031627319E+03  0.48971899649E+03  0.17187847329E+03 0.  0.
         24    2    5    5    0    0  0.62175653636E+02 -0.38164000217E+02  0.10820102074E+03  0.15325638650E+03  0.80360166103E+02 0.  0.
          5    1    5    5  501    0  0.35423287478E+02 -0.16309159362E+03  0.29211525245E+03  0.33646260999E+03  0.47000000000E+01 0. -1.
        -13    1    6    6    0    0  0.21022945280E+02 -0.31089491011E+02  0.27181413601E+00  0.37531247815E+02  0.00000000000E+00 0.  1.
         14    1    6    6    0    0  0.41152708356E+02 -0.70745092055E+01  0.10792920660E+03  0.11572513869E+03  0.00000000000E+00 0. -1.
         -5    1    3    3    0  503 -0.37593213136E+02 -0.16009223363E+02  0.44525737096E+02  0.60614983053E+02  0.47000000000E+01 0.  1.
         11    1    4    4    0    0 -0.30082404317E+00  0.65321138628E+02  0.62468285423E+02  0.90383783559E+02  0.00000000000E+00 0. -1.
        -12    1    4    4    0    0 -0.59704903935E+02  0.15194367857E+03  0.34541578195E+03  0.38205185438E+03  0.00000000000E+00 0.  1.
</event>
<event>
12    1  0.8113184E-002  0.1763897E+03  0.7818608E-02  0.1171975E+00
         21   -1    0    0  503  502  0.00000000000E+00  0.00000000000E+00  0.78004119247E+03  0.78004119247E+03  0.00000000000E+00 0. -1.
         21   -1    0    0  501  503 -0.00000000000E+00 -0.00000000000E+00 -0.41998130651E+02  0.41998130651E+02  0.00000000000E+00 0. -1.
          6    2    1    2  501    0  0.24546696617E+02  0.27006664027E+01  0.26769080086E+03  0.32058024641E+03  0.17465249958E+03 0.  0.
         24    2    3    3    0    0  0.58361684493E+02  0.50017477172E+02  0.21384933433E+03  0.24118674854E+03  0.80818782696E+02 0.  0.
         -6    2    1    2    0  502 -0.24546696617E+02 -0.27006664027E+01  0.47035226096E+03  0.50145907671E+03  0.17210497469E+03 0.  0.
        -24    2    5    5    0    0 -0.16723330018E+02 -0.23811488066E+02  0.47057320932E+03  0.47845884466E+03  0.81468177715E+02 0.  0.
          5    1    3    3  501    0 -0.33814987876E+02 -0.47316810769E+02  0.53841466525E+02  0.79393497869E+02  0.47000000000E+01 0. -1.
        -13    1    4    4    0    0  0.12859617803E+02  0.40092282425E+02  0.17660260371E+03  0.18155230794E+03  0.00000000000E+00 0.  1.
         14    1    4    4    0    0  0.45502066690E+02  0.99251947469E+01  0.37246730624E+02  0.59634440602E+02  0.00000000000E+00 0. -1.
         -5    1    5    5    0  502 -0.78233665986E+01  0.21110821663E+02 -0.22094835249E+00  0.23000232051E+02  0.47000000000E+01 0.  1.
         13    1    6    6    0    0 -0.38922127545E+02 -0.17370669634E+02  0.42711150370E+03  0.42923293067E+03  0.00000000000E+00 0. -1.
        -14    1    6    6    0    0  0.22198797527E+02 -0.64408184321E+01  0.43461705613E+02  0.49225913993E+02  0.00000000000E+00 0.  1.
</event>
<event>
12    1  0.8113184E-002  0.2122659E+03  0.7818608E-02  0.1139936E+00
         21   -1    0    0  503  502  0.00000000000E+00  0.00000000000E+00  0.23787385296E+03  0.23787385296E+03  0.00000000000E+00 0. -1.
         21   -1    0    0  501  503 -0.00000000000E+00 -0.00000000000E+00 -0.19003032750E+03  0.19003032750E+03  0.00000000000E+00 0. -1.
          6    2    1    2  501    0 -0.38501421834E+02 -0.11787395444E+03  0.62083738326E+01  0.21235669207E+03  0.17227940140E+03 0.  0.
         24    2    3    3    0    0 -0.34091546542E+02 -0.10496382937E+03  0.65807941562E+02  0.15103527002E+03  0.79380908257E+02 0.  0.
         -6    2    1    2    0  502  0.38501421834E+02  0.11787395444E+03  0.41635151621E+02  0.21554748838E+03  0.17132018352E+03 0.  0.
        -24    2    5    5    0    0  0.59159656565E+02  0.32427776510E+02  0.70944422020E+02  0.12276313994E+03  0.74069236924E+02 0.  0.
          5    1    3    3  501    0 -0.44098752924E+01 -0.12910125064E+02 -0.59599567729E+02  0.61321422054E+02  0.47000000000E+01 0. -1.
        -11    1    4    4    0    0  0.17099718686E+02 -0.14302656544E+02 -0.77005976344E+01  0.23585282854E+02  0.00000000000E+00 0.  1.
         12    1    4    4    0    0 -0.51191265228E+02 -0.90661172828E+02  0.73508539196E+02  0.12744998717E+03  0.00000000000E+00 0. -1.
         -5    1    5    5    0  502 -0.20658234731E+02  0.85446177926E+02 -0.29309270399E+02  0.92784348441E+02  0.47000000000E+01 0.  1.
         11    1    6    6    0    0  0.49133126537E+02  0.14615391447E+02  0.24890849314E+01  0.51321236679E+02  0.00000000000E+00 0. -1.
        -12    1    6    6    0    0  0.10026530028E+02  0.17812385063E+02  0.68455337089E+02  0.71441903264E+02  0.00000000000E+00 0.  1.
</event>
<event>
12    1  0.8113184E-002  0.2089038E+03  0.7818608E-02  0.1144445E+00
         21   -1    0    0  501  502  0.00000000000E+00  0.00000000000E+00  0.10706242716E+03  0.10706242716E+03  0.00000000000E+00 0. -1.
         21   -1    0    0  502  503 -0.00000000000E+00 -0.00000000000E+00 -0.46776995744E+03  0.46776995744E+03  0.00000000000E+00 0.  1.
         -6    2    1    2    0  503 -0.96161797027E+02  0.17164157182E+02 -0.30210607418E+03  0.36729943070E+03  0.18465939519E+03 0.  0.
        -24    2    3    3    0    0 -0.84437992118E+02  0.29676835522E+02 -0.32024182805E+03  0.34190237793E+03  0.79573353054E+02 0.  0.
          6    2    1    2  501    0  0.96161797027E+02 -0.17164157182E+02 -0.58601456101E+02  0.20753295390E+03  0.17347650215E+03 0.  0.
         24    2    5    5    0    0  0.50127620887E+02  0.19716427804E+02 -0.97253567118E+02  0.13685482002E+03  0.79808956550E+02 0.  0.
          5    1    5    5  501    0  0.46034176140E+02 -0.36880584987E+02  0.38652111017E+02  0.70678133875E+02  0.47000000000E+01 0. -1.
        -11    1    6    6    0    0  0.52687189269E+02 -0.19228421254E+02 -0.46666233564E+02  0.72961698528E+02  0.00000000000E+00 0.  1.
         12    1    6    6    0    0 -0.25595683821E+01  0.38944849059E+02 -0.50587333554E+02  0.63893121497E+02  0.00000000000E+00 0. -1.
         -5    1    3    3    0  503 -0.11723804909E+02 -0.12512678340E+02  0.18135753874E+02  0.25397052770E+02  0.47000000000E+01 0.  1.
         13    1    4    4    0    0  0.12361706165E+02 -0.71308666057E+01 -0.22302998738E+02  0.26478005789E+02  0.00000000000E+00 0. -1.
        -14    1    4    4    0    0 -0.96799698283E+02  0.36807702128E+02 -0.29793882932E+03  0.31542437214E+03  0.00000000000E+00 0.  1.
</event>
<event>
12    1  0.8113184E-002  0.2177122E+03  0.7818608E-02  0.1135881E+00
         21   -1    0    0  501  502  0.00000000000E+00  0.00000000000E+00  0.17349394971E+03  0.17349394971E+03  0.00000000000E+00 0.  1.
         21   -1    0    0  502  503 -0.00000000000E+00 -0.00000000000E+00 -0.27740298176E+03  0.27740298176E+03  0.00000000000E+00 0.  1.
         -6    2    1    2    0  503 -0.13251221427E+03  0.11887766963E+02 -0.85442847764E+02  0.23387830975E+03  0.17233043145E+03 0.  0.
        -24    2    3    3    0    0 -0.67842664313E+02 -0.36033220920E+02  0.68518694734E+01  0.11132637545E+03  0.80284454559E+02 0.  0.
          6    2    1    2  501    0  0.13251221427E+03 -0.11887766963E+02 -0.18466184291E+02  0.21701862172E+03  0.17045608314E+03 0.  0.
         24    2    5    5    0    0  0.25480711942E+02 -0.50569979681E+02  0.11140941173E+02  0.99329506043E+02  0.80843309399E+02 0.  0.
          5    1    5    5  501    0  0.10703150233E+03  0.38682212718E+02 -0.29607125464E+02  0.11768911568E+03  0.47000000000E+01 0. -1.
        -13    1    6    6    0    0  0.74655042369E+01  0.21124854230E+02  0.11967973588E+02  0.25401291533E+02  0.00000000000E+00 0.  1.
         14    1    6    6    0    0  0.18015207705E+02 -0.71694833910E+02 -0.82703241453E+00  0.73928214511E+02  0.00000000000E+00 0. -1.
         -5    1    3    3    0  503 -0.64669549956E+02  0.47920987883E+02 -0.92294717238E+02  0.12255193430E+03  0.47000000000E+01 0.  1.
         13    1    4    4    0    0 -0.69427254782E+02  0.54051418811E+01  0.49920281378E+01  0.69816041210E+02  0.00000000000E+00 0. -1.
        -14    1    4    4    0    0  0.15845904691E+01 -0.41438362802E+02  0.18598413357E+01  0.41510334236E+02  0.00000000000E+00 0.  1.
</event>
<event>
12    1  0.8113184E-002  0.2193102E+03  0.7818608E-02  0.1134426E+00
         21   -1    0    0  503  502  0.00000000000E+00  0.00000000000E+00  0.34098543022E+03  0.34098543022E+03  0.00000000000E+00 0.  1.
         21   -1    0    0  501  503 -0.00000000000E+00 -0.00000000000E+00 -0.29160959998E+03  0.29160959998E+03  0.00000000000E+00 0. -1.
          6    2    1    2  501    0  0.64849104512E+02 -0.11950285362E+03 -0.20265143924E+03  0.29860438079E+03  0.17207740125E+03 0.  0.
         24    2    3    3    0    0  0.52694091816E+02  0.34271059867E+01 -0.91425407671E+02  0.13231295166E+03  0.79747724991E+02 0.  0.
         -6    2    1    2    0  502 -0.64849104512E+02  0.11950285362E+03  0.25202726949E+03  0.33399064940E+03  0.17188854221E+03 0.  0.
        -24    2    5    5    0    0 -0.40555432130E+02  0.13695254941E+03  0.13113529163E+03  0.20936467012E+03  0.78970605412E+02 0.  0.
          5    1    3    3  501    0  0.12155012696E+02 -0.12292995961E+03 -0.11122603157E+03  0.16629142913E+03  0.47000000000E+01 0. -1.
        -11    1    4    4    0    0  0.18752468316E+02  0.10236919484E+02 -0.95127877084E+02  0.97497500414E+02  0.00000000000E+00 0.  1.
         12    1    4    4    0    0  0.33941623500E+02 -0.68098134971E+01  0.37024694126E+01  0.34815451246E+02  0.00000000000E+00 0. -1.
         -5    1    5    5    0  502 -0.24293672382E+02 -0.17449695789E+02  0.12089197786E+03  0.12462597928E+03  0.47000000000E+01 0.  1.
         13    1    6    6    0    0 -0.10237301321E+02  0.12027131878E+03  0.71154456205E+02  0.14011762593E+03  0.00000000000E+00 0. -1.
        -14    1    6    6    0    0 -0.30318130809E+02  0.16681230636E+02  0.59980835421E+02  0.69247044190E+02  0.00000000000E+00 0.  1.
</event>
<event>
12    1  0.8113184E-002  0.2098841E+03  0.7818608E-02  0.1142011E+00
         21   -1    0    0  503  502  0.00000000000E+00  0.00000000000E+00  0.48465095826E+03  0.48465095826E+03  0.00000000000E+00 0. -1.
         21   -1    0    0  501  503 -0.00000000000E+00 -0.00000000000E+00 -0.28622086065E+03  0.28622086065E+03  0.00000000000E+00 0. -1.
          6    2    1    2  501    0  0.11735604690E+03 -0.25792182553E+01 -0.21994886802E+03  0.30279884812E+03  0.17184453372E+03 0.  0.
         24    2    3    3    0    0  0.93341371347E+02 -0.59505748701E+02 -0.10433858903E+03  0.17163040253E+03  0.79478979474E+02 0.  0.
         -6    2    1    2    0  502 -0.11735604690E+03  0.25792182553E+01  0.41837896563E+03  0.46807297080E+03  0.17398923245E+03 0.  0.
        -24    2    5    5    0    0 -0.14793042069E+03  0.16936459095E+02  0.38563174837E+03  0.42079302859E+03  0.78642701789E+02 0.  0.
          5    1    3    3  501    0  0.24014675549E+02  0.56926530445E+02 -0.11561027898E+03  0.13116844558E+03  0.47000000000E+01 0. -1.
        -13    1    4    4    0    0  0.65134382564E+01  0.13477265595E+02  0.32244926952E+01  0.15312051429E+02  0.00000000000E+00 0.  1.
         14    1    4    4    0    0  0.86827933091E+02 -0.72983014295E+02 -0.10756308173E+03  0.15631835110E+03  0.00000000000E+00 0. -1.
         -5    1    5    5    0  502  0.30574373797E+02 -0.14357240840E+02  0.32747217253E+02  0.47279942211E+02  0.47000000000E+01 0.  1.
         13    1    6    6    0    0 -0.57493748419E+02 -0.26650466456E+01  0.25041232599E+03  0.25694156260E+03  0.00000000000E+00 0. -1.
        -14    1    6    6    0    0 -0.90436672274E+02  0.19601505741E+02  0.13521942238E+03  0.16385146599E+03  0.00000000000E+00 0.  1.
</event>
<event>
12    1  0.8113184E-002  0.1857016E+03  0.7818608E-02  0.1162643E+00
         21   -1    0    0  501  502  0.00000000000E+00  0.00000000000E+00  0.13673748508E+03  0.13673748508E+03  0.00000000000E+00 0.  1.
         21   -1    0    0  502  503 -0.00000000000E+00 -0.00000000000E+00 -0.28587916526E+03  0.28587916526E+03  0.00000000000E+00 0.  1.
         -6    2    1    2    0  503  0.41852323903E+02 -0.62089789924E+02 -0.14844134058E+03  0.23691377886E+03  0.16877958406E+03 0.  0.
        -24    2    3    3    0    0 -0.35157516485E+02 -0.11891897149E+02 -0.47899696303E+02  0.10060143097E+03  0.80304413474E+02 0.  0.
          6    2    1    2  501    0 -0.41852323903E+02  0.62089789924E+02 -0.70033959861E+00  0.18570287148E+03  0.16993618500E+03 0.  0.
         24    2    5    5    0    0 -0.21462397611E+02 -0.19807048384E+02 -0.38701656241E+02  0.93025844736E+02  0.79391661502E+02 0.  0.
          5    1    5    5  501    0 -0.20389926292E+02  0.81896838309E+02  0.38001316643E+02  0.92677026742E+02  0.47000000000E+01 0. -1.
        -13    1    6    6    0    0 -0.27301339197E+02 -0.29979882007E+02  0.10955546898E+02  0.42002148218E+02  0.00000000000E+00 0.  1.
         14    1    6    6    0    0  0.58389415856E+01  0.10172833622E+02 -0.49657203139E+02  0.51023696518E+02  0.00000000000E+00 0. -1.
         -5    1    3    3    0  503  0.77009840389E+02 -0.50197892776E+02 -0.10054164428E+03  0.13631234790E+03  0.47000000000E+01 0.  1.
         11    1    4    4    0    0 -0.35353444178E+02  0.11899592755E+02  0.94769611755E+01  0.38487389053E+02  0.00000000000E+00 0. -1.
        -12    1    4    4    0    0  0.19592769287E+00 -0.23791489903E+02 -0.57376657478E+02  0.62114041914E+02  0.00000000000E+00 0.  1.
</event>
<event>
12    1  0.8113184E-002  0.1968339E+03  0.7818608E-02  0.1152817E+00
         21   -1    0    0  503  502  0.00000000000E+00  0.00000000000E+00  0.43541863055E+02  0.43541863055E+02  0.00000000000E+00 0.  1.
         21   -1    0    0  501  503 -0.00000000000E+00 -0.00000000000E+00 -0.22179214072E+04  0.22179214072E+04  0.00000000000E+00 0. -1.
          6    2    1    2  501    0  0.75758883335E+02  0.53955255034E+02 -0.19667069372E+04  0.19765322569E+04  0.17347336436E+03 0.  0.
         24    2    3    3    0    0  0.41654477532E+02  0.86312498226E+02 -0.95751423195E+03  0.96623422769E+03  0.87121383834E+02 0.  0.
         -6    2    1    2    0  502 -0.75758883335E+02 -0.53955255034E+02 -0.20767260698E+03  0.28493101330E+03  0.17148525505E+03 0.  0.
        -24    2    5    5    0    0 -0.20506132219E+02 -0.73996942944E+02 -0.19535726472E+03  0.22469569629E+03  0.80172601478E+02 0.  0.
          5    1    3    3  501    0  0.34104405803E+02 -0.32357243191E+02 -0.10091927052E+04  0.10102980293E+04  0.47000000000E+01 0. -1.
        -11    1    4    4    0    0  0.10493390069E+02 -0.16639969703E+02 -0.93282037004E+02  0.95333825342E+02  0.00000000000E+00 0.  1.
         12    1    4    4    0    0  0.31161087463E+02  0.10295246793E+03 -0.86423219495E+03  0.87090040235E+03  0.00000000000E+00 0. -1.
         -5    1    5    5    0  502 -0.55252751116E+02  0.20041687910E+02 -0.12315342255E+02  0.60235317007E+02  0.47000000000E+01 0.  1.
         13    1    6    6    0    0 -0.17222924515E+02 -0.71245989740E+02 -0.77175238512E+02  0.10643607294E+03  0.00000000000E+00 0. -1.
        -14    1    6    6    0    0 -0.32832077046E+01 -0.27509532039E+01 -0.11818202621E+03  0.11825962335E+03  0.00000000000E+00 0.  1.
</event>
<event>
12    1  0.8113184E-002  0.1915011E+03  0.7818608E-02  0.1157679E+00
         21   -1    0    0  503  502  0.00000000000E+00  0.00000000000E+00  0.68689013849E+02  0.68689013849E+02  0.00000000000E+00 0.  1.
         21   -1    0    0  501  503 -0.00000000000E+00 -0.00000000000E+00 -0.53401547490E+03  0.53401547490E+03  0.00000000000E+00 0.  1.
          6    2    1    2  501    0 -0.64147746771E+02  0.46724420119E+02 -0.19943761253E+03  0.27649240204E+03  0.17428305209E+03 0.  0.
         24    2    3    3    0    0 -0.96478154927E+02  0.48374745109E+02 -0.88984953973E+02  0.16129752956E+03  0.80314510931E+02 0.  0.
         -6    2    1    2    0  502  0.64147746771E+02 -0.46724420119E+02 -0.26588884852E+03  0.32621208671E+03  0.17152067191E+03 0.  0.
        -24    2    5    5    0    0  0.45242981579E+02 -0.20076246918E+02 -0.46497350938E+02  0.10435124182E+03  0.79228750794E+02 0.  0.
          5    1    3    3  501    0  0.32330408156E+02 -0.16503249901E+01 -0.11045265856E+03  0.11519487248E+03  0.47000000000E+01 0. -1.
        -11    1    4    4    0    0 -0.72288109536E+02 -0.76467831322E+01 -0.39479687474E+02  0.82720552438E+02  0.00000000000E+00 0.  1.
         12    1    4    4    0    0 -0.24190045391E+02  0.56021528241E+02 -0.49505266499E+02  0.78576977122E+02  0.00000000000E+00 0. -1.
         -5    1    5    5    0  502  0.18904765192E+02 -0.26648173201E+02 -0.21939149758E+03  0.22186084489E+03  0.47000000000E+01 0.  1.
         11    1    6    6    0    0 -0.19820239916E+02 -0.17400061166E+02 -0.42127198225E+01  0.26708632447E+02  0.00000000000E+00 0. -1.
        -12    1    6    6    0    0  0.65063221495E+02 -0.26761857520E+01 -0.42284631115E+02  0.77642609372E+02  0.00000000000E+00 0.  1.
</event>
<event>
12    1  0.8113184E-002  0.2068682E+03  0.7818608E-02  0.1144236E+00
         21   -1    0    0  503  502  0.00000000000E+00  0.00000000000E+00  0.30376825489E+03  0.30376825489E+03  0.00000000000E+00 0.  1.
         21   -1    0    0  501  503 -0.00000000000E+00 -0.00000000000E+00 -0.17380146269E+03  0.17380146269E+03  0.00000000000E+00 0.  1.
          6    2    1    2  501    0 -0.42260171374E+02 -0.10793330508E+03  0.16968367503E+03  0.26692338486E+03  0.17035264420E+03 0.  0.
         24    2    3    3    0    0 -0.68052327189E+02 -0.12748053907E+03  0.16416369470E+03  0.23375879771E+03  0.82529084417E+02 0.  0.
         -6    2    1    2    0  502  0.42260171374E+02  0.10793330508E+03 -0.39716882837E+02  0.21064633271E+03  0.17134446671E+03 0.  0.
        -24    2    5    5    0    0  0.40317264134E+02  0.52469329338E+02 -0.89273811200E+02  0.13609429288E+03  0.78570547158E+02 0.  0.
          5    1    3    3  501    0  0.25792155814E+02  0.19547233985E+02  0.55199803332E+01  0.33164587151E+02  0.47000000000E+01 0. -1.
        -13    1    4    4    0    0 -0.36058690954E+02 -0.87115325293E+02  0.15502978459E+03  0.18144845881E+03  0.00000000000E+00 0.  1.
         14    1    4    4    0    0 -0.31993636235E+02 -0.40365213773E+02  0.91339101101E+01  0.52310338905E+02  0.00000000000E+00 0. -1.
         -5    1    5    5    0  502  0.19429072406E+01  0.55463975743E+02  0.49556928362E+02  0.74552039828E+02  0.47000000000E+01 0.  1.
         13    1    6    6    0    0  0.62542275871E+01 -0.16530686059E+02 -0.42537821122E+02  0.46063490642E+02  0.00000000000E+00 0. -1.
        -14    1    6    6    0    0  0.34063036547E+02  0.69000015398E+02 -0.46735990077E+02  0.90030802241E+02  0.00000000000E+00 0.  1.
</event>
<event>
12    1  0.8113184E-002  0.2039381E+03  0.7818608E-02  0.1146933E+00
         21   -1    0    0  503  502  0.00000000000E+00  0.00000000000E+00  0.29082041768E+03  0.29082041768E+03  0.00000000000E+00 0. -1.
         21   -1    0    0  501  503 -0.00000000000E+00 -0.00000000000E+00 -0.23407474669E+03  0.23407474669E+03  0.00000000000E+00 0. -1.
          6    2    1    2  501    0  0.10479189561E+03  0.17178954475E+02 -0.13685384030E+03  0.24369856647E+03  0.17141633479E+03 0.  0.
         24    2    3    3    0    0  0.13439014171E+03  0.42724048223E+02 -0.11502256843E+03  0.19867299131E+03  0.79716445872E+02 0.  0.
         -6    2    1    2    0  502 -0.10479189561E+03 -0.17178954475E+02  0.19359951129E+03  0.28119659790E+03  0.17411001705E+03 0.  0.
        -24    2    5    5    0    0 -0.53071986330E+02 -0.79550982232E+02  0.11402224215E+03  0.16753107707E+03  0.76945406439E+02 0.  0.
          5    1    3    3  501    0 -0.29598246101E+02 -0.25545093748E+02 -0.21831271869E+02  0.45025575158E+02  0.47000000000E+01 0. -1.
        -13    1    4    4    0    0  0.27528353388E+02  0.25009628535E+02  0.43899450816E+01  0.37450812775E+02  0.00000000000E+00 0.  1.
         14    1    4    4    0    0  0.10686178833E+03  0.17714419688E+02 -0.11941251351E+03  0.16122217854E+03  0.00000000000E+00 0. -1.
         -5    1    5    5    0  502 -0.51719909284E+02  0.62372027757E+02  0.79577269142E+02  0.11366552084E+03  0.47000000000E+01 0.  1.
         13    1    6    6    0    0 -0.66173945220E+02 -0.44649525905E+02  0.52335610114E+02  0.95454634647E+02  0.00000000000E+00 0. -1.
        -14    1    6    6    0    0  0.13101958890E+02 -0.34901456327E+02  0.61686632032E+02  0.72076442420E+02  0.00000000000E+00 0.  1.
</event>
<event>
12    1  0.8113184E-002  0.2486724E+03  0.7818608E-02  0.1114172E+00
         21   -1    0    0  501  502  0.00000000000E+00  0.00000000000E+00  0.13007026835E+03  0.13007026835E+03  0.00000000000E+00 0.  1.
         21   -1    0    0  502  503 -0.00000000000E+00 -0.00000000000E+00 -0.79248461113E+03  0.79248461113E+03  0.00000000000E+00 0. -1.
         -6    2    1    2    0  503  0.17482192855E+03 -0.41156415477E+02 -0.62305219260E+03  0.67078643257E+03  0.17176683665E+03 0.  0.
        -24    2    3    3    0    0  0.12838913472E+03 -0.58122559209E+02 -0.27307886658E+03  0.31730761665E+03  0.79057285607E+02 0.  0.
          6    2    1    2  501    0 -0.17482192855E+03  0.41156415477E+02 -0.39362150181E+02  0.25176844691E+03  0.17199248459E+03 0.  0.
         24    2    5    5    0    0 -0.78392349111E+02  0.81722312552E+02  0.75049379003E+01  0.13703889648E+03  0.76807800963E+02 0.  0.
          5    1    5    5  501    0 -0.96429579440E+02 -0.40565897074E+02 -0.46867088081E+02  0.11472955043E+03  0.47000000000E+01 0. -1.
        -13    1    6    6    0    0 -0.19873041013E+02  0.54337191082E+02 -0.26938655153E+02  0.63821307063E+02  0.00000000000E+00 0.  1.
         14    1    6    6    0    0 -0.58519308098E+02  0.27385121470E+02  0.34443593053E+02  0.73217589421E+02  0.00000000000E+00 0. -1.
         -5    1    3    3    0  503  0.46432793827E+02  0.16966143732E+02 -0.34997332602E+03  0.35347881592E+03  0.47000000000E+01 0.  1.
         13    1    4    4    0    0  0.53492973381E+02 -0.19470949719E+02 -0.19236357424E+03  0.20060997178E+03  0.00000000000E+00 0. -1.
        -14    1    4    4    0    0  0.74896161342E+02 -0.38651609490E+02 -0.80715292337E+02  0.11669764487E+03  0.00000000000E+00 0.  1.
</event>
<event>
12    1  0.8113184E-002  0.2200841E+03  0.7818608E-02  0.1134263E+00
         21   -1    0    0  501  502  0.00000000000E+00  0.00000000000E+00  0.97976851255E+02  0.97976851255E+02  0.00000000000E+00 0.  1.
         21   -1    0    0  502  503 -0.00000000000E+00 -0.00000000000E+00 -0.75000606483E+03  0.75000606483E+03  0.00000000000E+00 0. -1.
         -6    2    1    2    0  503 -0.68189547958E+02  0.11416622081E+03 -0.74784981105E+02  0.23020632609E+03  0.17239030932E+03 0.  0.
        -24    2    3    3    0    0 -0.63980745652E+02  0.13279118383E+03 -0.16837966273E+02  0.16901359946E+03  0.80963234715E+02 0.  0.
          6    2    1    2  501    0  0.68189547958E+02 -0.11416622081E+03 -0.57724423247E+03  0.61777659000E+03  0.17536610506E+03 0.  0.
         24    2    5    5    0    0  0.87503085048E+02 -0.81791450631E+02 -0.24964962019E+03  0.28798656824E+03  0.79149853660E+02 0.  0.
          5    1    5    5  501    0 -0.19313537089E+02 -0.32374770181E+02 -0.32759461228E+03  0.32979002176E+03  0.47000000000E+01 0. -1.
        -13    1    6    6    0    0  0.81824198106E+00 -0.41192602403E+02 -0.39559931491E+02  0.57118194931E+02  0.00000000000E+00 0.  1.
         14    1    6    6    0    0  0.86684843066E+02 -0.40598848228E+02 -0.21008968870E+03  0.23086837330E+03  0.00000000000E+00 0. -1.
         -5    1    3    3    0  503 -0.42088023063E+01 -0.18624963021E+02 -0.57947014832E+02  0.61192726629E+02  0.47000000000E+01 0.  1.
         13    1    4    4    0    0 -0.24940031853E+02  0.24467068987E+02 -0.38348165897E+02  0.51877013034E+02  0.00000000000E+00 0. -1.
        -14    1    4    4    0    0 -0.39040713799E+02  0.10832411485E+03  0.21510199624E+02  0.11713658642E+03  0.00000000000E+00 0.  1.
</event>
<event>
12    1  0.8113184E-002  0.2968987E+03  0.7818608E-02  0.1086967E+00
         21   -1    0    0  503  502  0.00000000000E+00  0.00000000000E+00  0.47408983183E+03  0.47408983183E+03  0.00000000000E+00 0.  1.
         21   -1    0    0  501  503 -0.00000000000E+00 -0.00000000000E+00 -0.20496387293E+03  0.20496387293E+03  0.00000000000E+00 0.  1.
          6    2    1    2  501    0  0.18200408386E+03  0.15689521325E+03  0.28636486413E+02  0.29697516602E+03  0.17214123968E+03 0.  0.
         24    2    3    3    0    0  0.18231345905E+03  0.11949610827E+03 -0.23344165044E+02  0.23276561150E+03  0.78213570523E+02 0.  0.
         -6    2    1    2    0  502 -0.18200408386E+03 -0.15689521325E+03  0.24048947249E+03  0.38207853874E+03  0.17437668680E+03 0.  0.
        -24    2    5    5    0    0 -0.80199433896E+02 -0.26832217112E+01  0.67795356768E+02  0.12911436599E+03  0.75067704300E+02 0.  0.
          5    1    3    3  501    0 -0.30937518434E+00  0.37399104978E+02  0.51980651457E+02  0.64209554523E+02  0.47000000000E+01 0. -1.
        -13    1    4    4    0    0  0.13378729068E+03  0.12138128947E+03 -0.31944159553E+02  0.18344722923E+03  0.00000000000E+00 0.  1.
         14    1    4    4    0    0  0.48526168370E+02 -0.18851811995E+01  0.85999945091E+01  0.49318382276E+02  0.00000000000E+00 0. -1.
         -5    1    5    5    0  502 -0.10180464997E+03 -0.15421199154E+03  0.17269411572E+03  0.25296417275E+03  0.47000000000E+01 0.  1.
         11    1    6    6    0    0 -0.20745698608E+02 -0.56473559396E+01  0.66158236316E+02  0.69564278708E+02  0.00000000000E+00 0. -1.
        -12    1    6    6    0    0 -0.59453735289E+02  0.29641342284E+01  0.16371204527E+01  0.59550087278E+02  0.00000000000E+00 0.  1.
</event>
<event>
12    1  0.8113184E-002  0.2955494E+03  0.7818608E-02  0.1087680E+00
         21   -1    0    0  501  502  0.00000000000E+00  0.00000000000E+00  0.67950749541E+03  0.67950749541E+03  0.00000000000E+00 0. -1.
         21   -1    0    0  502  503 -0.00000000000E+00 -0.00000000000E+00 -0.12148430670E+04  0.12148430670E+04  0.00000000000E+00 0. -1.
         -6    2    1    2    0  503  0.23744334911E+03  0.35162079392E+02 -0.11635281468E+04  0.12001061163E+04  0.16982704744E+03 0.  0.
        -24    2    3    3    0    0  0.23981924569E+03  0.73866351503E+01 -0.11210562963E+04  0.11490858432E+04  0.77866696285E+02 0.  0.
          6    2    1    2  501    0 -0.23744334911E+03 -0.35162079392E+02  0.62819257527E+03  0.69424444610E+03  0.17243469329E+03 0.  0.
         24    2    5    5    0    0 -0.19035244081E+03  0.14226426953E+02  0.56257655209E+03  0.59945873673E+03  0.80137114542E+02 0.  0.
          5    1    5    5  501    0 -0.47090908298E+02 -0.49388506345E+02  0.65616023173E+02  0.94785709368E+02  0.47000000000E+01 0. -1.
        -11    1    6    6    0    0 -0.10694911944E+03  0.29036764848E+02  0.41249346603E+03  0.42712071758E+03  0.00000000000E+00 0.  1.
         12    1    6    6    0    0 -0.83403321368E+02 -0.14810337895E+02  0.15008308606E+03  0.17233801915E+03  0.00000000000E+00 0. -1.
         -5    1    3    3    0  503 -0.23758965794E+01  0.27775444242E+02 -0.42471850478E+02  0.51020273132E+02  0.47000000000E+01 0.  1.
         11    1    4    4    0    0  0.75136585791E+02  0.25780670320E+02 -0.50149958778E+03  0.50775189417E+03  0.00000000000E+00 0. -1.
        -12    1    4    4    0    0  0.16468265990E+03 -0.18394035170E+02 -0.61955670856E+03  0.64133394899E+03  0.00000000000E+00 0.  1.
</event>
<event>
12    1  0.8113184E-002  0.1935748E+03  0.7818608E-02  0.1157303E+00
         21   -1    0    0  503  502  0.00000000000E+00  0.00000000000E+00  0.22129002141E+02  0.22129002141E+02  0.00000000000E+00 0. -1.
         21   -1    0    0  501  503 -0.00000000000E+00 -0.00000000000E+00 -0.35929847218E+04  0.35929847218E+04  0.00000000000E+00 0. -1.
          6    2    1    2  501    0  0.17638595652E+02 -0.89188510203E+02 -0.31452415586E+04  0.31511927363E+04  0.17089613497E+03 0.  0.
         24    2    3    3    0    0 -0.48335434906E+02 -0.19168427098E+02 -0.13716381582E+04  0.13749758304E+04  0.80396233746E+02 0.  0.
         -6    2    1    2    0  502 -0.17638595652E+02  0.89188510203E+02 -0.42561416110E+03  0.46392098768E+03  0.16065353490E+03 0.  0.
        -24    2    5    5    0    0 -0.29627541898E+02  0.90384057161E+02 -0.43200660687E+03  0.44949470862E+03  0.79804233409E+02 0.  0.
          5    1    3    3  501    0  0.65974030558E+02 -0.70020083104E+02 -0.17736034004E+04  0.17762169059E+04  0.47000000000E+01 0. -1.
        -13    1    4    4    0    0 -0.28283683785E+02  0.45106261971E+01 -0.13767442371E+03  0.14062204471E+03  0.00000000000E+00 0.  1.
         14    1    4    4    0    0 -0.20051751121E+02 -0.23679053296E+02 -0.12339637345E+04  0.12343537857E+04  0.00000000000E+00 0. -1.
         -5    1    5    5    0  502  0.11988946247E+02 -0.11955469586E+01  0.63924457713E+01  0.14426279062E+02  0.47000000000E+01 0.  1.
         13    1    6    6    0    0  0.49341803218E+01 -0.84730669474E+01 -0.11962534743E+03  0.12002650852E+03  0.00000000000E+00 0. -1.
        -14    1    6    6    0    0 -0.34561722220E+02  0.98857124109E+02 -0.31238125944E+03  0.32946820010E+03  0.00000000000E+00 0.  1.
</event>
<event>
12    1  0.8113184E-002  0.1830468E+03  0.7818608E-02  0.1166062E+00
         21   -1    0    0  501  502  0.00000000000E+00  0.00000000000E+00  0.64808682183E+03  0.64808682183E+03  0.00000000000E+00 0. -1.
         21   -1    0    0  502  503 -0.00000000000E+00 -0.00000000000E+00 -0.66766258106E+02  0.66766258106E+02  0.00000000000E+00 0. -1.
         -6    2    1    2    0  503 -0.58660311959E+02  0.23830095138E+02  0.11034936740E+03  0.20956109531E+03  0.16652316400E+03 0.  0.
        -24    2    3    3    0    0 -0.92561294992E+02 -0.17475637560E+02  0.84127879488E+02  0.14985266514E+03  0.80655625373E+02 0.  0.
          6    2    1    2  501    0  0.58660311959E+02 -0.23830095138E+02  0.47097119632E+03  0.50529198463E+03  0.17174753661E+03 0.  0.
         24    2    5    5    0    0  0.76981898085E+02 -0.56933436237E+02  0.43705265304E+03  0.45426190243E+03  0.78557149157E+02 0.  0.
          5    1    5    5  501    0 -0.18321586126E+02  0.33103341099E+02  0.33918543285E+02  0.51030082193E+02  0.47000000000E+01 0. -1.
        -13    1    6    6    0    0 -0.14774012603E+02 -0.15955481466E+02  0.53181090536E+02  0.57455001765E+02  0.00000000000E+00 0.  1.
         14    1    6    6    0    0  0.91755910688E+02 -0.40977954771E+02  0.38387156250E+03  0.39680690067E+03  0.00000000000E+00 0. -1.
         -5    1    3    3    0  503  0.33900983033E+02  0.41305732699E+02  0.26221487916E+02  0.59708430166E+02  0.47000000000E+01 0.  1.
         13    1    4    4    0    0 -0.95088343639E+02  0.10713883089E+02  0.63884150971E+02  0.11505548719E+03  0.00000000000E+00 0. -1.
        -14    1    4    4    0    0  0.25270486468E+01 -0.28189520649E+02  0.20243728517E+02  0.34797177954E+02  0.00000000000E+00 0.  1.
</event>
<event>
12    1  0.8113184E-002  0.1851528E+03  0.7818608E-02  0.1163014E+00
         21   -1    0    0  501  502  0.00000000000E+00  0.00000000000E+00  0.16956780792E+03  0.16956780792E+03  0.00000000000E+00 0.  1.
         21   -1    0    0  502  503 -0.00000000000E+00 -0.00000000000E+00 -0.35629734555E+03  0.35629734555E+03  0.00000000000E+00 0.  1.
         -6    2    1    2    0  503  0.58040910804E+02  0.37777379119E+02 -0.26664238161E+03  0.32462240434E+03  0.17171391331E+03 0.  0.
        -24    2    3    3    0    0  0.20143767150E+02  0.82129137195E+02 -0.22365469767E+03  0.25200489328E+03  0.79586907933E+02 0.  0.
          6    2    1    2  501    0 -0.58040910804E+02 -0.37777379119E+02  0.79912843975E+02  0.20124274913E+03  0.17122121290E+03 0.  0.
         24    2    5    5    0    0 -0.97495913922E+02 -0.22277818752E+02  0.91865674229E+02  0.15694947884E+03  0.78689785649E+02 0.  0.
          5    1    5    5  501    0  0.39455003118E+02 -0.15499560367E+02 -0.11952830254E+02  0.44293270298E+02  0.47000000000E+01 0. -1.
        -13    1    6    6    0    0 -0.41510635365E+02 -0.56697007694E+01 -0.66558483417E+01  0.42421441187E+02  0.00000000000E+00 0.  1.
         14    1    6    6    0    0 -0.55985278557E+02 -0.16608117983E+02  0.98521522571E+02  0.11452803765E+03  0.00000000000E+00 0. -1.
         -5    1    3    3    0  503  0.37897143654E+02 -0.44351758076E+02 -0.42987683939E+02  0.72617511056E+02  0.47000000000E+01 0.  1.
         13    1    4    4    0    0 -0.25145100476E+02  0.21173033429E+02 -0.11383895898E+03  0.11849000803E+03  0.00000000000E+00 0. -1.
        -14    1    4    4    0    0  0.45288867626E+02  0.60956103766E+02 -0.10981573869E+03  0.13351488524E+03  0.00000000000E+00 0.  1.
</event>
<event>
12    1  0.8113184E-002  0.2158615E+03  0.7818608E-02  0.1137033E+00
         21   -1    0    0  503  502  0.00000000000E+00  0.00000000000E+00  0.37561203258E+03  0.37561203258E+03  0.00000000000E+00 0.  1.
         21   -1    0    0  501  503 -0.00000000000E+00 -0.00000000000E+00 -0.12474997709E+03  0.12474997709E+03  0.00000000000E+00 0.  1.
          6    2    1    2  501    0 -0.23999918738E+02  0.12790833931E+03  0.10573572383E+03  0.24036685359E+03  0.17221974813E+03 0.  0.
         24    2    3    3    0    0 -0.27525434706E+02  0.12988282386E+03  0.22099228254E+02  0.15650100092E+03  0.79856057435E+02 0.  0.
         -6    2    1    2    0  502  0.23999918738E+02 -0.12790833931E+03  0.14512633166E+03  0.25999515608E+03  0.17204444099E+03 0.  0.
        -24    2    5    5    0    0  0.52487759504E+02 -0.21762781154E+02  0.10629340524E+03  0.14333958286E+03  0.77584563390E+02 0.  0.
          5    1    3    3  501    0  0.35255159683E+01 -0.19744845565E+01  0.83636495572E+02  0.83865852668E+02  0.47000000000E+01 0. -1.
        -11    1    4    4    0    0 -0.17469429586E+02  0.10354842868E+03  0.50466957104E+02  0.11650910613E+03  0.00000000000E+00 0.  1.
         12    1    4    4    0    0 -0.10056005120E+02  0.26334395182E+02 -0.28367728850E+02  0.39991894787E+02  0.00000000000E+00 0. -1.
         -5    1    5    5    0  502 -0.28487840766E+02 -0.10614555815E+03  0.38832926425E+02  0.11665557321E+03  0.47000000000E+01 0.  1.
         11    1    6    6    0    0  0.38511231587E+02  0.12207568704E+02  0.12000636883E+02  0.42144453699E+02  0.00000000000E+00 0. -1.
        -12    1    6    6    0    0  0.13976527917E+02 -0.33970349857E+02  0.94292768355E+02  0.10119512916E+03  0.00000000000E+00 0.  1.
</event>
<event>
12    1  0.8113184E-002  0.2203180E+03  0.7818608E-02  0.1133775E+00
         21   -1    0    0  503  502  0.00000000000E+00  0.00000000000E+00  0.28066879144E+04  0.28066879144E+04  0.00000000000E+00 0. -1.
         21   -1    0    0  501  503 -0.00000000000E+00 -0.00000000000E+00 -0.51209425513E+02  0.51209425513E+02  0.00000000000E+00 0. -1.
          6    2    1    2  501    0  0.90159617759E+02  0.10200447135E+03  0.21465126726E+03  0.30759584210E+03  0.17322345883E+03 0.  0.
         24    2    3    3    0    0  0.44046764964E+02  0.91405646538E+01  0.31530161241E+02  0.97107054200E+02  0.80074724361E+02 0.  0.
         -6    2    1    2    0  502 -0.90159617759E+02 -0.10200447135E+03  0.25408272217E+04  0.25503014979E+04  0.17234004400E+03 0.  0.
        -24    2    5    5    0    0 -0.52056893920E+02 -0.12823849009E+03  0.22381764511E+04  0.22440995706E+04  0.85988523527E+02 0.  0.
          5    1    3    3  501    0  0.46112852795E+02  0.92863906698E+02  0.18312110602E+03  0.21048878790E+03  0.47000000000E+01 0. -1.
        -13    1    4    4    0    0  0.39062510647E+02  0.17251911662E+02  0.56246856769E+02  0.70620231453E+02  0.00000000000E+00 0.  1.
         14    1    4    4    0    0  0.49842543164E+01 -0.81113470078E+01 -0.24716695528E+02  0.26486822746E+02  0.00000000000E+00 0. -1.
         -5    1    5    5    0  502 -0.38102723838E+02  0.26234018736E+02  0.30265077058E+03  0.30620192722E+03  0.47000000000E+01 0.  1.
         11    1    6    6    0    0 -0.70228208575E+02 -0.64627770866E+02  0.14600249935E+04  0.14631410498E+04  0.00000000000E+00 0. -1.
        -12    1    6    6    0    0  0.18171314654E+02 -0.63610719222E+02  0.77815145758E+03  0.78095852080E+03  0.00000000000E+00 0.  1.
</event>
<event>
12    1  0.8113184E-002  0.3469245E+03  0.7818608E-02  0.1063973E+00
         21   -1    0    0  503  502  0.00000000000E+00  0.00000000000E+00  0.29300801478E+03  0.29300801478E+03  0.00000000000E+00 0. -1.
         21   -1    0    0  501  503 -0.00000000000E+00 -0.00000000000E+00 -0.57745877386E+03  0.57745877386E+03  0.00000000000E+00 0.  1.
          6    2    1    2  501    0  0.30077677334E+03 -0.80125665810E+01 -0.37665229093E+03  0.51149923926E+03  0.17097852176E+03 0.  0.
         24    2    3    3    0    0  0.21903389472E+03  0.36967602836E+02 -0.33397408193E+03  0.40879269921E+03  0.78932457425E+02 0.  0.
         -6    2    1    2    0  502 -0.30077677334E+03  0.80125665810E+01  0.92201531838E+02  0.35896754938E+03  0.17270121723E+03 0.  0.
        -24    2    5    5    0    0 -0.22269244615E+03 -0.27848237627E+01  0.62176557195E-01  0.23761889227E+03  0.82843547023E+02 0.  0.
          5    1    3    3  501    0  0.81742878621E+02 -0.44980169417E+02 -0.42678208999E+02  0.10270654005E+03  0.47000000000E+01 0. -1.
        -13    1    4    4    0    0  0.21161793184E+03  0.35169952313E+02 -0.27230897678E+03  0.34665725647E+03  0.00000000000E+00 0.  1.
         14    1    4    4    0    0  0.74159628714E+01  0.17976505225E+01 -0.61665105142E+02  0.62135442744E+02  0.00000000000E+00 0. -1.
         -5    1    5    5    0  502 -0.78084327188E+02  0.10797390344E+02  0.92139355281E+02  0.12134865711E+03  0.47000000000E+01 0.  1.
         11    1    6    6    0    0 -0.53702314236E+02 -0.33031872640E+02  0.16461980091E+02  0.65161644799E+02  0.00000000000E+00 0. -1.
        -12    1    6    6    0    0 -0.16899013191E+03  0.30247048878E+02 -0.16399803534E+02  0.17245724747E+03  0.00000000000E+00 0.  1.
</event>
<event>
12    1  0.8113184E-002  0.2655668E+03  0.7818608E-02  0.1104049E+00
         21   -1    0    0  501  502  0.00000000000E+00  0.00000000000E+00  0.11156998696E+03  0.11156998696E+03  0.00000000000E+00 0.  1.
         21   -1    0    0  502  503 -0.00000000000E+00 -0.00000000000E+00 -0.11475831519E+04  0.11475831519E+04  0.00000000000E+00 0. -1.
         -6    2    1    2    0  503  0.13081650853E+02 -0.19987715295E+03 -0.94055915348E+03  0.97695250641E+03  0.17222854792E+03 0.  0.
        -24    2    3    3    0    0  0.49160992574E+02 -0.51685932549E+02 -0.47432486320E+03  0.48638257242E+03  0.80595856508E+02 0.  0.
          6    2    1    2  501    0 -0.13081650853E+02  0.19987715295E+03 -0.95454011464E+02  0.28220063245E+03  0.17436663325E+03 0.  0.
         24    2    5    5    0    0 -0.28289209232E+02  0.80283149976E+02  0.19358385845E+02  0.11565342606E+03  0.75863722084E+02 0.  0.
          5    1    5    5  501    0  0.15207558379E+02  0.11959400297E+03 -0.11481239731E+03  0.16654720639E+03  0.47000000000E+01 0. -1.
        -13    1    6    6    0    0 -0.62334500507E+01  0.82622695807E+02  0.33473334353E+02  0.89363470583E+02  0.00000000000E+00 0.  1.
         14    1    6    6    0    0 -0.22055759181E+02 -0.23395458303E+01 -0.14114948508E+02  0.26289955480E+02  0.00000000000E+00 0. -1.
         -5    1    3    3    0  503 -0.36079341721E+02 -0.14819122040E+03 -0.46623429028E+03  0.49056993399E+03  0.47000000000E+01 0.  1.
         11    1    4    4    0    0  0.25422763482E+02 -0.42813508880E+02 -0.44434783517E+03  0.44712896581E+03  0.00000000000E+00 0. -1.
        -12    1    4    4    0    0  0.23738229091E+02 -0.88724236689E+01 -0.29977028033E+02  0.39253606609E+02  0.00000000000E+00 0.  1.
</event>
<event>
12    1  0.8113184E-002  0.3685131E+03  0.7818608E-02  0.1056204E+00
         21   -1    0    0  501  502  0.00000000000E+00  0.00000000000E+00  0.16279280941E+03  0.16279280941E+03  0.00000000000E+00 0. -1.
         21   -1    0    0  502  503 -0.00000000000E+00 -0.00000000000E+00 -0.12845507754E+04  0.12845507754E+04  0.00000000000E+00 0.  1.
         -6    2    1    2    0  503 -0.28217530585E+03  0.14161541872E+03 -0.99484633936E+03  0.10575892143E+04  0.17058099908E+03 0.  0.
        -24    2    3    3    0    0 -0.16321473393E+03  0.15475845617E+03 -0.63259942922E+03  0.67605380179E+03  0.79230524031E+02 0.  0.
          6    2    1    2  501    0  0.28217530585E+03 -0.14161541872E+03 -0.12691162662E+03  0.38975437049E+03  0.19006335337E+03 0.  0.
         24    2    5    5    0    0  0.11516620616E+03  0.11005456547E+02 -0.54196340248E+02  0.15206807762E+03  0.82480796667E+02 0.  0.
          5    1    5    5  501    0  0.16700909969E+03 -0.15262087527E+03 -0.72715286375E+02  0.23768629287E+03  0.47000000000E+01 0. -1.
        -13    1    6    6    0    0  0.11976755726E+01  0.79885704330E+01  0.16182311913E+02  0.18086428702E+02  0.00000000000E+00 0.  1.
         14    1    6    6    0    0  0.11396853059E+03  0.30168861143E+01 -0.70378652161E+02  0.13398164891E+03  0.00000000000E+00 0. -1.
         -5    1    3    3    0  503 -0.11896057191E+03 -0.13143037447E+02 -0.36224691014E+03  0.38153541252E+03  0.47000000000E+01 0.  1.
         13    1    4    4    0    0 -0.55551857286E+02  0.17859243241E+02 -0.10091520244E+03  0.11657117783E+03  0.00000000000E+00 0. -1.
        -14    1    4    4    0    0 -0.10766287665E+03  0.13689921293E+03 -0.53168422678E+03  0.55948262396E+03  0.00000000000E+00 0.  1.
</event>
<event>
12    1  0.8113184E-002  0.1973269E+03  0.7818608E-02  0.1152116E+00
         21   -1    0    0  503  502  0.00000000000E+00  0.00000000000E+00  0.21323509244E+03  0.21323509244E+03  0.00000000000E+00 0. -1.
         21   -1    0    0  501  503 -0.00000000000E+00 -0.00000000000E+00 -0.25270862462E+03  0.25270862462E+03  0.00000000000E+00 0. -1.
          6    2    1    2  501    0 -0.69880443908E+02  0.64002300134E+02 -0.14280713761E+03  0.24319784255E+03  0.17254489620E+03 0.  0.
         24    2    3    3    0    0 -0.10121879722E+03  0.18631519248E+02 -0.60336654645E+02  0.14387981444E+03  0.80427051987E+02 0.  0.
         -6    2    1    2    0  502  0.69880443908E+02 -0.64002300134E+02  0.10333360543E+03  0.22274587451E+03  0.17308471838E+03 0.  0.
        -24    2    5    5    0    0  0.24180768612E+02 -0.65733266451E+02 -0.14162615768E+01  0.10835146379E+03  0.82658708069E+02 0.  0.
          5    1    3    3  501    0  0.31338353309E+02  0.45370780887E+02 -0.82470482967E+02  0.99318028107E+02  0.47000000000E+01 0. -1.
        -13    1    4    4    0    0 -0.19828049845E+02 -0.25761968148E+02  0.13255087776E+01  0.32535942234E+02  0.00000000000E+00 0.  1.
         14    1    4    4    0    0 -0.81390747371E+02  0.44393487396E+02 -0.61662163422E+02  0.11134387221E+03  0.00000000000E+00 0. -1.
         -5    1    5    5    0  502  0.45699675295E+02  0.17309663172E+01  0.10474986700E+03  0.11439441072E+03  0.47000000000E+01 0.  1.
         13    1    6    6    0    0  0.31351593119E+02  0.48624029974E+01 -0.16569415655E+02  0.35792609420E+02  0.00000000000E+00 0. -1.
        -14    1    6    6    0    0 -0.71708245064E+01 -0.70595669449E+02  0.15153154078E+02  0.72558854370E+02  0.00000000000E+00 0.  1.
</event>
<event>
12    1  0.8113184E-002  0.2194388E+03  0.7818608E-02  0.1134361E+00
         21   -1    0    0  503  502  0.00000000000E+00  0.00000000000E+00  0.14827079518E+04  0.14827079518E+04  0.00000000000E+00 0. -1.
         21   -1    0    0  501  503 -0.00000000000E+00 -0.00000000000E+00 -0.69453321170E+02  0.69453321170E+02  0.00000000000E+00 0. -1.
          6    2    1    2  501    0  0.13709845141E+03 -0.41706452162E+01  0.14023725289E+03  0.26042249165E+03  0.17128925068E+03 0.  0.
         24    2    3    3    0    0  0.45568409561E+02 -0.40664242568E+00 -0.31859281487E+00  0.92583425759E+02  0.80591214881E+02 0.  0.
         -6    2    1    2    0  502 -0.13709845141E+03  0.41706452162E+01  0.12730173777E+04  0.12917387813E+04  0.17088725956E+03 0.  0.
        -24    2    5    5    0    0 -0.86620429654E+02  0.10636956908E+02  0.11744565952E+04  0.11807155328E+04  0.84407532790E+02 0.  0.
          5    1    3    3  501    0  0.91530041845E+02 -0.37640027905E+01  0.14055584570E+03  0.16783906589E+03  0.47000000000E+01 0. -1.
        -13    1    4    4    0    0 -0.51992750262E+01  0.10590922547E+02 -0.30363436590E+02  0.32575119075E+02  0.00000000000E+00 0.  1.
         14    1    4    4    0    0  0.50767684587E+02 -0.10997564973E+02  0.30044843775E+02  0.60008306685E+02  0.00000000000E+00 0. -1.
         -5    1    5    5    0  502 -0.50478021752E+02 -0.64663116922E+01  0.98560782522E+02  0.11102324855E+03  0.47000000000E+01 0.  1.
         11    1    6    6    0    0  0.10720212833E+01  0.12065082818E+02  0.54965089331E+03  0.54978433951E+03  0.00000000000E+00 0. -1.
        -12    1    6    6    0    0 -0.87692450938E+02 -0.14281259100E+01  0.62480570192E+03  0.63093119327E+03  0.00000000000E+00 0.  1.
</event>
<event>
12    1  0.8113184E-002  0.1921058E+03  0.7818608E-02  0.1157042E+00
         21   -1    0    0  501  502  0.00000000000E+00  0.00000000000E+00  0.10753550922E+03  0.10753550922E+03  0.00000000000E+00 0.  1.
         21   -1    0    0  502  503 -0.00000000000E+00 -0.00000000000E+00 -0.37042602315E+03  0.37042602315E+03  0.00000000000E+00 0.  1.
         -6    2    1    2    0  503  0.79310864115E+02 -0.67857176503E+01 -0.19987442050E+03  0.27578420492E+03  0.17254241386E+03 0.  0.
        -24    2    3    3    0    0 -0.84854242924E+01  0.13845132354E+02 -0.40474330782E+02  0.92578585922E+02  0.81663535337E+02 0.  0.
          6    2    1    2  501    0 -0.79310864115E+02  0.67857176503E+01 -0.63016093423E+02  0.20217732745E+03  0.17483816681E+03 0.  0.
         24    2    5    5    0    0 -0.11100208259E+03  0.42103540728E+02 -0.35612990836E+02  0.14718003673E+03  0.79369437536E+02 0.  0.
          5    1    5    5  501    0  0.31691218474E+02 -0.35317823078E+02 -0.27403102587E+02  0.54997290722E+02  0.47000000000E+01 0. -1.
        -11    1    6    6    0    0 -0.61149168691E+02 -0.60510155338E+01  0.12628811197E+02  0.62732148798E+02  0.00000000000E+00 0.  1.
         12    1    6    6    0    0 -0.49852913899E+02  0.48154556262E+02 -0.48241802033E+02  0.84447887933E+02  0.00000000000E+00 0. -1.
         -5    1    3    3    0  503  0.87796288408E+02 -0.20630850005E+02 -0.15940008972E+03  0.18320561900E+03  0.47000000000E+01 0.  1.
         11    1    4    4    0    0  0.15957301088E+02  0.26678160794E+02  0.11970499162E+02  0.33311448056E+02  0.00000000000E+00 0. -1.
        -12    1    4    4    0    0 -0.24442725381E+02 -0.12833028439E+02 -0.52444829945E+02  0.59267137867E+02  0.00000000000E+00 0.  1.
</event>
<event>
12    1  0.8113184E-002  0.1880117E+03  0.7818608E-02  0.1161002E+00
         21   -1    0    0  503  502  0.00000000000E+00  0.00000000000E+00  0.64594916708E+02  0.64594916708E+02  0.00000000000E+00 0. -1.
         21   -1    0    0  501  503 -0.00000000000E+00 -0.00000000000E+00 -0.58323071589E+03  0.58323071589E+03  0.00000000000E+00 0. -1.
          6    2    1    2  501    0 -0.53527423915E+02  0.37632617280E+02 -0.35156699496E+03  0.39868252924E+03  0.17625835635E+03 0.  0.
         24    2    3    3    0    0  0.22416541955E+02 -0.60943280522E+01 -0.25349353092E+03  0.26707695927E+03  0.80817632750E+02 0.  0.
         -6    2    1    2    0  502  0.53527423915E+02 -0.37632617280E+02 -0.16706880422E+03  0.24914310335E+03  0.17285514633E+03 0.  0.
        -24    2    5    5    0    0  0.99136722055E+02 -0.22877121194E+02 -0.15252809005E+03  0.19882953550E+03  0.76921476838E+02 0.  0.
          5    1    3    3  501    0 -0.75943965869E+02  0.43726945333E+02 -0.98073464039E+02  0.13160556998E+03  0.47000000000E+01 0. -1.
        -11    1    4    4    0    0  0.11065664629E+01 -0.36865279849E+02 -0.18851616736E+03  0.19209013172E+03  0.00000000000E+00 0.  1.
         12    1    4    4    0    0  0.21309975492E+02  0.30770951797E+02 -0.64977363564E+02  0.74986827548E+02  0.00000000000E+00 0. -1.
         -5    1    5    5    0  502 -0.45609298141E+02 -0.14755496086E+02 -0.14540714167E+02  0.50313567853E+02  0.47000000000E+01 0.  1.
         13    1    6    6    0    0  0.81230837700E+02 -0.34764422048E+02 -0.15371954490E+03  0.17730401156E+03  0.00000000000E+00 0. -1.
        -14    1    6    6    0    0  0.17905884355E+02  0.11887300854E+02  0.11914548445E+01  0.21525523937E+02  0.00000000000E+00 0.  1.
</event>
<event>
12    1  0.8113184E-002  0.1756068E+03  0.7818608E-02  0.1172700E+00
         21   -1    0    0  501  502  0.00000000000E+00  0.00000000000E+00  0.10983503835E+03  0.10983503835E+03  0.00000000000E+00 0.  1.
         21   -1    0    0  502  503 -0.00000000000E+00 -0.00000000000E+00 -0.57257863387E+03  0.57257863387E+03  0.00000000000E+00 0. -1.
         -6    2    1    2    0  503 -0.18937043357E+02 -0.14268695152E+02 -0.47573907812E+03  0.50632663208E+03  0.17168803287E+03 0.  0.
        -24    2    3    3    0    0  0.27404579307E+02  0.46467305466E+02 -0.24828151026E+03  0.26633612615E+03  0.79881176183E+02 0.  0.
          6    2    1    2  501    0  0.18937043357E+02  0.14268695152E+02  0.12995482603E+02  0.17608704015E+03  0.17399872375E+03 0.  0.
         24    2    5    5    0    0  0.41440501918E+02 -0.53183678418E+02  0.22645639224E+02  0.10417428835E+03  0.76115954496E+02 0.  0.
          5    1    5    5  501    0 -0.22503458561E+02  0.67452373571E+02 -0.96501566209E+01  0.71912751793E+02  0.47000000000E+01 0. -1.
        -11    1    6    6    0    0  0.29248052266E+02 -0.89017900926E+01 -0.23882624273E+02  0.38795233862E+02  0.00000000000E+00 0.  1.
         12    1    6    6    0    0  0.12192449653E+02 -0.44281888326E+02  0.46528263497E+02  0.65379054492E+02  0.00000000000E+00 0. -1.
         -5    1    3    3    0  503 -0.46341622664E+02 -0.60736000618E+02 -0.22745756786E+03  0.23999050593E+03  0.47000000000E+01 0.  1.
         13    1    4    4    0    0  0.43373471721E+02 -0.35575735461E+01 -0.10115369236E+03  0.11011804510E+03  0.00000000000E+00 0. -1.
        -14    1    4    4    0    0 -0.15968892414E+02  0.50024879012E+02 -0.14712781790E+03  0.15621808105E+03  0.00000000000E+00 0.  1.
</event>
<event>
12    1  0.8113184E-002  0.2405412E+03  0.7818608E-02  0.1119722E+00
         21   -1    0    0  503  502  0.00000000000E+00  0.00000000000E+00  0.52324383208E+03  0.52324383208E+03  0.00000000000E+00 0.  1.
         21   -1    0    0  501  503 -0.00000000000E+00 -0.00000000000E+00 -0.11081718765E+03  0.11081718765E+03  0.00000000000E+00 0. -1.
          6    2    1    2  501    0 -0.76523053779E+02 -0.15081598687E+03  0.17485205070E+03  0.29597556974E+03  0.16860325795E+03 0.  0.
         24    2    3    3    0    0 -0.58483216164E+02 -0.16244349378E+03  0.95130273467E+02  0.21328163754E+03  0.81431644572E+02 0.  0.
         -6    2    1    2    0  502  0.76523053779E+02  0.15081598687E+03  0.23757459373E+03  0.33808544999E+03  0.17105216822E+03 0.  0.
        -24    2    5    5    0    0  0.38928327778E+02  0.17292634987E+03  0.21076292005E+03  0.28667351149E+03  0.79635146395E+02 0.  0.
          5    1    3    3  501    0 -0.18039837616E+02  0.11627506903E+02  0.79721777231E+02  0.82693932201E+02  0.47000000000E+01 0. -1.
        -11    1    4    4    0    0 -0.55591753849E+02 -0.65273338860E+02  0.75204866510E+02  0.11404746296E+03  0.00000000000E+00 0.  1.
         12    1    4    4    0    0 -0.28914623147E+01 -0.97170154916E+02  0.19925406957E+02  0.99234174573E+02  0.00000000000E+00 0. -1.
         -5    1    5    5    0  502  0.37594726001E+02 -0.22110362994E+02  0.26811673681E+02  0.51411938501E+02  0.47000000000E+01 0.  1.
         11    1    6    6    0    0  0.67973633392E+01  0.73071636002E+00 -0.52091638470E+01  0.85949684554E+01  0.00000000000E+00 0. -1.
        -12    1    6    6    0    0  0.32130964439E+02  0.17219563351E+03  0.21597208390E+03  0.27807854304E+03  0.00000000000E+00 0.  1.
</event>
<event>
12    1  0.8113184E-002  0.2484966E+03  0.7818608E-02  0.1114311E+00
         21   -1    0    0  501  502  0.00000000000E+00  0.00000000000E+00  0.27573378634E+03  0.27573378634E+03  0.00000000000E+00 0.  1.
         21   -1    0    0  502  503 -0.00000000000E+00 -0.00000000000E+00 -0.48345628001E+03  0.48345628001E+03  0.00000000000E+00 0.  1.
         -6    2    1    2    0  503  0.14037196509E+03  0.11253175292E+03 -0.38209802609E+03  0.45561574446E+03  0.17093601452E+03 0.  0.
        -24    2    3    3    0    0  0.15554129242E+03  0.13495471827E+03 -0.33940471985E+03  0.40484462803E+03  0.79358297326E+02 0.  0.
          6    2    1    2  501    0 -0.14037196509E+03 -0.11253175292E+03  0.17437553242E+03  0.30357432189E+03  0.17141428938E+03 0.  0.
         24    2    5    5    0    0 -0.14205168845E+03 -0.12997000725E+03  0.18821791428E+03  0.28075731682E+03  0.79547487169E+02 0.  0.
          5    1    5    5  501    0  0.16797233544E+01  0.17438254332E+02 -0.13842381864E+02  0.22817005070E+02  0.47000000000E+01 0. -1.
        -13    1    6    6    0    0 -0.41139952049E+02 -0.11832950571E+02  0.82152278650E+02  0.92636446722E+02  0.00000000000E+00 0.  1.
         14    1    6    6    0    0 -0.10091173640E+03 -0.11813705668E+03  0.10606563563E+03  0.18812087010E+03  0.00000000000E+00 0. -1.
         -5    1    3    3    0  503 -0.15169327324E+02 -0.22422965350E+02 -0.42693306236E+02  0.50771116434E+02  0.47000000000E+01 0.  1.
         11    1    4    4    0    0  0.18903327835E+02  0.39448451302E+02 -0.28931378044E+02  0.52445597994E+02  0.00000000000E+00 0. -1.
        -12    1    4    4    0    0  0.13663796458E+03  0.95506266968E+02 -0.31047334181E+03  0.35239903003E+03  0.00000000000E+00 0.  1.
</event>
<event>
12    1  0.8113184E-002  0.2081235E+03  0.7818608E-02  0.1143481E+00
         21   -1    0    0  501  502  0.00000000000E+00  0.00000000000E+00  0.32980981277E+03  0.32980981277E+03  0.00000000000E+00 0.  1.
         21   -1    0    0  502  503 -0.00000000000E+00 -0.00000000000E+00 -0.17974478716E+03  0.17974478716E+03  0.00000000000E+00 0.  1.
         -6    2    1    2    0  503  0.78523773015E+01  0.11549669481E+03 -0.59241217315E+02  0.21438602425E+03  0.17044265670E+03 0.  0.
        -24    2    3    3    0    0  0.63189458358E+02  0.10124394749E+03 -0.23380822134E+02  0.14675917094E+03  0.82148322324E+02 0.  0.
          6    2    1    2  501    0 -0.78523773015E+01 -0.11549669481E+03  0.20930624292E+03  0.29516857567E+03  0.17295733114E+03 0.  0.
         24    2    5    5    0    0  0.53241952439E+02 -0.10752360257E+03  0.12733894550E+03  0.19251958555E+03  0.80327785789E+02 0.  0.
          5    1    5    5  501    0 -0.61094329741E+02 -0.79730922400E+01  0.81967297422E+02  0.10264899012E+03  0.47000000000E+01 0. -1.
        -13    1    6    6    0    0 -0.30023099651E+01 -0.46158703526E+02  0.78854585528E+01  0.46923557335E+02  0.00000000000E+00 0.  1.
         14    1    6    6    0    0  0.56244262404E+02 -0.61364899046E+02  0.11945348695E+03  0.14559602822E+03  0.00000000000E+00 0. -1.
         -5    1    3    3    0  503 -0.55337081056E+02  0.14252747327E+02 -0.35860395180E+02  0.67626853311E+02  0.47000000000E+01 0.  1.
         11    1    4    4    0    0  0.20410011391E+02  0.19936057255E+02  0.29263541375E+02  0.40870157788E+02  0.00000000000E+00 0. -1.
        -12    1    4    4    0    0  0.42779446967E+02  0.81307890230E+02 -0.52644363509E+02  0.10588901315E+03  0.00000000000E+00 0.  1.
</event>
<event>
12    1  0.8113184E-002  0.1964517E+03  0.7818608E-02  0.1152972E+00
         21   -1    0    0  503  502  0.00000000000E+00  0.00000000000E+00  0.30744808932E+03  0.30744808932E+03  0.00000000000E+00 0.  1.
         21   -1    0    0  501  503 -0.00000000000E+00 -0.00000000000E+00 -0.27994080025E+03  0.27994080025E+03  0.00000000000E+00 0. -1.
          6    2    1    2  501    0  0.91410442442E+02 -0.23815585215E+02 -0.20481103892E+03  0.28314381277E+03  0.17117186088E+03 0.  0.
         24    2    3    3    0    0  0.24893878410E+02 -0.51216591666E+02 -0.44796059132E+02  0.10763839347E+03  0.79602087856E+02 0.  0.
         -6    2    1    2    0  502 -0.91410442442E+02  0.23815585215E+02  0.23231832800E+03  0.30424507680E+03  0.17225042859E+03 0.  0.
        -24    2    5    5    0    0 -0.12470814227E+03  0.32743924775E+02  0.21802252823E+03  0.26662976140E+03  0.83266568878E+02 0.  0.
          5    1    3    3  501    0  0.66516564033E+02  0.27401006452E+02 -0.16001497979E+03  0.17550541930E+03  0.47000000000E+01 0. -1.
        -13    1    4    4    0    0 -0.21042004916E+02  0.96323466232E+00 -0.29845866060E+02  0.36530391632E+02  0.00000000000E+00 0.  1.
         14    1    4    4    0    0  0.45935883326E+02 -0.52179826329E+02 -0.14950193072E+02  0.71108001839E+02  0.00000000000E+00 0. -1.
         -5    1    5    5    0  502  0.33297699833E+02 -0.89283395599E+01  0.14295799771E+02  0.37615315399E+02  0.47000000000E+01 0.  1.
         13    1    6    6    0    0 -0.12626173408E+03  0.29699348005E+02  0.14910230342E+03  0.19762483055E+03  0.00000000000E+00 0. -1.
        -14    1    6    6    0    0  0.15535918023E+01  0.30445767693E+01  0.68920224801E+02  0.69004930851E+02  0.00000000000E+00 0.  1.
</event>
<event>
12    1  0.8113184E-002  0.1862589E+03  0.7818608E-02  0.1162064E+00
         21   -1    0    0  503  502  0.00000000000E+00  0.00000000000E+00  0.83130332528E+02  0.83130332528E+02  0.00000000000E+00 0.  1.
         21   -1    0    0  501  503 -0.00000000000E+00 -0.00000000000E+00 -0.42169038556E+03  0.42169038556E+03  0.00000000000E+00 0.  1.
          6    2    1    2  501    0 -0.10789329497E+02 -0.69096561767E+02 -0.13915733404E+03  0.23250191679E+03  0.17263149543E+03 0.  0.
         24    2    3    3    0    0 -0.33705469118E+01 -0.81229182228E+02 -0.16587766823E+03  0.20187015103E+03  0.81404032006E+02 0.  0.
         -6    2    1    2    0  502  0.10789329497E+02  0.69096561767E+02 -0.19940271899E+03  0.27231880130E+03  0.17177118711E+03 0.  0.
        -24    2    5    5    0    0  0.16126726966E+02  0.73592960992E+01 -0.19361308532E+03  0.20990415845E+03  0.79116991647E+02 0.  0.
          5    1    3    3  501    0 -0.74187825850E+01  0.12132620461E+02  0.26720334190E+02  0.30631765759E+02  0.47000000000E+01 0. -1.
        -11    1    4    4    0    0  0.33592188473E+01 -0.35367277255E+02 -0.14797514886E+03  0.15218006877E+03  0.00000000000E+00 0.  1.
         12    1    4    4    0    0 -0.67297657591E+01 -0.45861904973E+02 -0.17902519374E+02  0.49690082259E+02  0.00000000000E+00 0. -1.
         -5    1    5    5    0  502 -0.53373974693E+01  0.61737265668E+02 -0.57896336747E+01  0.62414642849E+02  0.47000000000E+01 0.  1.
         13    1    6    6    0    0  0.41892364659E+02  0.25974618413E+02 -0.11797717750E+03  0.12786033563E+03  0.00000000000E+00 0. -1.
        -14    1    6    6    0    0 -0.25765637693E+02 -0.18615322314E+02 -0.75635907819E+02  0.82043822815E+02  0.00000000000E+00 0.  1.
</event>
<event>
12    1  0.8113184E-002  0.1728895E+03  0.7818608E-02  0.1178333E+00
         21   -1    0    0  503  502  0.00000000000E+00  0.00000000000E+00  0.27295213666E+03  0.27295213666E+03  0.00000000000E+00 0. -1.
         21   -1    0    0  501  503 -0.00000000000E+00 -0.00000000000E+00 -0.52931474055E+03  0.52931474055E+03  0.00000000000E+00 0. -1.
          6    2    1    2  501    0  0.10665782696E+02  0.48579952769E+01 -0.48975534336E+03  0.51937564304E+03  0.17249174821E+03 0.  0.
         24    2    3    3    0    0  0.22522002169E+01 -0.49520053911E+00 -0.49875502629E+03  0.50514436171E+03  0.80055807350E+02 0.  0.
         -6    2    1    2    0  502 -0.10665782696E+02 -0.48579952769E+01  0.23339273947E+03  0.28289123418E+03  0.15942998619E+03 0.  0.
        -24    2    5    5    0    0 -0.17068165369E+02  0.35836419659E+02  0.22302406918E+03  0.24015219775E+03  0.79735634499E+02 0.  0.
          5    1    3    3  501    0  0.84135824789E+01  0.53531958160E+01  0.89996829292E+01  0.14231281334E+02  0.47000000000E+01 0. -1.
        -13    1    4    4    0    0 -0.38428168051E+02  0.27400170984E+01 -0.20776275645E+03  0.21130450719E+03  0.00000000000E+00 0.  1.
         14    1    4    4    0    0  0.40680368268E+02 -0.32352176375E+01 -0.29099226984E+03  0.29383985452E+03  0.00000000000E+00 0. -1.
         -5    1    5    5    0  502  0.64023826734E+01 -0.40694414936E+02  0.10368670291E+02  0.42739036424E+02  0.47000000000E+01 0.  1.
         11    1    6    6    0    0  0.12683219829E+02  0.40353759881E+01  0.17428332957E+03  0.17479081009E+03  0.00000000000E+00 0. -1.
        -12    1    6    6    0    0 -0.29751385199E+02  0.31801043671E+02  0.48740739603E+02  0.65361387660E+02  0.00000000000E+00 0.  1.
</event>
<event>
12    1  0.8113184E-002  0.2023629E+03  0.7818608E-02  0.1148770E+00
         21   -1    0    0  501  502  0.00000000000E+00  0.00000000000E+00  0.13584602202E+04  0.13584602202E+04  0.00000000000E+00 0.  1.
         21   -1    0    0  502  503 -0.00000000000E+00 -0.00000000000E+00 -0.32282401467E+02  0.32282401467E+02  0.00000000000E+00 0.  1.
         -6    2    1    2    0  503 -0.20824970828E+01  0.10654645994E+03  0.46382059796E+03  0.50604377833E+03  0.17202986246E+03 0.  0.
        -24    2    3    3    0    0 -0.36454873150E+01  0.28470163154E+02  0.91072486730E+02  0.12517425279E+03  0.80935504914E+02 0.  0.
          6    2    1    2  501    0  0.20824970828E+01 -0.10654645994E+03  0.86235722082E+03  0.88469884338E+03  0.16635979760E+03 0.  0.
         24    2    5    5    0    0  0.26909124524E+02 -0.13548060935E+02  0.23752758375E+03  0.25248113641E+03  0.80123156842E+02 0.  0.
          5    1    5    5  501    0 -0.24826627441E+02 -0.92998399007E+02  0.62482963707E+03  0.63221770697E+03  0.47000000000E+01 0. -1.
        -13    1    6    6    0    0  0.52517721149E+02 -0.63201788782E+01  0.10811877397E+03  0.12036496575E+03  0.00000000000E+00 0.  1.
         14    1    6    6    0    0 -0.25608596625E+02 -0.72278820565E+01  0.12940880978E+03  0.13211617066E+03  0.00000000000E+00 0. -1.
         -5    1    3    3    0  503  0.15629902322E+01  0.78076296788E+02  0.37274811123E+03  0.38086952554E+03  0.47000000000E+01 0.  1.
         11    1    4    4    0    0 -0.36591557108E+02  0.47039484295E+01  0.16842679977E+02  0.40555456492E+02  0.00000000000E+00 0. -1.
        -12    1    4    4    0    0  0.32946069793E+02  0.23766214724E+02  0.74229806753E+02  0.84618796303E+02  0.00000000000E+00 0.  1.
</event>
<event>
12    1  0.8113184E-002  0.1923554E+03  0.7818608E-02  0.1156993E+00
         21   -1    0    0  503  502  0.00000000000E+00  0.00000000000E+00  0.89679071667E+03  0.89679071667E+03  0.00000000000E+00 0. -1.
         21   -1    0    0  501  503 -0.00000000000E+00 -0.00000000000E+00 -0.71898541096E+02  0.71898541096E+02  0.00000000000E+00 0. -1.
          6    2    1    2  501    0 -0.78891097217E+02  0.25798848539E+02  0.91389938898E+02  0.21038447432E+03  0.17035292864E+03 0.  0.
         24    2    3    3    0    0 -0.10243828422E+03  0.40774411728E+02  0.11038867980E+03  0.17629958523E+03  0.82095848842E+02 0.  0.
         -6    2    1    2    0  502  0.78891097217E+02 -0.25798848539E+02  0.73350223668E+03  0.75830478345E+03  0.17352587007E+03 0.  0.
        -24    2    5    5    0    0  0.16268723409E+02 -0.13029816660E+02  0.63681025502E+03  0.64230461451E+03  0.81200181278E+02 0.  0.
          5    1    3    3  501    0  0.23547187006E+02 -0.14975563189E+02 -0.18998740901E+02  0.34084889094E+02  0.47000000000E+01 0. -1.
        -11    1    4    4    0    0 -0.86161650004E+02  0.59837866951E+02  0.10887190534E+03  0.15118694396E+03  0.00000000000E+00 0.  1.
         12    1    4    4    0    0 -0.16276634219E+02 -0.19063455224E+02  0.15167744625E+01  0.25112641266E+02  0.00000000000E+00 0. -1.
         -5    1    5    5    0  502  0.62622373808E+02 -0.12769031879E+02  0.96691981659E+02  0.11600016894E+03  0.47000000000E+01 0.  1.
         11    1    6    6    0    0  0.44792099912E+02 -0.25211349049E+02  0.45155348782E+03  0.45446946729E+03  0.00000000000E+00 0. -1.
        -12    1    6    6    0    0 -0.28523376503E+02  0.12181532389E+02  0.18525676720E+03  0.18783514723E+03  0.00000000000E+00 0.  1.
</event>
<event>
12    1  0.8113184E-002  0.2123275E+03  0.7818608E-02  0.1139966E+00
         21   -1    0    0  503  502  0.00000000000E+00  0.00000000000E+00  0.12087192908E+03  0.12087192908E+03  0.00000000000E+00 0. -1.
         21   -1    0    0  501  503 -0.00000000000E+00 -0.00000000000E+00 -0.37111302401E+03  0.37111302401E+03  0.00000000000E+00 0. -1.
          6    2    1    2  501    0 -0.97656342762E+02  0.74397000456E+02 -0.13101963347E+03  0.24949769506E+03  0.17323764178E+03 0.  0.
         24    2    3    3    0    0 -0.57870125807E+02 -0.13799725446E+01 -0.15434198592E+02  0.10559781510E+03  0.86958773469E+02 0.  0.
         -6    2    1    2    0  502  0.97656342762E+02 -0.74397000456E+02 -0.11922146146E+03  0.24248725803E+03  0.17179824933E+03 0.  0.
        -24    2    5    5    0    0  0.12505171554E+03 -0.83396153441E+02 -0.12635510002E+03  0.21241285025E+03  0.80998504191E+02 0.  0.
          5    1    3    3  501    0 -0.39786216955E+02  0.75776973000E+02 -0.11558543488E+03  0.14389987996E+03  0.47000000000E+01 0. -1.
        -13    1    4    4    0    0  0.23186478911E+02 -0.24783899542E+01 -0.17202314972E+01  0.23381925017E+02  0.00000000000E+00 0.  1.
         14    1    4    4    0    0 -0.81056604718E+02  0.10984174096E+01 -0.13713967095E+02  0.82215890087E+02  0.00000000000E+00 0. -1.
         -5    1    5    5    0  502 -0.27395372780E+02  0.89991529858E+01  0.71336385541E+01  0.30074407779E+02  0.47000000000E+01 0.  1.
         11    1    6    6    0    0  0.10078982108E+03 -0.84858565519E+02 -0.66030532827E+02  0.14737569488E+03  0.00000000000E+00 0. -1.
        -12    1    6    6    0    0  0.24261894464E+02  0.14624120775E+01 -0.60324567191E+02  0.65037155371E+02  0.00000000000E+00 0.  1.
</event>
<event>
12    1  0.8113184E-002  0.2632176E+03  0.7818608E-02  0.1105472E+00
         21   -1    0    0  503  502  0.00000000000E+00  0.00000000000E+00  0.14540344678E+03  0.14540344678E+03  0.00000000000E+00 0. -1.
         21   -1    0    0  501  503 -0.00000000000E+00 -0.00000000000E+00 -0.49781925491E+03  0.49781925491E+03  0.00000000000E+00 0.  1.
          6    2    1    2  501    0  0.19461261427E+03 -0.39808576783E+02 -0.24678104684E+03  0.35959936817E+03  0.17015295498E+03 0.  0.
         24    2    3    3    0    0  0.13977833521E+03  0.22528040651E+02 -0.21516125861E+03  0.27063559441E+03  0.83088881013E+02 0.  0.
         -6    2    1    2    0  502 -0.19461261427E+03  0.39808576783E+02 -0.10563476129E+03  0.28362333352E+03  0.17269829213E+03 0.  0.
        -24    2    5    5    0    0 -0.12880575956E+03  0.37681506443E+01 -0.86823946855E+01  0.16093956999E+03  0.96026238894E+02 0.  0.
          5    1    3    3  501    0  0.54834279059E+02 -0.62336617434E+02 -0.31619788236E+02  0.88963773757E+02  0.47000000000E+01 0. -1.
        -11    1    4    4    0    0  0.13103656679E+03  0.89269117235E+01 -0.21771813796E+03  0.25426651212E+03  0.00000000000E+00 0.  1.
         12    1    4    4    0    0  0.87417684141E+01  0.13601128927E+02  0.25568793489E+01  0.16369082293E+02  0.00000000000E+00 0. -1.
         -5    1    5    5    0  502 -0.65806854704E+02  0.36040426139E+02 -0.96952366608E+02  0.12268376353E+03  0.47000000000E+01 0.  1.
         13    1    6    6    0    0 -0.20117860274E+02  0.37640210437E+02  0.13884326331E+02  0.44880822870E+02  0.00000000000E+00 0. -1.
        -14    1    6    6    0    0 -0.10868789929E+03 -0.33872059793E+02 -0.22566721017E+02  0.11605874712E+03  0.00000000000E+00 0.  1.
</event>
<event>
12    1  0.8113184E-002  0.2141224E+03  0.7818608E-02  0.1138599E+00
         21   -1    0    0  501  502  0.00000000000E+00  0.00000000000E+00  0.38020725620E+03  0.38020725620E+03  0.00000000000E+00 0. -1.
         21   -1    0    0  502  503 -0.00000000000E+00 -0.00000000000E+00 -0.22722903808E+03  0.22722903808E+03  0.00000000000E+00 0.  1.
         -6    2    1    2    0  503  0.67702537673E+01 -0.13008614094E+03 -0.13242812494E+03  0.25063777284E+03  0.16826718188E+03 0.  0.
        -24    2    3    3    0    0 -0.13428978409E+02 -0.14845673906E+03 -0.71918639951E+02  0.18408722341E+03  0.80598227120E+02 0.  0.
          6    2    1    2  501    0 -0.67702537673E+01  0.13008614094E+03  0.28540634306E+03  0.35679852144E+03  0.16994164836E+03 0.  0.
         24    2    5    5    0    0 -0.43202840792E+02  0.93869605010E+02  0.10766765925E+03  0.17172529109E+03  0.84966243616E+02 0.  0.
          5    1    5    5  501    0  0.36432587024E+02  0.36216535931E+02  0.17773868380E+03  0.18507323035E+03  0.47000000000E+01 0. -1.
        -11    1    6    6    0    0 -0.31847176306E+01 -0.16258335507E+02  0.14743039074E+02  0.22177310500E+02  0.00000000000E+00 0.  1.
         12    1    6    6    0    0 -0.40018123161E+02  0.11012794052E+03  0.92924620176E+02  0.14954798059E+03  0.00000000000E+00 0. -1.
         -5    1    3    3    0  503  0.20199232176E+02  0.18370598122E+02 -0.60509484988E+02  0.66550549430E+02  0.47000000000E+01 0.  1.
         11    1    4    4    0    0 -0.39598149166E+02 -0.69241248299E+02 -0.60005164052E+02  0.99814746387E+02  0.00000000000E+00 0. -1.
        -12    1    4    4    0    0  0.26169170757E+02 -0.79215490765E+02 -0.11913475899E+02  0.84272477021E+02  0.00000000000E+00 0.  1.
</event>
<event>
12    1  0.8113184E-002  0.2833794E+03  0.7818608E-02  0.1094014E+00
         21   -1    0    0  503  502  0.00000000000E+00  0.00000000000E+00  0.55850529364E+03  0.55850529364E+03  0.00000000000E+00 0.  1.
         21   -1    0    0  501  503 -0.00000000000E+00 -0.00000000000E+00 -0.38240219201E+03  0.38240219201E+03  0.00000000000E+00 0. -1.
          6    2    1    2  501    0  0.85976660541E+02  0.20806603982E+03 -0.28410424915E+03  0.40044965464E+03  0.17018001773E+03 0.  0.
         24    2    3    3    0    0  0.34715961014E+02  0.21953029422E+02 -0.11353074367E+03  0.14280043045E+03  0.76260079518E+02 0.  0.
         -6    2    1    2    0  502 -0.85976660541E+02 -0.20806603982E+03  0.46020735077E+03  0.54045783101E+03  0.17210577653E+03 0.  0.
        -24    2    5    5    0    0 -0.22376893402E+02 -0.16237060720E+03  0.21613921390E+03  0.28409022702E+03  0.84416573373E+02 0.  0.
          5    1    3    3  501    0  0.51260699527E+02  0.18611301039E+03 -0.17057350548E+03  0.25764922419E+03  0.47000000000E+01 0. -1.
        -11    1    4    4    0    0 -0.21836643745E+02  0.68376914306E+01 -0.57003815013E+02  0.61424978308E+02  0.00000000000E+00 0.  1.
         12    1    4    4    0    0  0.56552604759E+02  0.15115337991E+02 -0.56526928660E+02  0.81375452143E+02  0.00000000000E+00 0. -1.
         -5    1    5    5    0  502 -0.63599767139E+02 -0.45695432613E+02  0.24406813687E+03  0.25636760399E+03  0.47000000000E+01 0.  1.
         13    1    6    6    0    0 -0.20389369533E+02 -0.80932537428E+01  0.48554256992E+01  0.22467805964E+02  0.00000000000E+00 0. -1.
        -14    1    6    6    0    0 -0.19875238686E+01 -0.15427735346E+03  0.21128378820E+03  0.26162242105E+03  0.00000000000E+00 0.  1.
</event>
<event>
12    1  0.8113184E-002  0.1768662E+03  0.7818608E-02  0.1170951E+00
         21   -1    0    0  501  502  0.00000000000E+00  0.00000000000E+00  0.88169506388E+03  0.88169506388E+03  0.00000000000E+00 0.  1.
         21   -1    0    0  502  503 -0.00000000000E+00 -0.00000000000E+00 -0.36770733880E+02  0.36770733880E+02  0.00000000000E+00 0.  1.
         -6    2    1    2    0  503 -0.18884963007E+01  0.40819094348E+02  0.33461717111E+03  0.37848423557E+03  0.17208108697E+03 0.  0.
        -24    2    3    3    0    0  0.41068767891E+02  0.72803321497E+02  0.27573179381E+03  0.29874782611E+03  0.78963752271E+02 0.  0.
          6    2    1    2  501    0  0.18884963007E+01 -0.40819094348E+02  0.51030715889E+03  0.53998156219E+03  0.17174669199E+03 0.  0.
         24    2    5    5    0    0 -0.58423201121E+02 -0.31522270435E+02  0.22079734467E+03  0.24407286966E+03  0.80082297245E+02 0.  0.
          5    1    5    5  501    0  0.60311697421E+02 -0.92968239129E+01  0.28950981423E+03  0.29590869253E+03  0.47000000000E+01 0. -1.
        -13    1    6    6    0    0 -0.25467952935E+02 -0.55544979852E+02  0.10741470784E+03  0.12357904707E+03  0.00000000000E+00 0.  1.
         14    1    6    6    0    0 -0.32955248185E+02  0.24022709417E+02  0.11338263682E+03  0.12049382260E+03  0.00000000000E+00 0. -1.
         -5    1    3    3    0  503 -0.42957264192E+02 -0.31984227150E+02  0.58885377300E+02  0.79736409456E+02  0.47000000000E+01 0.  1.
         11    1    4    4    0    0  0.24270504595E+02 -0.89821792011E+01  0.32257599115E+02  0.41355648189E+02  0.00000000000E+00 0. -1.
        -12    1    4    4    0    0  0.16798263297E+02  0.81785500698E+02  0.24347419469E+03  0.25739217792E+03  0.00000000000E+00 0.  1.
</event>
<event>
12    1  0.8113184E-002  0.2062437E+03  0.7818608E-02  0.1145481E+00
         21   -1    0    0  503  502  0.00000000000E+00  0.00000000000E+00  0.56277997940E+02  0.56277997940E+02  0.00000000000E+00 0. -1.
         21   -1    0    0  501  503 -0.00000000000E+00 -0.00000000000E+00 -0.93601948316E+03  0.93601948316E+03  0.00000000000E+00 0. -1.
          6    2    1    2  501    0  0.61199182088E+02 -0.85434323671E+02 -0.66330292941E+03  0.69332906288E+03  0.17230800829E+03 0.  0.
         24    2    3    3    0    0  0.37769141894E+02 -0.11509316394E+03 -0.35807431515E+03  0.38573320701E+03  0.76811114758E+02 0.  0.
         -6    2    1    2    0  502 -0.61199182088E+02  0.85434323671E+02 -0.21643855581E+03  0.29896841822E+03  0.17746014511E+03 0.  0.
        -24    2    5    5    0    0 -0.19766765204E+02 -0.27029422585E+02 -0.91951933897E+02  0.12609925259E+03  0.79527031029E+02 0.  0.
          5    1    3    3  501    0  0.23430040194E+02  0.29658840269E+02 -0.30522861426E+03  0.30759585587E+03  0.47000000000E+01 0. -1.
        -13    1    4    4    0    0  0.23550495690E+02 -0.68899359760E+01 -0.24153078232E+02  0.34430629577E+02  0.00000000000E+00 0.  1.
         14    1    4    4    0    0  0.14218646204E+02 -0.10820322796E+03 -0.33392123692E+03  0.35130257743E+03  0.00000000000E+00 0. -1.
         -5    1    5    5    0  502 -0.41432416884E+02  0.11246374626E+03 -0.12448662192E+03  0.17286916563E+03  0.47000000000E+01 0.  1.
         13    1    6    6    0    0  0.95119251192E+01  0.90439790821E+01  0.83524268271E+01  0.15557419806E+02  0.00000000000E+00 0. -1.
        -14    1    6    6    0    0 -0.29278690323E+02 -0.36073401667E+02 -0.10030436072E+03  0.11054183278E+03  0.00000000000E+00 0.  1.
</event>
<event>
12    1  0.8113184E-002  0.1828866E+03  0.7818608E-02  0.1165513E+00
         21   -1    0    0  501  502  0.00000000000E+00  0.00000000000E+00  0.19502327138E+03  0.19502327138E+03  0.00000000000E+00 0.  1.
         21   -1    0    0  502  503 -0.00000000000E+00 -0.00000000000E+00 -0.18875618756E+03  0.18875618756E+03  0.00000000000E+00 0.  1.
         -6    2    1    2    0  503  0.74034744456E+00 -0.57513862218E+02  0.64207275544E+02  0.19383001833E+03  0.17360619031E+03 0.  0.
        -24    2    3    3    0    0 -0.29131375908E+02 -0.12433584305E+02  0.97556469369E+02  0.13012122741E+03  0.80068957937E+02 0.  0.
          6    2    1    2  501    0 -0.74034744456E+00  0.57513862218E+02 -0.57940191722E+02  0.18994944060E+03  0.17150898433E+03 0.  0.
         24    2    5    5    0    0  0.47750268975E+01 -0.37330129390E+02 -0.16835768178E+02  0.86327697066E+02  0.75846481450E+02 0.  0.
          5    1    5    5  501    0 -0.55153743420E+01  0.94843991608E+02 -0.41104423544E+02  0.10362174353E+03  0.47000000000E+01 0. -1.
        -11    1    6    6    0    0 -0.78849352161E+01 -0.40216400855E+01 -0.41859808883E+02  0.42785387599E+02  0.00000000000E+00 0.  1.
         12    1    6    6    0    0  0.12659962114E+02 -0.33308489305E+02  0.25024040705E+02  0.43542309466E+02  0.00000000000E+00 0. -1.
         -5    1    3    3    0  503  0.29871723352E+02 -0.45080277913E+02 -0.33349193825E+02  0.63708790928E+02  0.47000000000E+01 0.  1.
         13    1    4    4    0    0 -0.13311878449E+01 -0.14949151856E+02 -0.10630140083E+02  0.18391549159E+02  0.00000000000E+00 0. -1.
        -14    1    4    4    0    0 -0.27800188063E+02  0.25155675506E+01  0.10818660945E+03  0.11172967825E+03  0.00000000000E+00 0.  1.
</event>
<event>
12    1  0.8113184E-002  0.2634648E+03  0.7818608E-02  0.1105606E+00
         21   -1    0    0  501  502  0.00000000000E+00  0.00000000000E+00  0.10578504799E+04  0.10578504799E+04  0.00000000000E+00 0.  1.
         21   -1    0    0  502  503 -0.00000000000E+00 -0.00000000000E+00 -0.19520141955E+03  0.19520141955E+03  0.00000000000E+00 0.  1.
         -6    2    1    2    0  503  0.18092567815E+03  0.73772006284E+02 -0.81843286062E+02  0.27250128898E+03  0.17141242398E+03 0.  0.
        -24    2    3    3    0    0  0.83461530656E+02  0.29136896782E+02  0.24150217741E+02  0.12167600630E+03  0.80043935674E+02 0.  0.
          6    2    1    2  501    0 -0.18092567815E+03 -0.73772006284E+02  0.94449234646E+03  0.98055061051E+03  0.17674076307E+03 0.  0.
         24    2    5    5    0    0 -0.22301004712E+02 -0.93946483194E+01  0.43293106883E+03  0.44108489148E+03  0.80876306204E+02 0.  0.
          5    1    5    5  501    0 -0.15862467344E+03 -0.64377357965E+02  0.51156127763E+03  0.53946571903E+03  0.47000000000E+01 0. -1.
        -13    1    6    6    0    0 -0.35959457909E+02 -0.21219716235E+02  0.40886975077E+03  0.41099614605E+03  0.00000000000E+00 0.  1.
         14    1    6    6    0    0  0.13658453197E+02  0.11825067916E+02  0.24061318058E+02  0.30088745431E+02  0.00000000000E+00 0. -1.
         -5    1    3    3    0  503  0.97464147494E+02  0.44635109503E+02 -0.10599350380E+03  0.15082528268E+03  0.47000000000E+01 0.  1.
         13    1    4    4    0    0 -0.36439343452E+01  0.30366593965E+02 -0.22011239251E+01  0.30663548932E+02  0.00000000000E+00 0. -1.
        -14    1    4    4    0    0  0.87105465001E+02 -0.12296971837E+01  0.26351341666E+02  0.91012457366E+02  0.00000000000E+00 0.  1.
</event>
<event>
12    1  0.8113184E-002  0.2204119E+03  0.7818608E-02  0.1133645E+00
         21   -1    0    0  503  502  0.00000000000E+00  0.00000000000E+00  0.80879255218E+03  0.80879255218E+03  0.00000000000E+00 0. -1.
         21   -1    0    0  501  503 -0.00000000000E+00 -0.00000000000E+00 -0.10615535934E+03  0.10615535934E+03  0.00000000000E+00 0.  1.
          6    2    1    2  501    0 -0.53224873704E+02 -0.12733271667E+03  0.49722950577E+02  0.22595081880E+03  0.17185718718E+03 0.  0.
         24    2    3    3    0    0  0.14972362888E+02 -0.53526853307E+01  0.22716765423E+02  0.83537985245E+02  0.78801780798E+02 0.  0.
         -6    2    1    2    0  502  0.53224873704E+02  0.12733271667E+03  0.65291424226E+03  0.68899709273E+03  0.17138692518E+03 0.  0.
        -24    2    5    5    0    0  0.28189465599E+02  0.93977826070E+01  0.39729308699E+03  0.40633176880E+03  0.79879566051E+02 0.  0.
          5    1    3    3  501    0 -0.68197236592E+02 -0.12198003134E+03  0.27006185154E+02  0.14241283355E+03  0.47000000000E+01 0. -1.
        -11    1    4    4    0    0  0.35103917415E+02 -0.29037302658E+02  0.25707726300E+02  0.52310010085E+02  0.00000000000E+00 0.  1.
         12    1    4    4    0    0 -0.20131554527E+02  0.23684617328E+02 -0.29909608775E+01  0.31227975160E+02  0.00000000000E+00 0. -1.
         -5    1    5    5    0  502  0.25035408105E+02  0.11793493406E+03  0.25562115527E+03  0.28266532393E+03  0.47000000000E+01 0.  1.
         11    1    6    6    0    0  0.54536881974E+02 -0.25782879493E+01  0.29563043657E+03  0.30062979575E+03  0.00000000000E+00 0. -1.
        -12    1    6    6    0    0 -0.26347416376E+02  0.11976070556E+02  0.10166265042E+03  0.10570197305E+03  0.00000000000E+00 0.  1.
</event>
<event>
12    1  0.8113184E-002  0.1909738E+03  0.7818608E-02  0.1157959E+00
         21   -1    0    0  501  502  0.00000000000E+00  0.00000000000E+00  0.96612369355E+02  0.96612369355E+02  0.00000000000E+00 0.  1.
         21   -1    0    0  502  503 -0.00000000000E+00 -0.00000000000E+00 -0.37618073862E+03  0.37618073862E+03  0.00000000000E+00 0. -1.
         -6    2    1    2    0  503 -0.29812702962E+02  0.75786509033E+02 -0.15740157973E+03  0.24747983161E+03  0.17273858151E+03 0.  0.
        -24    2    3    3    0    0 -0.17910976231E+02  0.12356801085E+01 -0.15208416938E+03  0.17165211869E+03  0.77540475253E+02 0.  0.
          6    2    1    2  501    0  0.29812702962E+02 -0.75786509033E+02 -0.12216678954E+03  0.22531327637E+03  0.17090627792E+03 0.  0.
         24    2    5    5    0    0 -0.33272385492E+02 -0.78718817310E+02 -0.10975526450E+03  0.16078062749E+03  0.80625605474E+02 0.  0.
          5    1    5    5  501    0  0.63085088454E+02  0.29323082772E+01 -0.12411525042E+02  0.64532648876E+02  0.47000000000E+01 0. -1.
        -11    1    6    6    0    0 -0.49618345289E+02 -0.21908144127E+02 -0.73804459799E+02  0.91591731366E+02  0.00000000000E+00 0.  1.
         12    1    6    6    0    0  0.16345959797E+02 -0.56810673183E+02 -0.35950804697E+02  0.69188896129E+02  0.00000000000E+00 0. -1.
         -5    1    3    3    0  503 -0.11901726731E+02  0.74550828924E+02 -0.53174103523E+01  0.75827712911E+02  0.47000000000E+01 0.  1.
         13    1    4    4    0    0 -0.37654975992E+02 -0.20225349186E+02 -0.51505205317E+02  0.66930920667E+02  0.00000000000E+00 0. -1.
        -14    1    4    4    0    0  0.19743999761E+02  0.21461029294E+02 -0.10057896406E+03  0.10472119803E+03  0.00000000000E+00 0.  1.
</event>
<event>
12    1  0.8113184E-002  0.1846851E+03  0.7818608E-02  0.1164019E+00
         21   -1    0    0  503  502  0.00000000000E+00  0.00000000000E+00  0.37789825800E+02  0.37789825800E+02  0.00000000000E+00 0. -1.
         21   -1    0    0  501  503 -0.00000000000E+00 -0.00000000000E+00 -0.10735342747E+04  0.10735342747E+04  0.00000000000E+00 0.  1.
          6    2    1    2  501    0 -0.68117906679E+01  0.57515262430E+02 -0.75180140557E+03  0.77415369768E+03  0.17536872101E+03 0.  0.
         24    2    3    3    0    0 -0.46909341550E+02  0.85396381904E+02 -0.61324371571E+03  0.62716562392E+03  0.88180704211E+02 0.  0.
         -6    2    1    2    0  502  0.68117906679E+01 -0.57515262430E+02 -0.28394304336E+03  0.33717040285E+03  0.17235377217E+03 0.  0.
        -24    2    5    5    0    0  0.26917102316E+02  0.31279378531E+02 -0.13857313700E+03  0.16558015984E+03  0.80692906241E+02 0.  0.
          5    1    3    3  501    0  0.40097550882E+02 -0.27881119474E+02 -0.13855768986E+03  0.14698807376E+03  0.47000000000E+01 0. -1.
        -11    1    4    4    0    0 -0.32374489103E+02  0.88911367236E+02 -0.59928574707E+03  0.60670977033E+03  0.00000000000E+00 0.  1.
         12    1    4    4    0    0 -0.14534852446E+02 -0.35149853317E+01 -0.13957968645E+02  0.20455853593E+02  0.00000000000E+00 0. -1.
         -5    1    5    5    0  502 -0.20105311648E+02 -0.88794640961E+02 -0.14536990636E+03  0.17159024301E+03  0.47000000000E+01 0.  1.
         13    1    6    6    0    0  0.52397137958E+02  0.36612718898E+02 -0.10722359506E+03  0.12483128851E+03  0.00000000000E+00 0. -1.
        -14    1    6    6    0    0 -0.25480035643E+02 -0.53333403667E+01 -0.31349541935E+02  0.40748871339E+02  0.00000000000E+00 0.  1.
</event>
<event>
12    1  0.8113184E-002  0.1878475E+03  0.7818608E-02  0.1160763E+00
         21   -1    0    0  503  502  0.00000000000E+00  0.00000000000E+00  0.70378079651E+03  0.70378079651E+03  0.00000000000E+00 0.  1.
         21   -1    0    0  501  503 -0.00000000000E+00 -0.00000000000E+00 -0.12997773830E+03  0.12997773830E+03  0.00000000000E+00 0.  1.
          6    2    1    2  501    0 -0.60861631779E+02  0.41653778198E+02 -0.40200399732E+02  0.19210090161E+03  0.17276431576E+03 0.  0.
         24    2    3    3    0    0  0.22342828150E+01 -0.35569662809E+02 -0.20885927413E+02  0.90416620034E+02  0.80428541467E+02 0.  0.
         -6    2    1    2    0  502  0.60861631779E+02 -0.41653778198E+02  0.61400345794E+03  0.64165763320E+03  0.17112888830E+03 0.  0.
        -24    2    5    5    0    0  0.24672256191E+01 -0.13302237121E+02  0.12071988089E+03  0.14409910002E+03  0.77512736167E+02 0.  0.
          5    1    3    3  501    0 -0.63095914594E+02  0.77223441007E+02 -0.19314472319E+02  0.10168428158E+03  0.47000000000E+01 0. -1.
        -11    1    4    4    0    0  0.35342794674E+01 -0.59380801473E+02 -0.12061476352E+01  0.59498113475E+02  0.00000000000E+00 0.  1.
         12    1    4    4    0    0 -0.12999966524E+01  0.23811138664E+02 -0.19679779777E+02  0.30918506559E+02  0.00000000000E+00 0. -1.
         -5    1    5    5    0  502  0.58394406160E+02 -0.28351541077E+02  0.49328357705E+03  0.49755853318E+03  0.47000000000E+01 0.  1.
         11    1    6    6    0    0 -0.33066878550E+02 -0.12749761018E+02  0.29194213164E+02  0.45915977016E+02  0.00000000000E+00 0. -1.
        -12    1    6    6    0    0  0.35534104169E+02 -0.55247610270E+00  0.91525667730E+02  0.98183123002E+02  0.00000000000E+00 0.  1.
</event>
<event>
12    1  0.8113184E-002  0.2729203E+03  0.7818608E-02  0.1099706E+00
         21   -1    0    0  501  502  0.00000000000E+00  0.00000000000E+00  0.12893493209E+03  0.12893493209E+03  0.00000000000E+00 0.  1.
         21   -1    0    0  502  503 -0.00000000000E+00 -0.00000000000E+00 -0.73665238729E+03  0.73665238729E+03  0.00000000000E+00 0. -1.
         -6    2    1    2    0  503 -0.82387117481E+02 -0.19422533773E+03 -0.50598648855E+03  0.57489808028E+03  0.17313104046E+03 0.  0.
        -24    2    3    3    0    0 -0.96947389953E+02 -0.96308902638E+02 -0.39956413571E+03  0.42947649667E+03  0.78258299876E+02 0.  0.
          6    2    1    2  501    0  0.82387117481E+02  0.19422533773E+03 -0.10173096665E+03  0.29068923910E+03  0.17216249653E+03 0.  0.
         24    2    5    5    0    0  0.59599981819E+01  0.17540830543E+03 -0.75015691759E+02  0.20743672454E+03  0.81234509192E+02 0.  0.
          5    1    5    5  501    0  0.76427119299E+02  0.18817032296E+02 -0.26715274891E+02  0.83252514565E+02  0.47000000000E+01 0. -1.
        -11    1    6    6    0    0  0.26611264473E+02  0.16452416631E+03 -0.77800310443E+02  0.18392729271E+03  0.00000000000E+00 0.  1.
         12    1    6    6    0    0 -0.20651266291E+02  0.10884139123E+02  0.27846186844E+01  0.23509431832E+02  0.00000000000E+00 0. -1.
         -5    1    3    3    0  503  0.14560272471E+02 -0.97916435092E+02 -0.10642235283E+03  0.14542158361E+03  0.47000000000E+01 0.  1.
         11    1    4    4    0    0 -0.50199686533E+02  0.22675956940E+00 -0.13029444887E+03  0.13963059605E+03  0.00000000000E+00 0. -1.
        -12    1    4    4    0    0 -0.46747703420E+02 -0.96535662207E+02 -0.26926968684E+03  0.28984590062E+03  0.00000000000E+00 0.  1.
</event>
<event>
12    1  0.8113184E-002  0.1815990E+03  0.7818608E-02  0.1167509E+00
         21   -1    0    0  501  502  0.00000000000E+00  0.00000000000E+00  0.74026105743E+02  0.74026105743E+02  0.00000000000E+00 0. -1.
         21   -1    0    0  502  503 -0.00000000000E+00 -0.00000000000E+00 -0.14173040275E+04  0.14173040275E+04  0.00000000000E+00 0. -1.
         -6    2    1    2    0  503  0.35480953077E+02 -0.34066281071E+02 -0.12900870714E+04  0.13021015754E+04  0.16948289388E+03 0.  0.
        -24    2    3    3    0    0  0.42781715663E+01 -0.82301268110E+02 -0.73307294513E+03  0.74211313408E+03  0.80895978892E+02 0.  0.
          6    2    1    2  501    0 -0.35480953077E+02  0.34066281071E+02 -0.53190850351E+02  0.18922855784E+03  0.17481067188E+03 0.  0.
         24    2    5    5    0    0  0.28737959280E+02 -0.19469945135E+02 -0.58622835578E+02  0.10531316781E+03  0.80307393156E+02 0.  0.
          5    1    5    5  501    0 -0.64218912357E+02  0.53536226206E+02  0.54319852272E+01  0.83915390032E+02  0.47000000000E+01 0. -1.
        -13    1    6    6    0    0 -0.11886537456E+02 -0.30742173464E+02  0.17748953796E+00  0.32960620512E+02  0.00000000000E+00 0.  1.
         14    1    6    6    0    0  0.40624496736E+02  0.11272228329E+02 -0.58800325116E+02  0.72352547297E+02  0.00000000000E+00 0. -1.
         -5    1    3    3    0  503  0.31202781510E+02  0.48234987039E+02 -0.55701412625E+03  0.55998844130E+03  0.47000000000E+01 0.  1.
         13    1    4    4    0    0  0.78139469449E+01 -0.63554316499E+02 -0.70652911084E+03  0.70942483279E+03  0.00000000000E+00 0. -1.
        -14    1    4    4    0    0 -0.35357753786E+01 -0.18746951611E+02 -0.26543834293E+02  0.32688301290E+02  0.00000000000E+00 0.  1.
</event>
<event>
12    1  0.8113184E-002  0.1770903E+03  0.7818608E-02  0.1171288E+00
         21   -1    0    0  501  502  0.00000000000E+00  0.00000000000E+00  0.75064542947E+03  0.75064542947E+03  0.00000000000E+00 0. -1.
         21   -1    0    0  502  503 -0.00000000000E+00 -0.00000000000E+00 -0.61818748871E+02  0.61818748871E+02  0.00000000000E+00 0. -1.
         -6    2    1    2    0  503  0.39351585804E+02 -0.68329786631E+01  0.10799469144E+03  0.20523540568E+03  0.16989255858E+03 0.  0.
        -24    2    3    3    0    0 -0.41403349451E+01 -0.54647213770E+02  0.23152715105E+02  0.98473993185E+02  0.78470496180E+02 0.  0.
          6    2    1    2  501    0 -0.39351585804E+02  0.68329786631E+01  0.58083198916E+03  0.60722877266E+03  0.17252752191E+03 0.  0.
         24    2    5    5    0    0  0.26715470063E+02  0.11507050894E+02  0.16174814952E+03  0.18291749840E+03  0.80313254109E+02 0.  0.
          5    1    5    5  501    0 -0.66067055867E+02 -0.46740722312E+01  0.41908383963E+03  0.42431127426E+03  0.47000000000E+01 0. -1.
        -11    1    6    6    0    0  0.10866073015E+02 -0.23169068984E+02  0.11767256198E+02  0.28166391653E+02  0.00000000000E+00 0.  1.
         12    1    6    6    0    0  0.15849397048E+02  0.34676119878E+02  0.14998089333E+03  0.15475110675E+03  0.00000000000E+00 0. -1.
         -5    1    3    3    0  503  0.43491920749E+02  0.47814235107E+02  0.84841976335E+02  0.10676141249E+03  0.47000000000E+01 0.  1.
         11    1    4    4    0    0  0.31556771351E+02 -0.57015842939E+01  0.20038659251E+02  0.37813830091E+02  0.00000000000E+00 0. -1.
        -12    1    4    4    0    0 -0.35697106296E+02 -0.48945629476E+02  0.31140558538E+01  0.60660163094E+02  0.00000000000E+00 0.  1.
</event>
<event>
12    1  0.8113184E-002  0.1829295E+03  0.7818608E-02  0.1165137E+00
         21   -1    0    0  501  502  0.00000000000E+00  0.00000000000E+00  0.25108280024E+03  0.25108280024E+03  0.00000000000E+00 0.  1.
         21   -1    0    0  502  503 -0.00000000000E+00 -0.00000000000E+00 -0.47286010316E+03  0.47286010316E+03  0.00000000000E+00 0.  1.
         -6    2    1    2    0  503  0.17300233561E+02 -0.56665666865E+02 -0.41778002244E+03  0.45583793770E+03  0.17244646244E+03 0.  0.
        -24    2    3    3    0    0 -0.43545397624E+02  0.12832795504E+01 -0.27649474452E+03  0.29138766867E+03  0.80991241777E+02 0.  0.
          6    2    1    2  501    0 -0.17300233561E+02  0.56665666865E+02  0.19600271952E+03  0.26810496570E+03  0.17306909226E+03 0.  0.
         24    2    5    5    0    0 -0.50697809490E+02 -0.19663383034E+02  0.84750238688E+02  0.12903402544E+03  0.80686183718E+02 0.  0.
          5    1    5    5  501    0  0.33397575929E+02  0.76329049899E+02  0.11125248083E+03  0.13907094027E+03  0.47000000000E+01 0. -1.
        -13    1    6    6    0    0 -0.33824025719E+02  0.27811700821E+02  0.55777504344E+02  0.70913224502E+02  0.00000000000E+00 0.  1.
         14    1    6    6    0    0 -0.16873783771E+02 -0.47475083855E+02  0.28972734344E+02  0.58120800934E+02  0.00000000000E+00 0. -1.
         -5    1    3    3    0  503  0.60845631185E+02 -0.57948946415E+02 -0.14128527792E+03  0.16445026903E+03  0.47000000000E+01 0.  1.
         13    1    4    4    0    0  0.22590946657E+02 -0.78309487921E+01 -0.53193290332E+02  0.58319814524E+02  0.00000000000E+00 0. -1.
        -14    1    4    4    0    0 -0.66136344281E+02  0.91142283425E+01 -0.22330145419E+03  0.23306785415E+03  0.00000000000E+00 0.  1.
</event>
<event>
12    1  0.8113184E-002  0.1969101E+03  0.7818608E-02  0.1152409E+00
         21   -1    0    0  501  502  0.00000000000E+00  0.00000000000E+00  0.27582154191E+03  0.27582154191E+03  0.00000000000E+00 0. -1.
         21   -1    0    0  502  503 -0.00000000000E+00 -0.00000000000E+00 -0.19928819627E+03  0.19928819627E+03  0.00000000000E+00 0. -1.
         -6    2    1    2    0  503  0.20875189890E+01 -0.95408882164E+02 -0.90817693415E+02  0.21669153163E+03  0.17204695263E+03 0.  0.
        -24    2    3    3    0    0 -0.26583754128E+02  0.12137835380E+02 -0.39803500184E+02  0.94164488623E+02  0.80178608491E+02 0.  0.
          6    2    1    2  501    0 -0.20875189890E+01  0.95408882164E+02  0.16735103906E+03  0.25841820656E+03  0.17223932964E+03 0.  0.
         24    2    5    5    0    0 -0.40280315019E+02  0.11114177728E+03  0.87019991149E+02  0.16796722030E+03  0.81642573447E+02 0.  0.
          5    1    5    5  501    0  0.38192796030E+02 -0.15732895116E+02  0.80331047910E+02  0.90450986261E+02  0.47000000000E+01 0. -1.
        -13    1    6    6    0    0 -0.30527625743E+02  0.11808844036E+02 -0.38878502473E+01  0.32962101124E+02  0.00000000000E+00 0.  1.
         14    1    6    6    0    0 -0.97526892757E+01  0.99332933244E+02  0.90907841396E+02  0.13500511917E+03  0.00000000000E+00 0. -1.
         -5    1    3    3    0  503  0.28671273117E+02 -0.10754671754E+03 -0.51014193231E+02  0.12252704301E+03  0.47000000000E+01 0.  1.
         11    1    4    4    0    0  0.28603911319E+02  0.41006638511E+01 -0.80863780232E+01  0.30006477573E+02  0.00000000000E+00 0. -1.
        -12    1    4    4    0    0 -0.55187665448E+02  0.80371715285E+01 -0.31717122161E+02  0.64158011050E+02  0.00000000000E+00 0.  1.
</event>
<event>
12    1  0.8113184E-002  0.1985875E+03  0.7818608E-02  0.1151208E+00
         21   -1    0    0  503  502  0.00000000000E+00  0.00000000000E+00  0.21150836261E+03  0.21150836261E+03  0.00000000000E+00 0. -1.
         21   -1    0    0  501  503 -0.00000000000E+00 -0.00000000000E+00 -0.18586944908E+03  0.18586944908E+03  0.00000000000E+00 0. -1.
          6    2    1    2  501    0  0.32903206452E+01 -0.96820796753E+02  0.24188109870E+02  0.20005511850E+03  0.17335481789E+03 0.  0.
         24    2    3    3    0    0 -0.23618758080E+02 -0.11933262554E+03 -0.15356814026E+02  0.14698184878E+03  0.81053753041E+02 0.  0.
         -6    2    1    2    0  502 -0.32903206452E+01  0.96820796753E+02  0.14508036549E+01  0.19732269318E+03  0.17189836392E+03 0.  0.
        -24    2    5    5    0    0  0.10924537654E+02  0.35051871251E+01  0.45823139781E+02  0.92915512347E+02  0.80011876841E+02 0.  0.
          5    1    3    3  501    0  0.26909078725E+02  0.22511828787E+02  0.39544923896E+02  0.53073269723E+02  0.47000000000E+01 0. -1.
        -11    1    4    4    0    0  0.11663506615E+02 -0.40820068147E+02 -0.39073933739E+02  0.57698246489E+02  0.00000000000E+00 0.  1.
         12    1    4    4    0    0 -0.35282264695E+02 -0.78512557393E+02  0.23717119713E+02  0.89283602290E+02  0.00000000000E+00 0. -1.
         -5    1    5    5    0  502 -0.14214858299E+02  0.93315609628E+02 -0.44372336127E+02  0.10440718084E+03  0.47000000000E+01 0.  1.
         13    1    6    6    0    0 -0.48932070362E+01  0.12084764747E+02 -0.20444601520E+02  0.24248025598E+02  0.00000000000E+00 0. -1.
        -14    1    6    6    0    0  0.15817744690E+02 -0.85795776224E+01  0.66267741301E+02  0.68667486749E+02  0.00000000000E+00 0.  1.
</event>
<event>
12    1  0.8113184E-002  0.1940066E+03  0.7818608E-02  0.1155192E+00
         21   -1    0    0  503  502  0.00000000000E+00  0.00000000000E+00  0.55769284993E+03  0.55769284993E+03  0.00000000000E+00 0.  1.
         21   -1    0    0  501  503 -0.00000000000E+00 -0.00000000000E+00 -0.94928683028E+02  0.94928683028E+02  0.00000000000E+00 0.  1.
          6    2    1    2  501    0 -0.30328374077E+02  0.81755355558E+02  0.55031470203E+02  0.20166067429E+03  0.17330555792E+03 0.  0.
         24    2    3    3    0    0 -0.74627737986E+01 -0.24893057343E+02  0.17450540373E+02  0.86200135853E+02  0.80315532527E+02 0.  0.
         -6    2    1    2    0  502  0.30328374077E+02 -0.81755355558E+02  0.40773269670E+03  0.45096085866E+03  0.17180219921E+03 0.  0.
        -24    2    5    5    0    0 -0.34318737471E+02 -0.46241885576E+02  0.12920650915E+03  0.16279531122E+03  0.80572350255E+02 0.  0.
          5    1    3    3  501    0 -0.22865600278E+02  0.10664841290E+03  0.37580929830E+02  0.11546053844E+03  0.47000000000E+01 0. -1.
        -13    1    4    4    0    0  0.19667304742E+02  0.19619912143E+02  0.19645475266E+02  0.34024822215E+02  0.00000000000E+00 0.  1.
         14    1    4    4    0    0 -0.27130078540E+02 -0.44512969486E+02 -0.21949348927E+01  0.52175313638E+02  0.00000000000E+00 0. -1.
         -5    1    5    5    0  502  0.64647111547E+02 -0.35513469982E+02  0.27852618755E+03  0.28816554744E+03  0.47000000000E+01 0.  1.
         11    1    6    6    0    0  0.17495904302E+02  0.30225683348E+01  0.33788663851E+01  0.18073719173E+02  0.00000000000E+00 0. -1.
        -12    1    6    6    0    0 -0.51814641773E+02 -0.49264453911E+02  0.12582764276E+03  0.14472159204E+03  0.00000000000E+00 0.  1.
</event>
<event>
12    1  0.8113184E-002  0.1996562E+03  0.7818608E-02  0.1150263E+00
         21   -1    0    0  503  502  0.00000000000E+00  0.00000000000E+00  0.56715975086E+03  0.56715975086E+03  0.00000000000E+00 0. -1.
         21   -1    0    0  501  503 -0.00000000000E+00 -0.00000000000E+00 -0.10644259089E+03  0.10644259089E+03  0.00000000000E+00 0. -1.
          6    2    1    2  501    0 -0.95786794163E+02 -0.35605408693E+02  0.33429317447E+02  0.20243545883E+03  0.17152183728E+03 0.  0.
         24    2    3    3    0    0 -0.27381551948E+02 -0.11567202947E+02  0.78722525786E+02  0.11681608474E+03  0.81025995935E+02 0.  0.
         -6    2    1    2    0  502  0.95786794163E+02  0.35605408693E+02  0.42728784252E+03  0.47116688291E+03  0.17023652993E+03 0.  0.
        -24    2    5    5    0    0  0.34153884682E+02 -0.24509497072E+02  0.32403788774E+03  0.33664900087E+03  0.81023415204E+02 0.  0.
          5    1    3    3  501    0 -0.68405242215E+02 -0.24038205747E+02 -0.45293208339E+02  0.85619374091E+02  0.47000000000E+01 0. -1.
        -13    1    4    4    0    0 -0.55683932741E+02 -0.44115242716E+00  0.46968812193E+02  0.72848914198E+02  0.00000000000E+00 0.  1.
         14    1    4    4    0    0  0.28302380793E+02 -0.11126050519E+02  0.31753713592E+02  0.43967170544E+02  0.00000000000E+00 0. -1.
         -5    1    5    5    0  502  0.61632909481E+02  0.60114905765E+02  0.10324995478E+03  0.13451788204E+03  0.47000000000E+01 0.  1.
         11    1    6    6    0    0  0.57332373020E+02 -0.77260447186E+00  0.18356425940E+03  0.19231077776E+03  0.00000000000E+00 0. -1.
        -12    1    6    6    0    0 -0.23178488338E+02 -0.23736892600E+02  0.14047362834E+03  0.14433822311E+03  0.00000000000E+00 0.  1.
</event>
<event>
12    1  0.8113184E-002  0.2172751E+03  0.7818608E-02  0.1136071E+00
         21   -1    0    0  503  502  0.00000000000E+00  0.00000000000E+00  0.30723899365E+03  0.30723899365E+03  0.00000000000E+00 0. -1.
         21   -1    0    0  501  503 -0.00000000000E+00 -0.00000000000E+00 -0.21696939233E+03  0.21696939233E+03  0.00000000000E+00 0.  1.
          6    2    1    2  501    0  0.24071831998E+02  0.13016986167E+03 -0.97088391811E+02  0.23730859112E+03  0.17136383987E+03 0.  0.
         24    2    3    3    0    0 -0.42160169821E+02  0.11446903697E+03 -0.48672558641E+02  0.15364631251E+03  0.79734127193E+02 0.  0.
         -6    2    1    2    0  502 -0.24071831998E+02 -0.13016986167E+03  0.18735799313E+03  0.28689979485E+03  0.17229285741E+03 0.  0.
        -24    2    5    5    0    0 -0.52894647296E+02 -0.15280161108E+03  0.15564830026E+03  0.23821154797E+03  0.79825886480E+02 0.  0.
          5    1    3    3  501    0  0.66232001819E+02  0.15700824702E+02 -0.48415833170E+02  0.83662278614E+02  0.47000000000E+01 0. -1.
        -11    1    4    4    0    0 -0.10436705543E+02  0.80482798786E+02 -0.65409187294E+02  0.10423419547E+03  0.00000000000E+00 0.  1.
         12    1    4    4    0    0 -0.31723464278E+02  0.33986238184E+02  0.16736628653E+02  0.49412117040E+02  0.00000000000E+00 0. -1.
         -5    1    5    5    0  502  0.28822815298E+02  0.22631749406E+02  0.31709692866E+02  0.48688246883E+02  0.47000000000E+01 0.  1.
         11    1    6    6    0    0 -0.33334219549E+02 -0.12671531431E+03  0.15830812929E+03  0.20549794372E+03  0.00000000000E+00 0. -1.
        -12    1    6    6    0    0 -0.19560427746E+02 -0.26086296768E+02 -0.26598290291E+01  0.32713604252E+02  0.00000000000E+00 0.  1.
</event>
<event>
12    1  0.8113184E-002  0.2152943E+03  0.7818608E-02  0.1138127E+00
         21   -1    0    0  503  502  0.00000000000E+00  0.00000000000E+00  0.32637631693E+03  0.32637631693E+03  0.00000000000E+00 0. -1.
         21   -1    0    0  501  503 -0.00000000000E+00 -0.00000000000E+00 -0.17371610503E+03  0.17371610503E+03  0.00000000000E+00 0. -1.
          6    2    1    2  501    0  0.25839734463E+02 -0.12599687143E+03 -0.34842526040E+02  0.21459480144E+03  0.16820827476E+03 0.  0.
         24    2    3    3    0    0  0.15200432956E+02 -0.11542103859E+02  0.25093048858E+02  0.84874133488E+02  0.78801548911E+02 0.  0.
         -6    2    1    2    0  502 -0.25839734463E+02  0.12599687143E+03  0.18750273794E+03  0.28549762053E+03  0.17265199421E+03 0.  0.
        -24    2    5    5    0    0 -0.95429692593E+01  0.13079841740E+03  0.20691855223E+03  0.25927352389E+03  0.84900993363E+02 0.  0.
          5    1    3    3  501    0  0.10639301507E+02 -0.11445476757E+03 -0.59935574899E+02  0.12972066796E+03  0.47000000000E+01 0. -1.
        -11    1    4    4    0    0 -0.20871008590E+02 -0.17409530879E+02  0.37470357945E+02  0.46289507337E+02  0.00000000000E+00 0.  1.
         12    1    4    4    0    0  0.36071441545E+02  0.58674270205E+01 -0.12377309086E+02  0.38584626151E+02  0.00000000000E+00 0. -1.
         -5    1    5    5    0  502 -0.16296765203E+02 -0.48015459685E+01 -0.19415814294E+02  0.26224096638E+02  0.47000000000E+01 0.  1.
         13    1    6    6    0    0 -0.37231794440E+02  0.10362782435E+03  0.18337323978E+03  0.21389408025E+03  0.00000000000E+00 0. -1.
        -14    1    6    6    0    0  0.27688825181E+02  0.27170593054E+02  0.23545312451E+02  0.45379443641E+02  0.00000000000E+00 0.  1.
</event>
<event>
12    1  0.8113184E-002  0.2733468E+03  0.7818608E-02  0.1099484E+00
         21   -1    0    0  501  502  0.00000000000E+00  0.00000000000E+00  0.18962335564E+03  0.18962335564E+03  0.00000000000E+00 0.  1.
         21   -1    0    0  502  503 -0.00000000000E+00 -0.00000000000E+00 -0.39612792904E+03  0.39612792904E+03  0.00000000000E+00 0. -1.
         -6    2    1    2    0  503  0.17038957979E+03  0.12624252515E+03 -0.12926529532E+03  0.30170136613E+03  0.17130211234E+03 0.  0.
        -24    2    3    3    0    0  0.62461720268E+02  0.12907629663E+03 -0.75481908263E+02  0.18099015768E+03  0.80608695876E+02 0.  0.
          6    2    1    2  501    0 -0.17038957979E+03 -0.12624252515E+03 -0.77239278090E+02  0.28404991856E+03  0.17247801626E+03 0.  0.
         24    2    5    5    0    0 -0.71518252367E+02 -0.55546007801E+02  0.27908208481E+02  0.12326552602E+03  0.78837189190E+02 0.  0.
          5    1    5    5  501    0 -0.98871327422E+02 -0.70696517349E+02 -0.10514748657E+03  0.16078439254E+03  0.47000000000E+01 0. -1.
        -11    1    6    6    0    0 -0.30440076163E+02  0.10685064530E+02  0.31711594522E+02  0.45237087307E+02  0.00000000000E+00 0.  1.
         12    1    6    6    0    0 -0.41078176204E+02 -0.66231072330E+02 -0.38033860408E+01  0.78028438711E+02  0.00000000000E+00 0. -1.
         -5    1    3    3    0  503  0.10792785952E+03 -0.28337714845E+01 -0.53783387053E+02  0.12071120845E+03  0.47000000000E+01 0.  1.
         11    1    4    4    0    0  0.15533957963E+02  0.51162450882E+02 -0.72373330191E+02  0.89982215761E+02  0.00000000000E+00 0. -1.
        -12    1    4    4    0    0  0.46927762305E+02  0.77913845753E+02 -0.31085780714E+01  0.91007941921E+02  0.00000000000E+00 0.  1.
</event>
<event>
12    1  0.8113184E-002  0.3122911E+03  0.7818608E-02  0.1079899E+00
         21   -1    0    0  501  502  0.00000000000E+00  0.00000000000E+00  0.25647593177E+03  0.25647593177E+03  0.00000000000E+00 0.  1.
         21   -1    0    0  502  503 -0.00000000000E+00 -0.00000000000E+00 -0.63295837122E+03  0.63295837122E+03  0.00000000000E+00 0. -1.
         -6    2    1    2    0  503  0.20764158126E+03  0.14616865445E+03 -0.47187770442E+03  0.56289793950E+03  0.17235202509E+03 0.  0.
        -24    2    3    3    0    0  0.10228972364E+03  0.11206280330E+03 -0.38778152173E+03  0.42377036879E+03  0.78648314854E+02 0.  0.
          6    2    1    2  501    0 -0.20764158126E+03 -0.14616865445E+03  0.95395264967E+02  0.32653636349E+03  0.18178404300E+03 0.  0.
         24    2    5    5    0    0 -0.61007403303E+02  0.17968021006E+01  0.74153391517E+01  0.10035520639E+03  0.79316129756E+02 0.  0.
          5    1    5    5  501    0 -0.14663417796E+03 -0.14796545656E+03  0.87979925815E+02  0.22618115710E+03  0.47000000000E+01 0. -1.
        -11    1    6    6    0    0 -0.50147966826E+02 -0.21741001065E+02  0.33070682222E+02  0.63883955158E+02  0.00000000000E+00 0.  1.
         12    1    6    6    0    0 -0.10859436478E+02  0.23537803165E+02 -0.25655343070E+02  0.36471251233E+02  0.00000000000E+00 0. -1.
         -5    1    3    3    0  503  0.10535185762E+03  0.34105851152E+02 -0.84096182695E+02  0.13912757071E+03  0.47000000000E+01 0.  1.
         11    1    4    4    0    0  0.93609207960E+02  0.94871298386E+02 -0.23817720226E+03  0.27293154224E+03  0.00000000000E+00 0. -1.
        -12    1    4    4    0    0  0.86805156780E+01  0.17191504917E+02 -0.14960431946E+03  0.15083882655E+03  0.00000000000E+00 0.  1.
</event>
<event>
12    1  0.8113184E-002  0.1725631E+03  0.7818608E-02  0.1175793E+00
         21   -1    0    0  503  502  0.00000000000E+00  0.00000000000E+00  0.84653137922E+03  0.84653137922E+03  0.00000000000E+00 0.  1.
         21   -1    0    0  501  503 -0.00000000000E+00 -0.00000000000E+00 -0.54136584023E+02  0.54136584023E+02  0.00000000000E+00 0.  1.
          6    2    1    2  501    0  0.46622840133E+01  0.43855749080E+01  0.12813574901E+03  0.21493442883E+03  0.17244439209E+03 0.  0.
         24    2    3    3    0    0  0.14962247622E+01  0.36436049136E+01 -0.72786654219E+01  0.79399458853E+02  0.78966958599E+02 0.  0.
         -6    2    1    2    0  502 -0.46622840133E+01 -0.43855749080E+01  0.66425904618E+03  0.68573353441E+03  0.17014531912E+03 0.  0.
        -24    2    5    5    0    0 -0.69529030316E+02 -0.88023712122E+01  0.44132401265E+03  0.45346360083E+03  0.77140037244E+02 0.  0.
          5    1    3    3  501    0  0.31660592511E+01  0.74196999438E+00  0.13541441444E+03  0.13553496998E+03  0.47000000000E+01 0. -1.
        -13    1    4    4    0    0 -0.14166035461E+02  0.38195626639E+02  0.17340418179E+00  0.40738342185E+02  0.00000000000E+00 0.  1.
         14    1    4    4    0    0  0.15662260223E+02 -0.34552021725E+02 -0.74520696036E+01  0.38661116667E+02  0.00000000000E+00 0. -1.
         -5    1    5    5    0  502  0.64866746303E+02  0.44167963042E+01  0.22293503353E+03  0.23226993357E+03  0.47000000000E+01 0.  1.
         11    1    6    6    0    0 -0.35520303014E+02 -0.37948525900E+02  0.15078807410E+03  0.15949553547E+03  0.00000000000E+00 0. -1.
        -12    1    6    6    0    0 -0.34008727302E+02  0.29146154687E+02  0.29053593855E+03  0.29396806536E+03  0.00000000000E+00 0.  1.
</event>
<event>
12    1  0.8113184E-002  0.1921516E+03  0.7818608E-02  0.1157097E+00
         21   -1    0    0  503  502  0.00000000000E+00  0.00000000000E+00  0.35623845715E+03  0.35623845715E+03  0.00000000000E+00 0. -1.
         21   -1    0    0  501  503 -0.00000000000E+00 -0.00000000000E+00 -0.22624240093E+03  0.22624240093E+03  0.00000000000E+00 0. -1.
          6    2    1    2  501    0 -0.82746946434E+02  0.14653704770E+02 -0.15076239451E+03  0.24226394345E+03  0.17000214849E+03 0.  0.
         24    2    3    3    0    0  0.89903364867E+01 -0.13841252326E+02 -0.28136646200E+02  0.86421536498E+02  0.80028774170E+02 0.  0.
         -6    2    1    2    0  502  0.82746946434E+02 -0.14653704770E+02  0.28075845072E+03  0.34021691463E+03  0.17280177412E+03 0.  0.
        -24    2    5    5    0    0  0.43534361277E+02  0.34622353566E+02  0.68076640808E+02  0.11835795261E+03  0.79247889208E+02 0.  0.
          5    1    3    3  501    0 -0.91737282921E+02  0.28494957096E+02 -0.12262574831E+03  0.15584240695E+03  0.47000000000E+01 0. -1.
        -11    1    4    4    0    0 -0.16919160990E+02 -0.40892277159E+02 -0.14994332059E+02  0.46725435618E+02  0.00000000000E+00 0.  1.
         12    1    4    4    0    0  0.25909497477E+02  0.27051024833E+02 -0.13142314141E+02  0.39696100879E+02  0.00000000000E+00 0. -1.
         -5    1    5    5    0  502  0.39212585157E+02 -0.49276058337E+02  0.21268180991E+03  0.22185896202E+03  0.47000000000E+01 0.  1.
         13    1    6    6    0    0  0.46510273982E+02  0.98819875070E+01  0.78151523855E+02  0.91479614908E+02  0.00000000000E+00 0. -1.
        -14    1    6    6    0    0 -0.29759127054E+01  0.24740366059E+02 -0.10074883047E+02  0.26878337701E+02  0.00000000000E+00 0.  1.
</event>
<event>
12    1  0.8113184E-002  0.1944198E+03  0.7818608E-02  0.1154785E+00
         21   -1    0    0  503  502  0.00000000000E+00  0.00000000000E+00  0.52358007162E+02  0.52358007162E+02  0.00000000000E+00 0. -1.
         21   -1    0    0  501  503 -0.00000000000E+00 -0.00000000000E+00 -0.16424588735E+04  0.16424588735E+04  0.00000000000E+00 0. -1.
          6    2    1    2  501    0  0.82200369896E+02 -0.37792910993E+02 -0.14298825676E+04  0.14428863993E+04  0.17079753866E+03 0.  0.
         24    2    3    3    0    0  0.34842969608E+01 -0.60745570495E+02 -0.53093595045E+03  0.54019589020E+03  0.78844477635E+02 0.  0.
         -6    2    1    2    0  502 -0.82200369896E+02  0.37792910993E+02 -0.16021829870E+03  0.25193048133E+03  0.17208677826E+03 0.  0.
        -24    2    5    5    0    0 -0.55354399246E+02  0.11636853570E+02 -0.11604023373E+02  0.98590537704E+02  0.79911919570E+02 0.  0.
          5    1    3    3  501    0  0.78716072936E+02  0.22952659502E+02 -0.89894661716E+03  0.90269050910E+03  0.47000000000E+01 0. -1.
        -11    1    4    4    0    0 -0.34224523904E+02 -0.26254695307E+02 -0.33245324306E+03  0.33523989304E+03  0.00000000000E+00 0.  1.
         12    1    4    4    0    0  0.37708820864E+02 -0.34490875188E+02 -0.19848270739E+03  0.20495599717E+03  0.00000000000E+00 0. -1.
         -5    1    5    5    0  502 -0.26845970651E+02  0.26156057423E+02 -0.14861427533E+03  0.15333994363E+03  0.47000000000E+01 0.  1.
         11    1    6    6    0    0 -0.61724808144E+02  0.36481605329E+02 -0.38818193567E+01  0.71804790852E+02  0.00000000000E+00 0. -1.
        -12    1    6    6    0    0  0.63704088984E+01 -0.24844751759E+02 -0.77222040161E+01  0.26785746851E+02  0.00000000000E+00 0.  1.
</event>
<event>
12    1  0.8113184E-002  0.1914116E+03  0.7818608E-02  0.1157987E+00
         21   -1    0    0  503  502  0.00000000000E+00  0.00000000000E+00  0.23709304766E+02  0.23709304766E+02  0.00000000000E+00 0.  1.
         21   -1    0    0  501  503 -0.00000000000E+00 -0.00000000000E+00 -0.15238717113E+04  0.15238717113E+04  0.00000000000E+00 0. -1.
          6    2    1    2  501    0 -0.37093829134E+02  0.68406325034E+02 -0.80867713743E+03  0.83102173076E+03  0.17488003583E+03 0.  0.
         24    2    3    3    0    0 -0.61492519375E+02 -0.18819756603E+02 -0.43147558445E+03  0.44306968866E+03  0.77485842909E+02 0.  0.
         -6    2    1    2    0  502  0.37093829134E+02 -0.68406325034E+02 -0.69148526908E+03  0.71655928528E+03  0.17102618076E+03 0.  0.
        -24    2    5    5    0    0  0.65247459876E+02 -0.23947187641E+02 -0.61213269221E+03  0.62122742661E+03  0.79914853969E+02 0.  0.
          5    1    3    3  501    0  0.24398690241E+02  0.87226081637E+02 -0.37720155298E+03  0.38795204210E+03  0.47000000000E+01 0. -1.
        -11    1    4    4    0    0 -0.38594092273E+01  0.25083268193E+01  0.21718729468E+01  0.50895751408E+01  0.00000000000E+00 0.  1.
         12    1    4    4    0    0 -0.57633110148E+02 -0.21328083422E+02 -0.43364745740E+03  0.43798011352E+03  0.00000000000E+00 0. -1.
         -5    1    5    5    0  502 -0.28153630742E+02 -0.44459137392E+02 -0.79352576865E+02  0.95331858666E+02  0.47000000000E+01 0.  1.
         13    1    6    6    0    0  0.74359998917E+02 -0.42160640693E+02 -0.50265858036E+03  0.50987506065E+03  0.00000000000E+00 0. -1.
        -14    1    6    6    0    0 -0.91125390410E+01  0.18213453052E+02 -0.10947411185E+03  0.11135236597E+03  0.00000000000E+00 0.  1.
</event>
<event>
12    1  0.8113184E-002  0.3020800E+03  0.7818608E-02  0.1084209E+00
         21   -1    0    0  503  502  0.00000000000E+00  0.00000000000E+00  0.81915433988E+02  0.81915433988E+02  0.00000000000E+00 0. -1.
         21   -1    0    0  501  503 -0.00000000000E+00 -0.00000000000E+00 -0.11849086733E+04  0.11849086733E+04  0.00000000000E+00 0.  1.
          6    2    1    2  501    0  0.24807044870E+03 -0.57186687712E+01 -0.39644395778E+03  0.49841763539E+03  0.17228080831E+03 0.  0.
         24    2    3    3    0    0  0.73407300291E+02 -0.50384452234E+02 -0.18292653787E+03  0.21892876936E+03  0.80873129253E+02 0.  0.
         -6    2    1    2    0  502 -0.24807044870E+03  0.57186687712E+01 -0.70654928149E+03  0.76840647186E+03  0.17223521165E+03 0.  0.
        -24    2    5    5    0    0 -0.15171640952E+03  0.15380948339E+02 -0.26173310746E+03  0.31314722792E+03  0.79388439487E+02 0.  0.
          5    1    3    3  501    0  0.17466314841E+03  0.44665783462E+02 -0.21351741991E+03  0.27948886602E+03  0.47000000000E+01 0. -1.
        -11    1    4    4    0    0 -0.12538367111E+02 -0.88647017085E+01 -0.35844082431E+01  0.15768372416E+02  0.00000000000E+00 0.  1.
         12    1    4    4    0    0  0.85945667402E+02 -0.41519750525E+02 -0.17934212963E+03  0.20316039695E+03  0.00000000000E+00 0. -1.
         -5    1    5    5    0  502 -0.96354039179E+02 -0.96622795682E+01 -0.44481617403E+03  0.45525924394E+03  0.47000000000E+01 0.  1.
         13    1    6    6    0    0 -0.52137457649E+02  0.44093967092E+02 -0.10474783556E+03  0.12503879989E+03  0.00000000000E+00 0. -1.
        -14    1    6    6    0    0 -0.99578951875E+02 -0.28713018753E+02 -0.15698527190E+03  0.18810842803E+03  0.00000000000E+00 0.  1.
</event>
<event>
12    1  0.8113184E-002  0.1782868E+03  0.7818608E-02  0.1169570E+00
         21   -1    0    0  501  502  0.00000000000E+00  0.00000000000E+00  0.14860743352E+04  0.14860743352E+04  0.00000000000E+00 0.  1.
         21   -1    0    0  502  503 -0.00000000000E+00 -0.00000000000E+00 -0.21616198165E+02  0.21616198165E+02  0.00000000000E+00 0. -1.
         -6    2    1    2    0  503 -0.17614045717E+02 -0.41913282914E+02  0.64638482391E+03  0.67041512218E+03  0.17197708445E+03 0.  0.
        -24    2    3    3    0    0 -0.36311840072E+02 -0.86525295711E+02  0.53312007416E+03  0.54716402590E+03  0.79788979410E+02 0.  0.
          6    2    1    2  501    0  0.17614045717E+02  0.41913282914E+02  0.81807331311E+03  0.83727541117E+03  0.17239254808E+03 0.  0.
         24    2    5    5    0    0  0.74338451181E+02  0.72131933962E+01  0.56528624471E+03  0.57584636470E+03  0.80450368526E+02 0.  0.
          5    1    5    5  501    0 -0.56724405464E+02  0.34700089518E+02  0.25278706840E+03  0.26142904647E+03  0.47000000000E+01 0. -1.
        -11    1    6    6    0    0  0.23773775857E+02  0.28154687565E+02  0.40087581729E+03  0.40256589490E+03  0.00000000000E+00 0.  1.
         12    1    6    6    0    0  0.50564675324E+02 -0.20941494169E+02  0.16441042742E+03  0.17328046980E+03  0.00000000000E+00 0. -1.
         -5    1    3    3    0  503  0.18697794355E+02  0.44612012797E+02  0.11326474975E+03  0.12325109629E+03  0.47000000000E+01 0.  1.
         13    1    4    4    0    0 -0.45965022904E+02 -0.13730378128E+02  0.16705762144E+03  0.17380896264E+03  0.00000000000E+00 0. -1.
        -14    1    4    4    0    0  0.96531828325E+01 -0.72794917583E+02  0.36606245272E+03  0.37335506326E+03  0.00000000000E+00 0.  1.
</event>
<event>
12    1  0.8113184E-002  0.2285785E+03  0.7818608E-02  0.1127723E+00
         21   -1    0    0  503  502  0.00000000000E+00  0.00000000000E+00  0.97211246124E+02  0.97211246124E+02  0.00000000000E+00 0.  1.
         21   -1    0    0  501  503 -0.00000000000E+00 -0.00000000000E+00 -0.13492096357E+04  0.13492096357E+04  0.00000000000E+00 0.  1.
          6    2    1    2  501    0 -0.14653254563E+02 -0.14908182518E+03 -0.11875588904E+04  0.12093569523E+04  0.17264996796E+03 0.  0.
         24    2    3    3    0    0  0.27434255824E+02 -0.14931486843E+03 -0.73587293634E+03  0.75568999964E+03  0.80689706853E+02 0.  0.
         -6    2    1    2    0  502  0.14653254563E+02  0.14908182518E+03 -0.64439499150E+02  0.23706392950E+03  0.17206611854E+03 0.  0.
        -24    2    5    5    0    0  0.56334993049E+02  0.38027637290E+02 -0.15052311991E+02  0.10848872105E+03  0.83207558907E+02 0.  0.
          5    1    3    3  501    0 -0.42087510387E+02  0.23304324145E+00 -0.45168595406E+03  0.45366695266E+03  0.47000000000E+01 0. -1.
        -11    1    4    4    0    0  0.23709385177E+02 -0.28141382088E+02 -0.33148568094E+03  0.33352185686E+03  0.00000000000E+00 0.  1.
         12    1    4    4    0    0  0.37248706467E+01 -0.12117348634E+03 -0.40438725539E+03  0.42216814278E+03  0.00000000000E+00 0. -1.
         -5    1    5    5    0  502 -0.41681738486E+02  0.11105418789E+03 -0.49387187159E+02  0.12857520845E+03  0.47000000000E+01 0.  1.
         13    1    6    6    0    0  0.12694065752E+01 -0.23545256304E+02  0.34700934820E+01  0.23833422671E+02  0.00000000000E+00 0. -1.
        -14    1    6    6    0    0  0.55065586474E+02  0.61572893593E+02 -0.18522405473E+02  0.84655298379E+02  0.00000000000E+00 0.  1.
</event>
<event>
12    1  0.8113184E-002  0.1936062E+03  0.7818608E-02  0.1155590E+00
         21   -1    0    0  501  502  0.00000000000E+00  0.00000000000E+00  0.27686352428E+03  0.27686352428E+03  0.00000000000E+00 0. -1.
         21   -1    0    0  502  503 -0.00000000000E+00 -0.00000000000E+00 -0.20533829926E+03  0.20533829926E+03  0.00000000000E+00 0. -1.
         -6    2    1    2    0  503  0.75372692789E+02 -0.40575915734E+02 -0.10594736093E+03  0.22069935746E+03  0.17365458629E+03 0.  0.
        -24    2    3    3    0    0  0.94156372669E+02 -0.82555050235E+02 -0.84227610774E+02  0.16962184861E+03  0.77437215057E+02 0.  0.
          6    2    1    2  501    0 -0.75372692789E+02  0.40575915734E+02  0.17747258594E+03  0.26150246608E+03  0.17192897735E+03 0.  0.
         24    2    5    5    0    0 -0.73926101254E+02 -0.28586406293E+02  0.14251852450E+03  0.18385328176E+03  0.84901403499E+02 0.  0.
          5    1    5    5  501    0 -0.14465915351E+01  0.69162322027E+02  0.34954061437E+02  0.77649184324E+02  0.47000000000E+01 0. -1.
        -11    1    6    6    0    0 -0.76004756653E+02 -0.42811016630E+02  0.75678532010E+02  0.11548483184E+03  0.00000000000E+00 0.  1.
         12    1    6    6    0    0  0.20786553996E+01  0.14224610337E+02  0.66839992492E+02  0.68368449916E+02  0.00000000000E+00 0. -1.
         -5    1    3    3    0  503 -0.18783679880E+02  0.41979134501E+02 -0.21719750152E+02  0.51077508846E+02  0.47000000000E+01 0.  1.
         13    1    4    4    0    0  0.97805644422E+01 -0.30851555444E+02  0.90769313828E+01  0.33613518076E+02  0.00000000000E+00 0. -1.
        -14    1    4    4    0    0  0.84375808227E+02 -0.51703494790E+02 -0.93304542157E+02  0.13600833053E+03  0.00000000000E+00 0.  1.
</event>
<event>
12    1  0.8113184E-002  0.1785805E+03  0.7818608E-02  0.1169200E+00
         21   -1    0    0  503  502  0.00000000000E+00  0.00000000000E+00  0.13923924041E+03  0.13923924041E+03  0.00000000000E+00 0. -1.
         21   -1    0    0  501  503 -0.00000000000E+00 -0.00000000000E+00 -0.23682075914E+03  0.23682075914E+03  0.00000000000E+00 0. -1.
          6    2    1    2  501    0  0.35709270866E+02  0.24813129244E+02 -0.83074657891E+02  0.19695786349E+03  0.17320553628E+03 0.  0.
         24    2    3    3    0    0 -0.11954230885E+02 -0.33909346393E+02 -0.53897893945E+01  0.88435205311E+02  0.80616302940E+02 0.  0.
         -6    2    1    2    0  502 -0.35709270866E+02 -0.24813129244E+02 -0.14506860839E+02  0.17910213606E+03  0.17313660134E+03 0.  0.
        -24    2    5    5    0    0 -0.38945649598E+02 -0.71146694477E+02  0.27254432918E+02  0.11646533322E+03  0.79011100296E+02 0.  0.
          5    1    3    3  501    0  0.47663501751E+02  0.58722475637E+02 -0.77684868497E+02  0.10852265818E+03  0.47000000000E+01 0. -1.
        -11    1    4    4    0    0 -0.13414282886E+02 -0.25596649187E+02  0.36016758325E+02  0.46177248891E+02  0.00000000000E+00 0.  1.
         12    1    4    4    0    0  0.14600520006E+01 -0.83126972067E+01 -0.41406547720E+02  0.42257956420E+02  0.00000000000E+00 0. -1.
         -5    1    5    5    0  502  0.32363787316E+01  0.46333565232E+02 -0.41761293758E+02  0.62636802846E+02  0.47000000000E+01 0.  1.
         11    1    6    6    0    0 -0.23711639507E+02 -0.43890648805E+02 -0.24841111048E+02  0.55728912593E+02  0.00000000000E+00 0. -1.
        -12    1    6    6    0    0 -0.15234010091E+02 -0.27256045671E+02  0.52095543966E+02  0.60736420624E+02  0.00000000000E+00 0.  1.
</event>
<event>
12    1  0.8113184E-002  0.1930208E+03  0.7818608E-02  0.1156038E+00
         21   -1    0    0  503  502  0.00000000000E+00  0.00000000000E+00  0.14093131002E+03  0.14093131002E+03  0.00000000000E+00 0.  1.
         21   -1    0    0  501  503 -0.00000000000E+00 -0.00000000000E+00 -0.34276024618E+03  0.34276024618E+03  0.00000000000E+00 0.  1.
          6    2    1    2  501    0 -0.60541987382E+02  0.62325021780E+02  0.15737941643E+02  0.19366137200E+03  0.17235806804E+03 0.  0.
         24    2    3    3    0    0 -0.10470832828E+02  0.15718855907E+02  0.68923444833E+02  0.10688555183E+03  0.79481816609E+02 0.  0.
         -6    2    1    2    0  502  0.60541987382E+02 -0.62325021780E+02 -0.21756687780E+03  0.29003018420E+03  0.17097491294E+03 0.  0.
        -24    2    5    5    0    0  0.32578542945E+02 -0.10412979354E+03 -0.19179210310E+03  0.23332020115E+03  0.75826974687E+02 0.  0.
          5    1    3    3  501    0 -0.50071154554E+02  0.46606165873E+02 -0.53185503190E+02  0.86775820165E+02  0.47000000000E+01 0. -1.
        -11    1    4    4    0    0 -0.32637607609E+02  0.29217139299E+02  0.68034740800E+02  0.80917121890E+02  0.00000000000E+00 0.  1.
         12    1    4    4    0    0  0.22166774781E+02 -0.13498283392E+02  0.88870403289E+00  0.25968429941E+02  0.00000000000E+00 0. -1.
         -5    1    5    5    0  502  0.27963444437E+02  0.41804771758E+02 -0.25774774699E+02  0.56709983048E+02  0.47000000000E+01 0.  1.
         11    1    6    6    0    0  0.15381933484E+02 -0.40788239236E+02 -0.17312946096E+02  0.46904396811E+02  0.00000000000E+00 0. -1.
        -12    1    6    6    0    0  0.17196609461E+02 -0.63341554302E+02 -0.17447915701E+03  0.18641580434E+03  0.00000000000E+00 0.  1.
</event>
<event>
12    1  0.8113184E-002  0.2049622E+03  0.7818608E-02  0.1145681E+00
         21   -1    0    0  501  502  0.00000000000E+00  0.00000000000E+00  0.25540082315E+03  0.25540082315E+03  0.00000000000E+00 0.  1.
         21   -1    0    0  502  503 -0.00000000000E+00 -0.00000000000E+00 -0.37907225027E+03  0.37907225027E+03  0.00000000000E+00 0.  1.
         -6    2    1    2    0  503  0.55922214586E+02 -0.95451129983E+02 -0.30063562814E+03  0.36368565214E+03  0.17218379823E+03 0.  0.
        -24    2    3    3    0    0 -0.23341289926E+02 -0.81599854223E+02 -0.22381346102E+03  0.25233801477E+03  0.79866490733E+02 0.  0.
          6    2    1    2  501    0 -0.55922214586E+02  0.95451129983E+02  0.17696420102E+03  0.27078742127E+03  0.17254357935E+03 0.  0.
         24    2    5    5    0    0  0.20927655112E+02  0.35945300797E+01  0.55462168943E+02  0.10011706293E+03  0.80600786040E+02 0.  0.
          5    1    5    5  501    0 -0.76849869698E+02  0.91856599904E+02  0.12150203208E+03  0.17067035834E+03  0.47000000000E+01 0. -1.
        -13    1    6    6    0    0  0.91596800987E+01  0.23207644868E+02 -0.12859167768E+02  0.28068714177E+02  0.00000000000E+00 0.  1.
         14    1    6    6    0    0  0.11767975013E+02 -0.19613114789E+02  0.68321336711E+02  0.72048348750E+02  0.00000000000E+00 0. -1.
         -5    1    3    3    0  503  0.79263504512E+02 -0.13851275760E+02 -0.76822167119E+02  0.11134763737E+03  0.47000000000E+01 0.  1.
         13    1    4    4    0    0  0.28590701588E+02 -0.21880182908E+02 -0.52880180364E+02  0.63972526108E+02  0.00000000000E+00 0. -1.
        -14    1    4    4    0    0 -0.51931991514E+02 -0.59719671316E+02 -0.17093328065E+03  0.18836548866E+03  0.00000000000E+00 0.  1.
</event>
<event>
12    1  0.8113184E-002  0.2062831E+03  0.7818608E-02  0.1147265E+00
         21   -1    0    0  501  502  0.00000000000E+00  0.00000000000E+00  0.33670539265E+03  0.33670539265E+03  0.00000000000E+00 0.  1.
         21   -1    0    0  502  503 -0.00000000000E+00 -0.00000000000E+00 -0.12167741798E+03  0.12167741798E+03  0.00000000000E+00 0.  1.
         -6    2    1    2    0  503 -0.16172851726E+02 -0.11245213803E+03  0.67431293979E+02  0.20473444694E+03  0.15640386784E+03 0.  0.
        -24    2    3    3    0    0 -0.61858999943E+02 -0.55339992776E+02  0.13814468025E+02  0.11392764488E+03  0.76808971264E+02 0.  0.
          6    2    1    2  501    0  0.16172851726E+02  0.11245213803E+03  0.14759668069E+03  0.25364836370E+03  0.17217917346E+03 0.  0.
         24    2    5    5    0    0 -0.39486899839E+02  0.11345754954E+03  0.75506749538E+02  0.16244492642E+03  0.79090164293E+02 0.  0.
          5    1    5    5  501    0  0.55659751565E+02 -0.10054115150E+01  0.72089931157E+02  0.91203437275E+02  0.47000000000E+01 0. -1.
        -11    1    6    6    0    0 -0.21677730351E+01  0.95060392416E+02  0.74551246454E+02  0.12082659390E+03  0.00000000000E+00 0.  1.
         12    1    6    6    0    0 -0.37319126804E+02  0.18397157128E+02  0.95550308380E+00  0.41618332522E+02  0.00000000000E+00 0. -1.
         -5    1    3    3    0  503  0.45686148217E+02 -0.57112145253E+02  0.53616825954E+02  0.90806802056E+02  0.47000000000E+01 0.  1.
         11    1    4    4    0    0 -0.15393196009E+02  0.19546441864E+02  0.13139946506E+01  0.24914663451E+02  0.00000000000E+00 0. -1.
        -12    1    4    4    0    0 -0.46465803933E+02 -0.74886434640E+02  0.12500473375E+02  0.89012981428E+02  0.00000000000E+00 0.  1.
</event>
<event>
12    1  0.8113184E-002  0.1808864E+03  0.7818608E-02  0.1167302E+00
         21   -1    0    0  503  502  0.00000000000E+00  0.00000000000E+00  0.25774036457E+03  0.25774036457E+03  0.00000000000E+00 0.  1.
         21   -1    0    0  501  503 -0.00000000000E+00 -0.00000000000E+00 -0.12707508913E+03  0.12707508913E+03  0.00000000000E+00 0.  1.
          6    2    1    2  501    0  0.14875155394E+02 -0.53965890015E+02  0.83916998926E+02  0.19940403412E+03  0.17200673993E+03 0.  0.
         24    2    3    3    0    0  0.41808450420E+02 -0.28211433227E+02  0.11750012372E+03  0.14901940653E+03  0.76528902759E+02 0.  0.
         -6    2    1    2    0  502 -0.14875155394E+02  0.53965890015E+02  0.46748276509E+02  0.18541141958E+03  0.17046526221E+03 0.  0.
        -24    2    5    5    0    0 -0.60840009466E+02  0.68802629258E+01  0.63389112494E+02  0.11737590304E+03  0.77524694536E+02 0.  0.
          5    1    3    3  501    0 -0.26933295026E+02 -0.25754456788E+02 -0.33583124798E+02  0.50384627582E+02  0.47000000000E+01 0. -1.
        -13    1    4    4    0    0  0.98672613556E+01 -0.12241434963E+02  0.11174720246E+03  0.11284791905E+03  0.00000000000E+00 0.  1.
         14    1    4    4    0    0  0.31941189065E+02 -0.15969998265E+02  0.57529212602E+01  0.36171487480E+02  0.00000000000E+00 0. -1.
         -5    1    5    5    0  502  0.45964854072E+02  0.47085627090E+02 -0.16640835985E+02  0.68035516538E+02  0.47000000000E+01 0.  1.
         13    1    6    6    0    0 -0.61037856816E+02  0.34463819139E+02  0.53091208320E+02  0.87932082855E+02  0.00000000000E+00 0. -1.
        -14    1    6    6    0    0  0.19784734930E+00 -0.27583556214E+02  0.10297904173E+02  0.29443820189E+02  0.00000000000E+00 0.  1.
</event>
<event>
12    1  0.8113184E-002  0.1819532E+03  0.7818608E-02  0.1166452E+00
         21   -1    0    0  501  502  0.00000000000E+00  0.00000000000E+00  0.60257426661E+03  0.60257426661E+03  0.00000000000E+00 0. -1.
         21   -1    0    0  502  503 -0.00000000000E+00 -0.00000000000E+00 -0.58070857363E+03  0.58070857363E+03  0.00000000000E+00 0. -1.
         -6    2    1    2    0  503  0.44602917474E+02 -0.24132319586E+02 -0.55238277261E+03  0.58089737446E+03  0.17246229466E+03 0.  0.
        -24    2    3    3    0    0  0.67784741599E+02 -0.95376875896E+01 -0.18714303517E+03  0.21460165231E+03  0.79659367854E+02 0.  0.
          6    2    1    2  501    0 -0.44602917474E+02  0.24132319586E+02  0.57424846559E+03  0.60238546578E+03  0.17474312591E+03 0.  0.
         24    2    5    5    0    0 -0.56620363364E+02  0.49246706116E+02  0.18994527839E+03  0.21704641883E+03  0.73476768645E+02 0.  0.
          5    1    5    5  501    0  0.12017445890E+02 -0.25114386530E+02  0.38430318720E+03  0.38533904695E+03  0.47000000000E+01 0. -1.
        -11    1    6    6    0    0 -0.37076684280E+02 -0.12514339666E+02  0.56749104283E+02  0.68932938798E+02  0.00000000000E+00 0.  1.
         12    1    6    6    0    0 -0.19543679085E+02  0.61761045782E+02  0.13319617411E+03  0.14811348003E+03  0.00000000000E+00 0. -1.
         -5    1    3    3    0  503 -0.23181824125E+02 -0.14594631997E+02 -0.36523973745E+03  0.36629572215E+03  0.47000000000E+01 0.  1.
         13    1    4    4    0    0  0.63389007262E+02 -0.27091726126E+02 -0.18366307922E+03  0.19617404144E+03  0.00000000000E+00 0. -1.
        -14    1    4    4    0    0  0.43957343360E+01  0.17554038536E+02 -0.34799559498E+01  0.18427610879E+02  0.00000000000E+00 0.  1.
</event>
<event>
12    1  0.8113184E-002  0.1845149E+03  0.7818608E-02  0.1163535E+00
         21   -1    0    0  501  502  0.00000000000E+00  0.00000000000E+00  0.38901871017E+03  0.38901871017E+03  0.00000000000E+00 0.  1.
         21   -1    0    0  502  503 -0.00000000000E+00 -0.00000000000E+00 -0.14674762671E+03  0.14674762671E+03  0.00000000000E+00 0.  1.
         -6    2    1    2    0  503  0.89241528286E+01 -0.65559974485E+02 -0.49171872005E+02  0.19082469526E+03  0.17210008881E+03 0.  0.
        -24    2    3    3    0    0  0.48677368837E+01  0.31636573974E+02 -0.27660799272E+02  0.91082829464E+02  0.80662223696E+02 0.  0.
          6    2    1    2  501    0 -0.89241528286E+01  0.65559974485E+02  0.29144295547E+03  0.34494164162E+03  0.17224398125E+03 0.  0.
         24    2    5    5    0    0 -0.11701363856E+02  0.11113519553E+03  0.23291859812E+03  0.27056419828E+03  0.80411183554E+02 0.  0.
          5    1    5    5  501    0  0.27772110278E+01 -0.45575221049E+02  0.58524357350E+02  0.74377443341E+02  0.47000000000E+01 0. -1.
        -11    1    6    6    0    0 -0.26994339262E+02  0.15665257488E+01  0.46420400525E+02  0.53721522131E+02  0.00000000000E+00 0.  1.
         12    1    6    6    0    0  0.15292975406E+02  0.10956866979E+03  0.18649819759E+03  0.21684267615E+03  0.00000000000E+00 0. -1.
         -5    1    3    3    0  503  0.40564159449E+01 -0.97196548459E+02 -0.21511072733E+02  0.99741865797E+02  0.47000000000E+01 0.  1.
         13    1    4    4    0    0 -0.21700593805E+02 -0.18359255837E+02 -0.84721327935E+00  0.28437577546E+02  0.00000000000E+00 0. -1.
        -14    1    4    4    0    0  0.26568330688E+02  0.49995829811E+02 -0.26813585993E+02  0.62645251918E+02  0.00000000000E+00 0.  1.
</event>
<event>
12    1  0.8113184E-002  0.1827236E+03  0.7818608E-02  0.1166686E+00
         21   -1    0    0  503  502  0.00000000000E+00  0.00000000000E+00  0.48500677924E+03  0.48500677924E+03  0.00000000000E+00 0.  1.
         21   -1    0    0  501  503 -0.00000000000E+00 -0.00000000000E+00 -0.13885641411E+03  0.13885641411E+03  0.00000000000E+00 0.  1.
          6    2    1    2  501    0 -0.30666058411E+02  0.24818612548E+02 -0.53458231504E+02  0.18446024719E+03  0.17207971877E+03 0.  0.
         24    2    3    3    0    0 -0.21232369865E+01 -0.11195418452E+02  0.32205628701E+02  0.87135584188E+02  0.80159603182E+02 0.  0.
         -6    2    1    2    0  502  0.30666058411E+02 -0.24818612548E+02  0.39960859663E+03  0.43940294616E+03  0.17841397906E+03 0.  0.
        -24    2    5    5    0    0 -0.30940506540E+02 -0.63040676870E+02  0.19046017520E+03  0.21799507089E+03  0.79469055028E+02 0.  0.
          5    1    3    3  501    0 -0.28542821425E+02  0.36014031000E+02 -0.85663860205E+02  0.97324663005E+02  0.47000000000E+01 0. -1.
        -11    1    4    4    0    0  0.60084361021E+01  0.29611611902E+02 -0.58173384151E+01  0.30769957590E+02  0.00000000000E+00 0.  1.
         12    1    4    4    0    0 -0.81316730886E+01 -0.40807030354E+02  0.38022967116E+02  0.56365626598E+02  0.00000000000E+00 0. -1.
         -5    1    5    5    0  502  0.61606564952E+02  0.38222064321E+02  0.20914842143E+03  0.22140787527E+03  0.47000000000E+01 0.  1.
         13    1    6    6    0    0 -0.22955703188E+02 -0.41127037458E+02  0.29986459622E+02  0.55835340776E+02  0.00000000000E+00 0. -1.
        -14    1    6    6    0    0 -0.79848033525E+01 -0.21913639411E+02  0.16047371558E+03  0.16215973011E+03  0.00000000000E+00 0.  1.
</event>
<event>
12    1  0.8113184E-002  0.1850944E+03  0.7818608E-02  0.1162969E+00
         21   -1    0    0  501  502  0.00000000000E+00  0.00000000000E+00  0.74301527671E+02  0.74301527671E+02  0.00000000000E+00 0. -1.
         21   -1    0    0  502  503 -0.00000000000E+00 -0.00000000000E+00 -0.18665169203E+04  0.18665169203E+04  0.00000000000E+00 0. -1.
         -6    2    1    2    0  503  0.65292683123E+02  0.29767644084E+02 -0.17382090144E+04  0.17480361922E+04  0.17061859270E+03 0.  0.
        -24    2    3    3    0    0  0.21140635153E+02 -0.45555909922E+02 -0.10364330890E+04  0.10408342545E+04  0.81364181193E+02 0.  0.
          6    2    1    2  501    0 -0.65292683123E+02 -0.29767644084E+02 -0.54006378155E+02  0.19278225576E+03  0.17058447218E+03 0.  0.
         24    2    5    5    0    0 -0.97109853062E+02 -0.82984072572E+01 -0.77284425869E+02  0.14764670505E+03  0.79545458099E+02 0.  0.
          5    1    5    5  501    0  0.31817169939E+02 -0.21469236826E+02  0.23278047714E+02  0.45135550713E+02  0.47000000000E+01 0. -1.
        -13    1    6    6    0    0 -0.10375068166E+02  0.78169630096E+01 -0.55196347456E+02  0.56704353648E+02  0.00000000000E+00 0.  1.
         14    1    6    6    0    0 -0.86734784896E+02 -0.16115370267E+02 -0.22088078413E+02  0.90942351398E+02  0.00000000000E+00 0. -1.
         -5    1    3    3    0  503  0.44152047971E+02  0.75323554005E+02 -0.70177592545E+03  0.70720193768E+03  0.47000000000E+01 0.  1.
         11    1    4    4    0    0  0.28260372755E+01 -0.20656985742E+02 -0.92385010805E+03  0.92408534221E+03  0.00000000000E+00 0. -1.
        -12    1    4    4    0    0  0.18314597877E+02 -0.24898924179E+02 -0.11258298095E+03  0.11674891229E+03  0.00000000000E+00 0.  1.
</event>
<event>
12    1  0.8113184E-002  0.2103859E+03  0.7818608E-02  0.1141352E+00
         21   -1    0    0  503  502  0.00000000000E+00  0.00000000000E+00  0.57456852510E+03  0.57456852510E+03  0.00000000000E+00 0.  1.
         21   -1    0    0  501  503 -0.00000000000E+00 -0.00000000000E+00 -0.97292210694E+02  0.97292210694E+02  0.00000000000E+00 0.  1.
          6    2    1    2  501    0  0.12149756725E+03  0.65760653933E+00  0.84924519111E+02  0.22687970716E+03  0.17175603710E+03 0.  0.
         24    2    3    3    0    0  0.13993720690E+03 -0.37040150781E+02  0.56273327281E+02  0.17584910839E+03  0.82473189067E+02 0.  0.
         -6    2    1    2    0  502 -0.12149756725E+03 -0.65760653933E+00  0.39235179530E+03  0.44498102864E+03  0.17119022543E+03 0.  0.
        -24    2    5    5    0    0 -0.57236809263E+02  0.53852534278E+02  0.24316009165E+03  0.27357200056E+03  0.97666071583E+02 0.  0.
          5    1    3    3  501    0 -0.18439639650E+02  0.37697757320E+02  0.28651191830E+02  0.51030598768E+02  0.47000000000E+01 0. -1.
        -13    1    4    4    0    0  0.14660110770E+03 -0.20058322673E+02  0.46208936199E+02  0.15501447310E+03  0.00000000000E+00 0.  1.
         14    1    4    4    0    0 -0.66639008010E+01 -0.16981828108E+02  0.10064391082E+02  0.20834635289E+02  0.00000000000E+00 0. -1.
         -5    1    5    5    0  502 -0.64260757982E+02 -0.54510140817E+02  0.14919170365E+03  0.17140902808E+03  0.47000000000E+01 0.  1.
         11    1    6    6    0    0 -0.75790379309E+02  0.84577454159E+01  0.15202534257E+03  0.17008062746E+03  0.00000000000E+00 0. -1.
        -12    1    6    6    0    0  0.18553570046E+02  0.45394788862E+02  0.91134749080E+02  0.10349137310E+03  0.00000000000E+00 0.  1.
</event>
<event>
12    1  0.8113184E-002  0.2490780E+03  0.7818608E-02  0.1114227E+00
         21   -1    0    0  501  502  0.00000000000E+00  0.00000000000E+00  0.21629507174E+03  0.21629507174E+03  0.00000000000E+00 0. -1.
         21   -1    0    0  502  503 -0.00000000000E+00 -0.00000000000E+00 -0.56034237547E+03  0.56034237547E+03  0.00000000000E+00 0. -1.
         -6    2    1    2    0  503 -0.77449947217E+02  0.16248568789E+03 -0.44415459864E+03  0.50819506939E+03  0.16908231121E+03 0.  0.
        -24    2    3    3    0    0 -0.91563095705E+02  0.17291066223E+03 -0.44135884626E+03  0.48981662327E+03  0.82709102586E+02 0.  0.
          6    2    1    2  501    0  0.77449947217E+02 -0.16248568789E+03  0.10010729491E+03  0.26844237781E+03  0.17216197785E+03 0.  0.
         24    2    5    5    0    0  0.39130861384E+02 -0.76094448585E+02  0.12477769523E+03  0.17065425369E+03  0.78941824521E+02 0.  0.
          5    1    5    5  501    0  0.38319085834E+02 -0.86391239302E+02 -0.24670400316E+02  0.97788124121E+02  0.47000000000E+01 0. -1.
        -11    1    6    6    0    0 -0.56070409772E+01  0.65479350735E+01 -0.53465293970E+01  0.10143950850E+02  0.00000000000E+00 0.  1.
         12    1    6    6    0    0  0.44737902361E+02 -0.82642383659E+02  0.13012422462E+03  0.16051030284E+03  0.00000000000E+00 0. -1.
         -5    1    3    3    0  503  0.14113148488E+02 -0.10424974344E+02 -0.27957523777E+01  0.18378446117E+02  0.47000000000E+01 0.  1.
         13    1    4    4    0    0 -0.40190608185E+02  0.15149133858E+03 -0.32204105429E+03  0.35815548481E+03  0.00000000000E+00 0. -1.
        -14    1    4    4    0    0 -0.51372487521E+02  0.21419323650E+02 -0.11931779197E+03  0.13166113846E+03  0.00000000000E+00 0.  1.
</event>
<event>
12    1  0.8113184E-002  0.2557647E+03  0.7818608E-02  0.1109819E+00
         21   -1    0    0  501  502  0.00000000000E+00  0.00000000000E+00  0.52021852607E+02  0.52021852607E+02  0.00000000000E+00 0.  1.
         21   -1    0    0  502  503 -0.00000000000E+00 -0.00000000000E+00 -0.12742579217E+04  0.12742579217E+04  0.00000000000E+00 0. -1.
         -6    2    1    2    0  503  0.84592845482E+02 -0.16887916652E+03 -0.52856747509E+03  0.58719602529E+03  0.17245136706E+03 0.  0.
        -24    2    3    3    0    0  0.56902593237E+02 -0.52034063644E+02 -0.38562948060E+03  0.40045318499E+03  0.75546066499E+02 0.  0.
          6    2    1    2  501    0 -0.84592845482E+02  0.16887916652E+03 -0.69366859400E+03  0.73908374902E+03  0.17144254830E+03 0.  0.
         24    2    5    5    0    0 -0.55304520864E+02  0.11095721052E+03 -0.25064499221E+03  0.29130616953E+03  0.81647288336E+02 0.  0.
          5    1    5    5  501    0 -0.29288324618E+02  0.57921955993E+02 -0.44302360179E+03  0.44777757949E+03  0.47000000000E+01 0. -1.
        -11    1    6    6    0    0 -0.44379289963E+02  0.85155317106E+01 -0.69029434852E+02  0.82505142470E+02  0.00000000000E+00 0.  1.
         12    1    6    6    0    0 -0.10925230901E+02  0.10244167881E+03 -0.18161555735E+03  0.20880102706E+03  0.00000000000E+00 0. -1.
         -5    1    3    3    0  503  0.27690252245E+02 -0.11684510287E+03 -0.14293799449E+03  0.18674284030E+03  0.47000000000E+01 0.  1.
         13    1    4    4    0    0  0.54488458032E+02  0.77092949798E+00 -0.17475351166E+03  0.18305293286E+03  0.00000000000E+00 0. -1.
        -14    1    4    4    0    0  0.24141352052E+01 -0.52804993142E+02 -0.21087596894E+03  0.21740025213E+03  0.00000000000E+00 0.  1.
</event>
<event>
12    1  0.8113184E-002  0.2065556E+03  0.7818608E-02  0.1145001E+00
         21   -1    0    0  501  502  0.00000000000E+00  0.00000000000E+00  0.16806421069E+03  0.16806421069E+03  0.00000000000E+00 0. -1.
         21   -1    0    0  502  503 -0.00000000000E+00 -0.00000000000E+00 -0.27439055382E+03  0.27439055382E+03  0.00000000000E+00 0.  1.
         -6    2    1    2    0  503  0.88333888356E+01  0.11067307794E+03 -0.11978912968E+03  0.23877742982E+03  0.17417998296E+03 0.  0.
        -24    2    3    3    0    0  0.59966726793E+02  0.37710534099E+02 -0.10272390169E+03  0.14793986567E+03  0.79472707091E+02 0.  0.
          6    2    1    2  501    0 -0.88333888356E+01 -0.11067307794E+03  0.13462786554E+02  0.20367733469E+03  0.17022529514E+03 0.  0.
         24    2    5    5    0    0 -0.44249706257E+02 -0.68620926907E+02 -0.43362605215E+02  0.12446929156E+03  0.83339191848E+02 0.  0.
          5    1    5    5  501    0  0.35416317421E+02 -0.42052151032E+02  0.56825391769E+02  0.79208043125E+02  0.47000000000E+01 0. -1.
        -11    1    6    6    0    0 -0.97995009598E+01 -0.79836033528E+02 -0.30515194830E+02  0.86029062438E+02  0.00000000000E+00 0.  1.
         12    1    6    6    0    0 -0.34450205297E+02  0.11215106621E+02 -0.12847410385E+02  0.38440229124E+02  0.00000000000E+00 0. -1.
         -5    1    3    3    0  503 -0.51133337957E+02  0.72962543839E+02 -0.17065227992E+02  0.90837564149E+02  0.47000000000E+01 0.  1.
         11    1    4    4    0    0  0.28397549462E+02  0.28635795659E+02 -0.24968749231E+00  0.40329789887E+02  0.00000000000E+00 0. -1.
        -12    1    4    4    0    0  0.31569177331E+02  0.90747384407E+01 -0.10247421420E+03  0.10761007579E+03  0.00000000000E+00 0.  1.
</event>
<event>
12    1  0.8113184E-002  0.2068609E+03  0.7818608E-02  0.1144118E+00
         21   -1    0    0  503  502  0.00000000000E+00  0.00000000000E+00  0.11656523004E+04  0.11656523004E+04  0.00000000000E+00 0. -1.
         21   -1    0    0  501  503 -0.00000000000E+00 -0.00000000000E+00 -0.36702629065E+02  0.36702629065E+02  0.00000000000E+00 0.  1.
          6    2    1    2  501    0  0.52375714984E+02  0.10337046684E+03  0.58154647495E+03  0.61724205347E+03  0.17135571517E+03 0.  0.
         24    2    3    3    0    0  0.11278052707E+02  0.73290068434E+01  0.39781194791E+03  0.40583380788E+03  0.79156963675E+02 0.  0.
         -6    2    1    2    0  502 -0.52375714984E+02 -0.10337046684E+03  0.54740319636E+03  0.58511287596E+03  0.17110858919E+03 0.  0.
        -24    2    5    5    0    0 -0.49342058519E+02 -0.56686980699E+02  0.51754342154E+03  0.52941505641E+03  0.82347169096E+02 0.  0.
          5    1    3    3  501    0  0.41097662277E+02  0.96041460000E+02  0.18373452703E+03  0.21140824560E+03  0.47000000000E+01 0. -1.
        -13    1    4    4    0    0  0.20243195642E+02 -0.25365605133E+02  0.81706012407E+02  0.87915148621E+02  0.00000000000E+00 0.  1.
         14    1    4    4    0    0 -0.89651429351E+01  0.32694611977E+02  0.31610593551E+03  0.31791865926E+03  0.00000000000E+00 0. -1.
         -5    1    5    5    0  502 -0.30336564655E+01 -0.46683486144E+02  0.29859774821E+02  0.55697819549E+02  0.47000000000E+01 0.  1.
         11    1    6    6    0    0 -0.33131899076E+02  0.13269413045E+02  0.24429384589E+03  0.24688718719E+03  0.00000000000E+00 0. -1.
        -12    1    6    6    0    0 -0.16210159442E+02 -0.69956393744E+02  0.27324957565E+03  0.28252786923E+03  0.00000000000E+00 0.  1.
</event>
<event>
12    1  0.8113184E-002  0.1906877E+03  0.7818608E-02  0.1158252E+00
         21   -1    0    0  503  502  0.00000000000E+00  0.00000000000E+00  0.23822173707E+03  0.23822173707E+03  0.00000000000E+00 0. -1.
         21   -1    0    0  501  503 -0.00000000000E+00 -0.00000000000E+00 -0.41910732807E+03  0.41910732807E+03  0.00000000000E+00 0. -1.
          6    2    1    2  501    0  0.59122298355E+02  0.56472678168E+02 -0.35337727424E+03  0.40154365507E+03  0.17227071556E+03 0.  0.
         24    2    3    3    0    0  0.38270675267E+02  0.36772647617E+02 -0.76596460559E+02  0.12324060046E+03  0.80649585443E+02 0.  0.
         -6    2    1    2    0  502 -0.59122298355E+02 -0.56472678168E+02  0.17249168323E+03  0.25578541008E+03  0.17025917209E+03 0.  0.
        -24    2    5    5    0    0  0.57210805687E+01 -0.21360419338E+01  0.23661124002E+02  0.84526076931E+02  0.80916719251E+02 0.  0.
          5    1    3    3  501    0  0.20851623088E+02  0.19700030551E+02 -0.27678081368E+03  0.27830305462E+03  0.47000000000E+01 0. -1.
        -13    1    4    4    0    0  0.39965607709E+02 -0.15516177898E+02 -0.44855076731E+02  0.62048202913E+02  0.00000000000E+00 0.  1.
         14    1    4    4    0    0 -0.16949324425E+01  0.52288825515E+02 -0.31741383828E+02  0.61192397542E+02  0.00000000000E+00 0. -1.
         -5    1    5    5    0  502 -0.64843378923E+02 -0.54336636234E+02  0.14883055923E+03  0.17125933314E+03  0.47000000000E+01 0.  1.
         13    1    6    6    0    0 -0.55151701856E+01 -0.30607212848E+01  0.52855429459E+02  0.53230456886E+02  0.00000000000E+00 0. -1.
        -14    1    6    6    0    0  0.11236250754E+02  0.92467935094E+00 -0.29194305457E+02  0.31295620046E+02  0.00000000000E+00 0.  1.
</event>
<event>
12    1  0.8113184E-002  0.2374944E+03  0.7818608E-02  0.1122162E+00
         21   -1    0    0  501  502  0.00000000000E+00  0.00000000000E+00  0.10622184442E+04  0.10622184442E+04  0.00000000000E+00 0. -1.
         21   -1    0    0  502  503 -0.00000000000E+00 -0.00000000000E+00 -0.66212334685E+02  0.66212334685E+02  0.00000000000E+00 0. -1.
         -6    2    1    2    0  503  0.16893854330E+02  0.15759737549E+03  0.23508015045E+03  0.33130349504E+03  0.17139718088E+03 0.  0.
        -24    2    3    3    0    0  0.19905025824E+02  0.15691244138E+03  0.25513187867E+03  0.31047807564E+03  0.79288307002E+02 0.  0.
          6    2    1    2  501    0 -0.16893854330E+02 -0.15759737549E+03  0.76092595911E+03  0.79712728389E+03  0.17686507964E+03 0.  0.
         24    2    5    5    0    0  0.11786916325E+02 -0.21375323525E+02  0.15292512472E+03  0.17337561963E+03  0.77956243233E+02 0.  0.
          5    1    5    5  501    0 -0.28680770655E+02 -0.13622205197E+03  0.60800083439E+03  0.62375166426E+03  0.47000000000E+01 0. -1.
        -13    1    6    6    0    0  0.32205638285E+01  0.36310524976E+01  0.14595963417E+03  0.14604030739E+03  0.00000000000E+00 0.  1.
         14    1    6    6    0    0  0.85663524961E+01 -0.25006376022E+02  0.69654905464E+01  0.27335312243E+02  0.00000000000E+00 0. -1.
         -5    1    3    3    0  503 -0.30111714939E+01  0.68493411478E+00 -0.20051728221E+02  0.20825419400E+02  0.47000000000E+01 0.  1.
         13    1    4    4    0    0 -0.18617458285E+02  0.68191492208E+02  0.60115830284E+02  0.92793331729E+02  0.00000000000E+00 0. -1.
        -14    1    4    4    0    0  0.38522484110E+02  0.88720949169E+02  0.19501604839E+03  0.21768474391E+03  0.00000000000E+00 0.  1.
</event>
<event>
12    1  0.8113184E-002  0.1778690E+03  0.7818608E-02  0.1170454E+00
         21   -1    0    0  503  502  0.00000000000E+00  0.00000000000E+00  0.71643994579E+03  0.71643994579E+03  0.00000000000E+00 0.  1.
         21   -1    0    0  501  503 -0.00000000000E+00 -0.00000000000E+00 -0.44707803191E+02  0.44707803191E+02  0.00000000000E+00 0.  1.
          6    2    1    2  501    0  0.35951431877E+02 -0.60405079341E+01  0.39826845872E+03  0.43618248367E+03  0.17409308045E+03 0.  0.
         24    2    3    3    0    0 -0.27576562185E+02  0.40729965346E+01  0.33411638470E+03  0.34521178728E+03  0.82221429466E+02 0.  0.
         -6    2    1    2    0  502 -0.35951431877E+02  0.60405079341E+01  0.27346368388E+03  0.32496526531E+03  0.17172956666E+03 0.  0.
        -24    2    5    5    0    0  0.21323258663E+02  0.68584708550E+01  0.57597225216E+02  0.10157887983E+03  0.80617048404E+02 0.  0.
          5    1    3    3  501    0  0.63527994062E+02 -0.10113504469E+02  0.64152074016E+02  0.90970696396E+02  0.47000000000E+01 0. -1.
        -13    1    4    4    0    0 -0.18304156313E+02 -0.35445754522E+02  0.10109661721E+03  0.10868288579E+03  0.00000000000E+00 0.  1.
         14    1    4    4    0    0 -0.92724058716E+01  0.39518751056E+02  0.23301976749E+03  0.23652890149E+03  0.00000000000E+00 0. -1.
         -5    1    5    5    0  502 -0.57274690540E+02 -0.81796292096E+00  0.21586645866E+03  0.22338638547E+03  0.47000000000E+01 0.  1.
         13    1    6    6    0    0 -0.26349729047E+02  0.36170219106E+01  0.44819322440E+02  0.52116818133E+02  0.00000000000E+00 0. -1.
        -14    1    6    6    0    0  0.47672987710E+02  0.32414489444E+01  0.12777902776E+02  0.49462061701E+02  0.00000000000E+00 0.  1.
</event>
<event>
12    1  0.8113184E-002  0.2901294E+03  0.7818608E-02  0.1090324E+00
         21   -1    0    0  501  502  0.00000000000E+00  0.00000000000E+00  0.64618718377E+02  0.64618718377E+02  0.00000000000E+00 0.  1.
         21   -1    0    0  502  503 -0.00000000000E+00 -0.00000000000E+00 -0.14565384360E+04  0.14565384360E+04  0.00000000000E+00 0. -1.
         -6    2    1    2    0  503 -0.96210533039E+02  0.21272972609E+03 -0.94471664899E+03  0.98826344637E+03  0.17223440283E+03 0.  0.
        -24    2    3    3    0    0 -0.13157969729E+02  0.14663883846E+03 -0.72410492487E+03  0.74340153321E+03  0.81497338813E+02 0.  0.
          6    2    1    2  501    0  0.96210533039E+02 -0.21272972609E+03 -0.44720306865E+03  0.53289370802E+03  0.17168202123E+03 0.  0.
         24    2    5    5    0    0  0.71060271192E+02 -0.22944025015E+03 -0.42626304427E+03  0.49584843968E+03  0.80455588356E+02 0.  0.
          5    1    5    5  501    0  0.25150261847E+02  0.16710524061E+02 -0.20940024382E+02  0.37045268341E+02  0.47000000000E+01 0. -1.
        -11    1    6    6    0    0  0.59950231815E+02 -0.15575356427E+03 -0.21728704974E+03  0.27398332990E+03  0.00000000000E+00 0.  1.
         12    1    6    6    0    0  0.11110039377E+02 -0.73686685879E+02 -0.20897599453E+03  0.22186510978E+03  0.00000000000E+00 0. -1.
         -5    1    3    3    0  503 -0.83052563310E+02  0.66090887629E+02 -0.22061172412E+03  0.24486191316E+03  0.47000000000E+01 0.  1.
         11    1    4    4    0    0 -0.40574335375E+02  0.79169474959E+02 -0.49719558118E+03  0.50509160397E+03  0.00000000000E+00 0. -1.
        -12    1    4    4    0    0  0.27416365646E+02  0.67469363503E+02 -0.22690934369E+03  0.23830992923E+03  0.00000000000E+00 0.  1.
</event>
<event>
12    1  0.8113184E-002  0.1730072E+03  0.7818608E-02  0.1175967E+00
         21   -1    0    0  503  502  0.00000000000E+00  0.00000000000E+00  0.20654532944E+03  0.20654532944E+03  0.00000000000E+00 0. -1.
         21   -1    0    0  501  503 -0.00000000000E+00 -0.00000000000E+00 -0.27326963838E+03  0.27326963838E+03  0.00000000000E+00 0. -1.
          6    2    1    2  501    0  0.33889891314E+01  0.19408852137E+02 -0.20050479614E+03  0.26482764362E+03  0.17188169990E+03 0.  0.
         24    2    3    3    0    0  0.24658809175E+01  0.67697639765E+02 -0.18583973401E+03  0.21413431875E+03  0.82024683661E+02 0.  0.
         -6    2    1    2    0  502 -0.33889891314E+01 -0.19408852137E+02  0.13378048721E+03  0.21498732420E+03  0.16713510110E+03 0.  0.
        -24    2    5    5    0    0  0.40573094477E+02 -0.33799649326E+02  0.13575976844E+03  0.16844951813E+03  0.84592748763E+02 0.  0.
          5    1    3    3  501    0  0.92310821386E+00 -0.48288787628E+02 -0.14665062131E+02  0.50693324873E+02  0.47000000000E+01 0. -1.
        -11    1    4    4    0    0 -0.29153418123E+02  0.63759219142E+02 -0.96471926072E+02  0.11925599496E+03  0.00000000000E+00 0.  1.
         12    1    4    4    0    0  0.31619299041E+02  0.39384206225E+01 -0.89367807941E+02  0.94878323789E+02  0.00000000000E+00 0. -1.
         -5    1    5    5    0  502 -0.43962083609E+02  0.14390797189E+02 -0.19792812294E+01  0.46537806063E+02  0.47000000000E+01 0.  1.
         11    1    6    6    0    0  0.56675360428E+01 -0.50310227388E+02  0.37886717551E+02  0.63234826729E+02  0.00000000000E+00 0. -1.
        -12    1    6    6    0    0  0.34905558434E+02  0.16510578062E+02  0.97873050887E+02  0.10521469141E+03  0.00000000000E+00 0.  1.
</event>
<event>
12    1  0.8113184E-002  0.1913026E+03  0.7818608E-02  0.1157639E+00
         21   -1    0    0  503  502  0.00000000000E+00  0.00000000000E+00  0.13835988811E+03  0.13835988811E+03  0.00000000000E+00 0. -1.
         21   -1    0    0  501  503 -0.00000000000E+00 -0.00000000000E+00 -0.65862875317E+03  0.65862875317E+03  0.00000000000E+00 0. -1.
          6    2    1    2  501    0  0.28071019725E+01  0.82781586628E+02 -0.56880810096E+03  0.59962413077E+03  0.17072132725E+03 0.  0.
         24    2    3    3    0    0  0.57143026996E+02  0.46120044401E+02 -0.45832109925E+03  0.47107091622E+03  0.80356667760E+02 0.  0.
         -6    2    1    2    0  502 -0.28071019725E+01 -0.82781586628E+02  0.48539235898E+02  0.19736451050E+03  0.17244135721E+03 0.  0.
        -24    2    5    5    0    0 -0.14139987823E+02 -0.12153840930E+03  0.40744362905E+02  0.15597156846E+03  0.87724015348E+02 0.  0.
          5    1    3    3  501    0 -0.54335925023E+02  0.36661542227E+02 -0.11048700171E+03  0.12855321456E+03  0.47000000000E+01 0. -1.
        -11    1    4    4    0    0  0.21825958677E+02 -0.40636909592E+01 -0.30669880758E+03  0.30750129208E+03  0.00000000000E+00 0.  1.
         12    1    4    4    0    0  0.35317068319E+02  0.50183735360E+02 -0.15162229167E+03  0.16356962414E+03  0.00000000000E+00 0. -1.
         -5    1    5    5    0  502  0.11332885851E+02  0.38756822675E+02  0.77948729937E+01  0.41392942038E+02  0.47000000000E+01 0.  1.
         13    1    6    6    0    0  0.11272687657E+02 -0.91939527223E+02 -0.86482833354E+01  0.93030870993E+02  0.00000000000E+00 0. -1.
        -14    1    6    6    0    0 -0.25412675480E+02 -0.29598882080E+02  0.49392646240E+02  0.62940697470E+02  0.00000000000E+00 0.  1.
</event>
<event>
12    1  0.8113184E-002  0.1911479E+03  0.7818608E-02  0.1157973E+00
         21   -1    0    0  503  502  0.00000000000E+00  0.00000000000E+00  0.54717408277E+03  0.54717408277E+03  0.00000000000E+00 0.  1.
         21   -1    0    0  501  503 -0.00000000000E+00 -0.00000000000E+00 -0.69464841777E+02  0.69464841777E+02  0.00000000000E+00 0. -1.
          6    2    1    2  501    0 -0.80088920892E+02  0.20392292121E+02  0.30978056036E+03  0.36400756515E+03  0.17235843781E+03 0.  0.
         24    2    3    3    0    0 -0.81342895092E+02  0.73304086500E+02  0.24443949756E+03  0.27978895127E+03  0.80876656763E+02 0.  0.
         -6    2    1    2    0  502  0.80088920892E+02 -0.20392292121E+02  0.16792868063E+03  0.25263135939E+03  0.16968347339E+03 0.  0.
        -24    2    5    5    0    0 -0.91710041781E+01  0.29094400924E+02  0.67913730569E+02  0.10965811977E+03  0.80511098296E+02 0.  0.
          5    1    3    3  501    0  0.12539742002E+01 -0.52911794379E+02  0.65341062805E+02  0.84218613882E+02  0.47000000000E+01 0. -1.
        -13    1    4    4    0    0 -0.28202020882E+02  0.17537611862E+02  0.16806037364E+03  0.17131027699E+03  0.00000000000E+00 0.  1.
         14    1    4    4    0    0 -0.53140874210E+02  0.55766474638E+02  0.76379123912E+02  0.10847867429E+03  0.00000000000E+00 0. -1.
         -5    1    5    5    0  502  0.89259925070E+02 -0.49486693045E+02  0.10001495006E+03  0.14297323962E+03  0.47000000000E+01 0.  1.
         11    1    6    6    0    0  0.35013475343E+02  0.20930003393E+02  0.27246169148E+02  0.49054686125E+02  0.00000000000E+00 0. -1.
        -12    1    6    6    0    0 -0.44184479521E+02  0.81643975312E+01  0.40667561421E+02  0.60603433644E+02  0.00000000000E+00 0.  1.
</event>
<event>
12    1  0.8113184E-002  0.2018426E+03  0.7818608E-02  0.1151821E+00
         21   -1    0    0  501  502  0.00000000000E+00  0.00000000000E+00  0.37516715085E+03  0.37516715085E+03  0.00000000000E+00 0. -1.
         21   -1    0    0  502  503 -0.00000000000E+00 -0.00000000000E+00 -0.15985732987E+03  0.15985732987E+03  0.00000000000E+00 0. -1.
         -6    2    1    2    0  503  0.61784766470E+02  0.86038770322E+02 -0.53286292855E+02  0.20875789581E+03  0.17181502463E+03 0.  0.
        -24    2    3    3    0    0  0.64868258579E+02 -0.32798411095E+01  0.73361745075E+01  0.10066304939E+03  0.76554436372E+02 0.  0.
          6    2    1    2  501    0 -0.61784766470E+02 -0.86038770322E+02  0.26859611383E+03  0.32626658491E+03  0.15194072759E+03 0.  0.
         24    2    5    5    0    0 -0.70498528927E+02 -0.86389392906E+01  0.15405179762E+03  0.18766949304E+03  0.80269598321E+02 0.  0.
          5    1    5    5  501    0  0.87137624569E+01 -0.77399831032E+02  0.11454431620E+03  0.13859709187E+03  0.47000000000E+01 0. -1.
        -11    1    6    6    0    0 -0.46450914891E+02 -0.11037416894E+02  0.20517809445E+02  0.51966263770E+02  0.00000000000E+00 0.  1.
         12    1    6    6    0    0 -0.24047614037E+02  0.23984776031E+01  0.13353398818E+03  0.13570322927E+03  0.00000000000E+00 0. -1.
         -5    1    3    3    0  503 -0.30834921092E+01  0.89318611432E+02 -0.60622467363E+02  0.10809484641E+03  0.47000000000E+01 0.  1.
         13    1    4    4    0    0  0.13156744418E+02  0.24980079622E+02 -0.21085261308E+02  0.35237658067E+02  0.00000000000E+00 0. -1.
        -14    1    4    4    0    0  0.51711514162E+02 -0.28259920732E+02  0.28421435815E+02  0.65425391328E+02  0.00000000000E+00 0.  1.
</event>
<event>
12    1  0.8113184E-002  0.2455640E+03  0.7818608E-02  0.1116409E+00
         21   -1    0    0  503  502  0.00000000000E+00  0.00000000000E+00  0.27852757049E+03  0.27852757049E+03  0.00000000000E+00 0. -1.
         21   -1    0    0  501  503 -0.00000000000E+00 -0.00000000000E+00 -0.25925621421E+03  0.25925621421E+03  0.00000000000E+00 0. -1.
          6    2    1    2  501    0  0.12811791921E+03 -0.11921696610E+03 -0.10137329896E+03  0.26566564687E+03  0.17226376274E+03 0.  0.
         24    2    3    3    0    0  0.81906820443E+02 -0.10781101209E+03 -0.28656114338E+01  0.15616032308E+03  0.77755342011E+02 0.  0.
         -6    2    1    2    0  502 -0.12811791921E+03  0.11921696610E+03  0.12064465525E+03  0.27211813783E+03  0.16990074121E+03 0.  0.
        -24    2    5    5    0    0 -0.64830332423E+02  0.74792997542E+02  0.14318744523E+03  0.19143929919E+03  0.79683099333E+02 0.  0.
          5    1    3    3  501    0  0.46211098770E+02 -0.11405954007E+02 -0.98507687530E+02  0.10950532379E+03  0.47000000000E+01 0. -1.
        -13    1    4    4    0    0 -0.15501891999E+02 -0.15678483451E+02 -0.95554135228E+00  0.22068904779E+02  0.00000000000E+00 0.  1.
         14    1    4    4    0    0  0.97408712442E+02 -0.92132528642E+02 -0.19100700815E+01  0.13409141830E+03  0.00000000000E+00 0. -1.
         -5    1    5    5    0  502 -0.63287586791E+02  0.44423968559E+02 -0.22542789976E+02  0.80678838640E+02  0.47000000000E+01 0.  1.
         11    1    6    6    0    0 -0.66879787966E+01  0.67206946096E+02  0.87883382455E+02  0.11083768121E+03  0.00000000000E+00 0. -1.
        -12    1    6    6    0    0 -0.58142353626E+02  0.75860514456E+01  0.55304062773E+02  0.80601617980E+02  0.00000000000E+00 0.  1.
</event>
<event>
12    1  0.8113184E-002  0.2572250E+03  0.7818608E-02  0.1108839E+00
         21   -1    0    0  501  502  0.00000000000E+00  0.00000000000E+00  0.36334671726E+03  0.36334671726E+03  0.00000000000E+00 0. -1.
         21   -1    0    0  502  503 -0.00000000000E+00 -0.00000000000E+00 -0.20266677938E+03  0.20266677938E+03  0.00000000000E+00 0. -1.
         -6    2    1    2    0  503  0.15034423837E+03 -0.11732093231E+03 -0.10011040408E+02  0.25730635682E+03  0.17244926547E+03 0.  0.
        -24    2    3    3    0    0  0.86669838803E+02 -0.49551374672E+02  0.59835190158E+02  0.14091164892E+03  0.79428226279E+02 0.  0.
          6    2    1    2  501    0 -0.15034423837E+03  0.11732093231E+03  0.17069097829E+03  0.30870713982E+03  0.17261835632E+03 0.  0.
         24    2    5    5    0    0 -0.95750595850E+02  0.10141959715E+03  0.40318862013E+02  0.16639657463E+03  0.81290209261E+02 0.  0.
          5    1    5    5  501    0 -0.54593642524E+02  0.15901335156E+02  0.13037211627E+03  0.14231056519E+03  0.47000000000E+01 0. -1.
        -11    1    6    6    0    0 -0.85712164826E+02  0.32492227587E+02  0.26073245409E+02  0.95300231788E+02  0.00000000000E+00 0.  1.
         12    1    6    6    0    0 -0.10038431024E+02  0.68927369567E+02  0.14245616604E+02  0.71096342840E+02  0.00000000000E+00 0. -1.
         -5    1    3    3    0  503  0.63674399571E+02 -0.67769557638E+02 -0.69846230566E+02  0.11639470790E+03  0.47000000000E+01 0.  1.
         11    1    4    4    0    0  0.16226403410E+02 -0.50054377940E+02  0.44276335107E+02  0.68768675784E+02  0.00000000000E+00 0. -1.
        -12    1    4    4    0    0  0.70443435393E+02  0.50300326808E+00  0.15558855051E+02  0.72142973135E+02  0.00000000000E+00 0.  1.
</event>
<event>
12    1  0.8113184E-002  0.1759666E+03  0.7818608E-02  0.1171932E+00
         21   -1    0    0  503  502  0.00000000000E+00  0.00000000000E+00  0.35148938167E+02  0.35148938167E+02  0.00000000000E+00 0. -1.
         21   -1    0    0  501  503 -0.00000000000E+00 -0.00000000000E+00 -0.19107875709E+04  0.19107875709E+04  0.00000000000E+00 0. -1.
          6    2    1    2  501    0  0.31261983659E+02 -0.23334880481E+02 -0.16524540635E+04  0.16617260137E+04  0.17090080284E+03 0.  0.
         24    2    3    3    0    0 -0.77266753045E+01  0.24585576577E+02 -0.13712633794E+04  0.13737906450E+04  0.79204346592E+02 0.  0.
         -6    2    1    2    0  502 -0.31261983659E+02  0.23334880481E+02 -0.22318456918E+03  0.28421049530E+03  0.17158795251E+03 0.  0.
        -24    2    5    5    0    0  0.41430756247E+02  0.20008013539E+02 -0.68866819988E+02  0.11353138060E+03  0.77652477852E+02 0.  0.
          5    1    3    3  501    0  0.38988658963E+02 -0.47920457057E+02 -0.28119068409E+03  0.28793536871E+03  0.47000000000E+01 0. -1.
        -11    1    4    4    0    0  0.22688710797E+01  0.38195457511E+02 -0.30462580382E+03  0.30701941486E+03  0.00000000000E+00 0.  1.
         12    1    4    4    0    0 -0.99955463842E+01 -0.13609880934E+02 -0.10666375756E+04  0.10667712302E+04  0.00000000000E+00 0. -1.
         -5    1    5    5    0  502 -0.72692739906E+02  0.33268669419E+01 -0.15431774919E+03  0.17067911470E+03  0.47000000000E+01 0.  1.
         11    1    6    6    0    0 -0.44792951223E+01 -0.23269744712E+02 -0.59574617647E+01  0.24434329424E+02  0.00000000000E+00 0. -1.
        -12    1    6    6    0    0  0.45910051370E+02  0.43277758251E+02 -0.62909358223E+02  0.89097051175E+02  0.00000000000E+00 0.  1.
</event>
<event>
12    1  0.8113184E-002  0.1893040E+03  0.7818608E-02  0.1159989E+00
         21   -1    0    0  503  502  0.00000000000E+00  0.00000000000E+00  0.32774995436E+03  0.32774995436E+03  0.00000000000E+00 0. -1.
         21   -1    0    0  501  503 -0.00000000000E+00 -0.00000000000E+00 -0.20820493008E+03  0.20820493008E+03  0.00000000000E+00 0. -1.
          6    2    1    2  501    0  0.50072897956E+02  0.56981654216E+02 -0.12729624165E+03  0.22488153135E+03  0.16915426680E+03 0.  0.
         24    2    3    3    0    0  0.71563315111E+02  0.15708126901E+02 -0.21519966022E+02  0.10922664571E+03  0.78098001732E+02 0.  0.
         -6    2    1    2    0  502 -0.50072897956E+02 -0.56981654216E+02  0.24684126593E+03  0.31107335309E+03  0.17344110357E+03 0.  0.
        -24    2    5    5    0    0 -0.95773184154E+02 -0.66392116731E+02  0.16694478514E+03  0.21843097291E+03  0.79127192997E+02 0.  0.
          5    1    3    3  501    0 -0.21490417155E+02  0.41273527315E+02 -0.10577627563E+03  0.11565488564E+03  0.47000000000E+01 0. -1.
        -11    1    4    4    0    0  0.22738441933E+02  0.20236698429E+02  0.26674163128E+02  0.40473098268E+02  0.00000000000E+00 0.  1.
         12    1    4    4    0    0  0.48824873178E+02 -0.45285715284E+01 -0.48194129150E+02  0.68753547440E+02  0.00000000000E+00 0. -1.
         -5    1    5    5    0  502  0.45700286198E+02  0.94104625149E+01  0.79896480788E+02  0.92642380181E+02  0.47000000000E+01 0.  1.
         11    1    6    6    0    0 -0.73090105722E+02 -0.39243531983E+01  0.73185822340E+02  0.10350714320E+03  0.00000000000E+00 0. -1.
        -12    1    6    6    0    0 -0.22683078432E+02 -0.62467763533E+02  0.93758962801E+02  0.11492382970E+03  0.00000000000E+00 0.  1.
</event>
<event>
12    1  0.8113184E-002  0.1750126E+03  0.7818608E-02  0.1172751E+00
         21   -1    0    0  501  502  0.00000000000E+00  0.00000000000E+00  0.50869010257E+03  0.50869010257E+03  0.00000000000E+00 0. -1.
         21   -1    0    0  502  503 -0.00000000000E+00 -0.00000000000E+00 -0.62088286388E+02  0.62088286388E+02  0.00000000000E+00 0.  1.
         -6    2    1    2    0  503  0.30940557335E+02  0.31442059142E+02  0.27355344970E+03  0.32474744304E+03  0.16936201093E+03 0.  0.
        -24    2    3    3    0    0  0.79441996271E+02  0.69744193004E+01  0.22430514439E+03  0.25127268170E+03  0.80408267436E+02 0.  0.
          6    2    1    2  501    0 -0.30940557335E+02 -0.31442059142E+02  0.17304836648E+03  0.24603094592E+03  0.16923229017E+03 0.  0.
         24    2    5    5    0    0 -0.25687366127E+01  0.23414998114E+02  0.16256703559E+03  0.18321211722E+03  0.81140484909E+02 0.  0.
          5    1    5    5  501    0 -0.28371820723E+02 -0.54857057256E+02  0.10481330896E+02  0.62818828700E+02  0.47000000000E+01 0. -1.
        -11    1    6    6    0    0 -0.20318227590E+02  0.47741766298E+02  0.80276112587E+02  0.95584312906E+02  0.00000000000E+00 0.  1.
         12    1    6    6    0    0  0.17749490977E+02 -0.24326768184E+02  0.82290922999E+02  0.87627804310E+02  0.00000000000E+00 0. -1.
         -5    1    3    3    0  503 -0.48501438936E+02  0.24467639842E+02  0.49248305306E+02  0.73474761338E+02  0.47000000000E+01 0.  1.
         11    1    4    4    0    0 -0.15172264593E+02 -0.83319629773E+01  0.38136506151E+02  0.41880930283E+02  0.00000000000E+00 0. -1.
        -12    1    4    4    0    0  0.94614260864E+02  0.15306382278E+02  0.18616863824E+03  0.20939175142E+03  0.00000000000E+00 0.  1.
</event>
<event>
12    1  0.8113184E-002  0.1943405E+03  0.7818608E-02  0.1154766E+00
         21   -1    0    0  503  502  0.00000000000E+00  0.00000000000E+00  0.90247039577E+02  0.90247039577E+02  0.00000000000E+00 0.  1.
         21   -1    0    0  501  503 -0.00000000000E+00 -0.00000000000E+00 -0.62493515963E+03  0.62493515963E+03  0.00000000000E+00 0.  1.
          6    2    1    2  501    0 -0.86990629574E+02  0.11877986830E+02 -0.47400115132E+03  0.51229415841E+03  0.17337749878E+03 0.  0.
         24    2    3    3    0    0 -0.19420877105E+02 -0.24194947161E+02 -0.93867524680E+02  0.12449189937E+03  0.75660788281E+02 0.  0.
         -6    2    1    2    0  502  0.86990629574E+02 -0.11877986830E+02 -0.60686968731E+02  0.20288804079E+03  0.17254620459E+03 0.  0.
        -24    2    5    5    0    0  0.33407261447E+02 -0.25270274544E+02 -0.98322669659E+02  0.13588754308E+03  0.83925235188E+02 0.  0.
          5    1    3    3  501    0 -0.67569752469E+02  0.36072933990E+02 -0.38013362664E+03  0.38780225904E+03  0.47000000000E+01 0. -1.
        -11    1    4    4    0    0 -0.11886321546E+02 -0.98898892045E+01 -0.10417593877E+03  0.10531723870E+03  0.00000000000E+00 0.  1.
         12    1    4    4    0    0 -0.75345555590E+01 -0.14305057956E+02  0.10308414093E+02  0.19174660668E+02  0.00000000000E+00 0. -1.
         -5    1    5    5    0  502  0.53583368128E+02  0.13392287714E+02  0.37635700928E+02  0.67000497718E+02  0.47000000000E+01 0.  1.
         13    1    6    6    0    0  0.64373179877E+00 -0.50135634787E+02 -0.38161718110E+02  0.63010419736E+02  0.00000000000E+00 0. -1.
        -14    1    6    6    0    0  0.32763529648E+02  0.24865360244E+02 -0.60160951548E+02  0.72877123339E+02  0.00000000000E+00 0.  1.
</event>
<event>
12    1  0.8113184E-002  0.1936561E+03  0.7818608E-02  0.1155292E+00
         21   -1    0    0  503  502  0.00000000000E+00  0.00000000000E+00  0.20068005583E+03  0.20068005583E+03  0.00000000000E+00 0.  1.
         21   -1    0    0  501  503 -0.00000000000E+00 -0.00000000000E+00 -0.18866522066E+03  0.18866522066E+03  0.00000000000E+00 0.  1.
          6    2    1    2  501    0  0.77509694424E+02  0.43080002364E+02 -0.14871242284E+02  0.19383176522E+03  0.17171476357E+03 0.  0.
         24    2    3    3    0    0  0.41122061223E+02  0.86564579806E+02 -0.41052827950E+02  0.13120163067E+03  0.79649750862E+02 0.  0.
         -6    2    1    2    0  502 -0.77509694424E+02 -0.43080002364E+02  0.26886077458E+02  0.19551351127E+03  0.17215990414E+03 0.  0.
        -24    2    5    5    0    0 -0.54202044279E+02 -0.48647245055E+02  0.81338813636E+02  0.13583578323E+03  0.80814239756E+02 0.  0.
          5    1    3    3  501    0  0.36387633202E+02 -0.43484577442E+02  0.26181585666E+02  0.62630134547E+02  0.47000000000E+01 0. -1.
        -11    1    4    4    0    0  0.13363448033E+02  0.76498612797E+01 -0.44891699422E+02  0.47459106586E+02  0.00000000000E+00 0.  1.
         12    1    4    4    0    0  0.27758613190E+02  0.78914718526E+02  0.38388714720E+01  0.83742524087E+02  0.00000000000E+00 0. -1.
         -5    1    5    5    0  502 -0.23307650145E+02  0.55672426915E+01 -0.54452736178E+02  0.59677728038E+02  0.47000000000E+01 0.  1.
         13    1    6    6    0    0 -0.89773706590E+01 -0.59863390814E+02  0.34068241242E+02  0.69461239587E+02  0.00000000000E+00 0. -1.
        -14    1    6    6    0    0 -0.45224673620E+02  0.11216145758E+02  0.47270572394E+02  0.66374543646E+02  0.00000000000E+00 0.  1.
</event>
<event>
12    1  0.8113184E-002  0.3414066E+03  0.7818608E-02  0.1066538E+00
         21   -1    0    0  503  502  0.00000000000E+00  0.00000000000E+00  0.12963509259E+04  0.12963509259E+04  0.00000000000E+00 0. -1.
         21   -1    0    0  501  503 -0.00000000000E+00 -0.00000000000E+00 -0.10661618910E+03  0.10661618910E+03  0.00000000000E+00 0.  1.
          6    2    1    2  501    0 -0.28116306329E+03 -0.77423970484E+02  0.30798808556E+03  0.45743254469E+03  0.17129136796E+03 0.  0.
         24    2    3    3    0    0 -0.10740142467E+03 -0.87869513308E+02  0.11290624837E+03  0.19593449572E+03  0.79914881596E+02 0.  0.
         -6    2    1    2    0  502  0.28116306329E+03  0.77423970484E+02  0.88174665123E+03  0.94553457030E+03  0.17751430169E+03 0.  0.
        -24    2    5    5    0    0  0.24640058274E+03  0.56152409212E+02  0.54261935708E+03  0.60393492010E+03  0.80220201998E+02 0.  0.
          5    1    3    3  501    0 -0.17376163862E+03  0.10445542823E+02  0.19508183718E+03  0.26149804898E+03  0.47000000000E+01 0. -1.
        -11    1    4    4    0    0 -0.11440117661E+03 -0.61355910879E+02  0.10615567766E+03  0.16769378316E+03  0.00000000000E+00 0.  1.
         12    1    4    4    0    0  0.69997519414E+01 -0.26513602428E+02  0.67505707107E+01  0.28240712560E+02  0.00000000000E+00 0. -1.
         -5    1    5    5    0  502  0.34762480549E+02  0.21271561272E+02  0.33912729415E+03  0.34159965019E+03  0.47000000000E+01 0.  1.
         13    1    6    6    0    0  0.45297551700E+02  0.29858542261E+02  0.62661218450E+02  0.82884431793E+02  0.00000000000E+00 0. -1.
        -14    1    6    6    0    0  0.20110303104E+03  0.26293866951E+02  0.47995813863E+03  0.52105048831E+03  0.00000000000E+00 0.  1.
</event>
<event>
12    1  0.8113184E-002  0.1980812E+03  0.7818608E-02  0.1152426E+00
         21   -1    0    0  503  502  0.00000000000E+00  0.00000000000E+00  0.71872614110E+02  0.71872614110E+02  0.00000000000E+00 0.  1.
         21   -1    0    0  501  503 -0.00000000000E+00 -0.00000000000E+00 -0.53772045763E+03  0.53772045763E+03  0.00000000000E+00 0. -1.
          6    2    1    2  501    0  0.77889998813E+02 -0.42675515117E+02 -0.20007050680E+03  0.27812099095E+03  0.17156639069E+03 0.  0.
         24    2    3    3    0    0  0.29402948859E+02 -0.69404883403E+02 -0.19333138191E+03  0.22214814980E+03  0.79317122913E+02 0.  0.
         -6    2    1    2    0  502 -0.77889998813E+02  0.42675515117E+02 -0.26577733672E+03  0.33147208079E+03  0.17705393562E+03 0.  0.
        -24    2    5    5    0    0  0.30317637423E+02  0.28746853576E+02 -0.13309774447E+03  0.15963243358E+03  0.77601311443E+02 0.  0.
          5    1    3    3  501    0  0.48487049954E+02  0.26729368286E+02 -0.67391248855E+01  0.55972841150E+02  0.47000000000E+01 0. -1.
        -13    1    4    4    0    0 -0.26519999152E+02 -0.26122817204E+02 -0.50149800552E+02  0.62455699732E+02  0.00000000000E+00 0.  1.
         14    1    4    4    0    0  0.55922948011E+02 -0.43282066199E+02 -0.14318158136E+03  0.15969245007E+03  0.00000000000E+00 0. -1.
         -5    1    5    5    0  502 -0.10820763624E+03  0.13928661542E+02 -0.13267959225E+03  0.17183964721E+03  0.47000000000E+01 0.  1.
         11    1    6    6    0    0  0.12161018683E+02  0.44191815711E+02 -0.12701430343E+03  0.13503125649E+03  0.00000000000E+00 0. -1.
        -12    1    6    6    0    0  0.18156618740E+02 -0.15444962136E+02 -0.60834410343E+01  0.24601177091E+02  0.00000000000E+00 0.  1.
</event>
<event>
12    1  0.8113184E-002  0.2038779E+03  0.7818608E-02  0.1146672E+00
         21   -1    0    0  501  502  0.00000000000E+00  0.00000000000E+00  0.25757908309E+03  0.25757908309E+03  0.00000000000E+00 0.  1.
         21   -1    0    0  502  503 -0.00000000000E+00 -0.00000000000E+00 -0.16468872055E+03  0.16468872055E+03  0.00000000000E+00 0. -1.
         -6    2    1    2    0  503  0.96725577831E+02  0.51542824557E+02  0.79222314895E+02  0.21872903796E+03  0.17191194461E+03 0.  0.
        -24    2    3    3    0    0  0.10487722842E+03  0.60932006910E+02  0.14532031748E+02  0.15268716574E+03  0.91598297626E+02 0.  0.
          6    2    1    2  501    0 -0.96725577831E+02 -0.51542824557E+02  0.13668047648E+02  0.20353876568E+03  0.17096407061E+03 0.  0.
         24    2    5    5    0    0 -0.11633083976E+03 -0.30465081689E+02  0.52772082160E+02  0.15475502808E+03  0.81873320305E+02 0.  0.
          5    1    5    5  501    0  0.19605261931E+02 -0.21077742868E+02 -0.39104034512E+02  0.48783737607E+02  0.47000000000E+01 0. -1.
        -13    1    6    6    0    0 -0.14209457003E+02 -0.33608902328E+02 -0.58602342302E+01  0.36956857675E+02  0.00000000000E+00 0.  1.
         14    1    6    6    0    0 -0.10212138276E+03  0.31438206384E+01  0.58632316391E+02  0.11779817040E+03  0.00000000000E+00 0. -1.
         -5    1    3    3    0  503 -0.81516505848E+01 -0.93891823528E+01  0.64690283147E+02  0.66041872219E+02  0.47000000000E+01 0.  1.
         11    1    4    4    0    0 -0.10341922542E+02 -0.79272267683E+00 -0.15424160293E+02  0.18587320728E+02  0.00000000000E+00 0. -1.
        -12    1    4    4    0    0  0.11521915096E+03  0.61724729587E+02  0.29956192041E+02  0.13409984501E+03  0.00000000000E+00 0.  1.
</event>
<event>
12    1  0.8113184E-002  0.1750042E+03  0.7818608E-02  0.1172894E+00
         21   -1    0    0  503  502  0.00000000000E+00  0.00000000000E+00  0.82645411510E+02  0.82645411510E+02  0.00000000000E+00 0.  1.
         21   -1    0    0  501  503 -0.00000000000E+00 -0.00000000000E+00 -0.57077782729E+03  0.57077782729E+03  0.00000000000E+00 0.  1.
          6    2    1    2  501    0 -0.24427320322E+02  0.14588691176E+02 -0.49600000447E+02  0.18126103075E+03  0.17200545728E+03 0.  0.
         24    2    3    3    0    0 -0.18731115556E+02 -0.33957360861E+02 -0.83608731959E+02  0.12152955047E+03  0.79215241783E+02 0.  0.
         -6    2    1    2    0  502  0.24427320322E+02 -0.14588691176E+02 -0.43853241533E+03  0.47216220805E+03  0.17267584523E+03 0.  0.
        -24    2    5    5    0    0 -0.25419328651E+02 -0.60082689655E+02 -0.25137257141E+03  0.27315143074E+03  0.84660868111E+02 0.  0.
          5    1    3    3  501    0 -0.56962047652E+01  0.48546052037E+02  0.34008731512E+02  0.59731480278E+02  0.47000000000E+01 0. -1.
        -13    1    4    4    0    0  0.34444775373E+00  0.22173421892E+02 -0.46693654385E+02  0.51692133275E+02  0.00000000000E+00 0.  1.
         14    1    4    4    0    0 -0.19075563310E+02 -0.56130782753E+02 -0.36915077574E+02  0.69837417194E+02  0.00000000000E+00 0. -1.
         -5    1    5    5    0  502  0.49846648973E+02  0.45493998478E+02 -0.18715984392E+03  0.19901077731E+03  0.47000000000E+01 0.  1.
         11    1    6    6    0    0 -0.32800947802E+02 -0.67938221385E+01 -0.18355743613E+03  0.18658882752E+03  0.00000000000E+00 0. -1.
        -12    1    6    6    0    0  0.73816191510E+01 -0.53288867516E+02 -0.67815135282E+02  0.86562603217E+02  0.00000000000E+00 0.  1.
</event>
<event>
12    1  0.8113184E-002  0.1960949E+03  0.7818608E-02  0.1153188E+00
         21   -1    0    0  503  502  0.00000000000E+00  0.00000000000E+00  0.82308700908E+03  0.82308700908E+03  0.00000000000E+00 0.  1.
         21   -1    0    0  501  503 -0.00000000000E+00 -0.00000000000E+00 -0.85275224125E+02  0.85275224125E+02  0.00000000000E+00 0.  1.
          6    2    1    2  501    0 -0.86776794219E+01  0.92866060301E+02  0.63284666558E+02  0.20605377067E+03  0.17249289872E+03 0.  0.
         24    2    3    3    0    0 -0.53617118316E+02  0.60476491045E+02  0.89483906997E+02  0.14459543060E+03  0.79801426010E+02 0.  0.
         -6    2    1    2    0  502  0.86776794219E+01 -0.92866060301E+02  0.67452711840E+03  0.70230846253E+03  0.17190385631E+03 0.  0.
        -24    2    5    5    0    0  0.56880525679E+02 -0.10125559825E+03  0.42306349296E+03  0.44608601299E+03  0.80758414592E+02 0.  0.
          5    1    3    3  501    0  0.44939438894E+02  0.32389569256E+02 -0.26199240440E+02  0.61458340071E+02  0.47000000000E+01 0. -1.
        -13    1    4    4    0    0 -0.27127594154E+02  0.33564588113E+02 -0.44209966883E+01  0.43382406014E+02  0.00000000000E+00 0.  1.
         14    1    4    4    0    0 -0.26489524162E+02  0.26911902932E+02  0.93904903686E+02  0.10121302459E+03  0.00000000000E+00 0. -1.
         -5    1    5    5    0  502 -0.48202846257E+02  0.83895379462E+01  0.25146362543E+03  0.25622244954E+03  0.47000000000E+01 0.  1.
         11    1    6    6    0    0  0.41193821803E+01  0.80016126989E+01  0.40665241217E+01  0.98758155999E+01  0.00000000000E+00 0. -1.
        -12    1    6    6    0    0  0.52761143499E+02 -0.10925721095E+03  0.41899696884E+03  0.43621019739E+03  0.00000000000E+00 0.  1.
</event>
<event>
12    1  0.8113184E-002  0.2168175E+03  0.7818608E-02  0.1136279E+00
         21   -1    0    0  503  502  0.00000000000E+00  0.00000000000E+00  0.23082102839E+03  0.23082102839E+03  0.00000000000E+00 0. -1.
         21   -1    0    0  501  503 -0.00000000000E+00 -0.00000000000E+00 -0.27875374646E+03  0.27875374646E+03  0.00000000000E+00 0.  1.
          6    2    1    2  501    0 -0.79204353960E+02  0.10436303658E+03  0.10827598587E+03  0.24234644051E+03  0.17275165707E+03 0.  0.
         24    2    3    3    0    0 -0.11970270443E+03  0.10049772946E+03  0.92530623949E+02  0.19847089593E+03  0.80001556800E+02 0.  0.
         -6    2    1    2    0  502  0.79204353960E+02 -0.10436303658E+03 -0.15620870394E+03  0.26722833434E+03  0.17275662187E+03 0.  0.
        -24    2    5    5    0    0  0.21332020172E+02 -0.12890204562E+03 -0.98819178470E+02  0.18198153020E+03  0.79254368036E+02 0.  0.
          5    1    3    3  501    0  0.40498350469E+02  0.38653071198E+01  0.15745361918E+02  0.43875544576E+02  0.47000000000E+01 0. -1.
        -13    1    4    4    0    0 -0.10469953422E+03  0.11139450861E+03  0.66988544680E+02  0.16690774138E+03  0.00000000000E+00 0.  1.
         14    1    4    4    0    0 -0.15003170207E+02 -0.10896779148E+02  0.25542079270E+02  0.31563154555E+02  0.00000000000E+00 0. -1.
         -5    1    5    5    0  502  0.57872333788E+02  0.24539009038E+02 -0.57389525471E+02  0.85246804142E+02  0.47000000000E+01 0.  1.
         11    1    6    6    0    0  0.40048280129E+02 -0.38332569861E+02 -0.15653723157E+02  0.57604597925E+02  0.00000000000E+00 0. -1.
        -12    1    6    6    0    0 -0.18716259957E+02 -0.90569475755E+02 -0.83165455313E+02  0.12437693228E+03  0.00000000000E+00 0.  1.
</event>
<event>
12    1  0.8113184E-002  0.2141684E+03  0.7818608E-02  0.1138853E+00
         21   -1    0    0  503  502  0.00000000000E+00  0.00000000000E+00  0.16228482549E+03  0.16228482549E+03  0.00000000000E+00 0.  1.
         21   -1    0    0  501  503 -0.00000000000E+00 -0.00000000000E+00 -0.28023512150E+03  0.28023512150E+03  0.00000000000E+00 0.  1.
          6    2    1    2  501    0 -0.10699253318E+03 -0.55705471841E+02 -0.74383613660E+02  0.22671793622E+03  0.17696779050E+03 0.  0.
         24    2    3    3    0    0 -0.11146743025E+03 -0.33516808936E+02  0.72915485122E+01  0.14183399439E+03  0.80717722942E+02 0.  0.
         -6    2    1    2    0  502  0.10699253318E+03  0.55705471841E+02 -0.43566682349E+02  0.21580201076E+03  0.17355676387E+03 0.  0.
        -24    2    5    5    0    0  0.41521646481E+02  0.98342490156E+02 -0.30353781831E+02  0.13642302691E+03  0.79338500765E+02 0.  0.
          5    1    3    3  501    0  0.44748970699E+01 -0.22188662905E+02 -0.81675162172E+02  0.84883941833E+02  0.47000000000E+01 0. -1.
        -11    1    4    4    0    0 -0.96100135110E+02 -0.19559203672E+02 -0.27025767688E+02  0.10172605633E+03  0.00000000000E+00 0.  1.
         12    1    4    4    0    0 -0.15367295142E+02 -0.13957605264E+02  0.34317316200E+02  0.40107938065E+02  0.00000000000E+00 0. -1.
         -5    1    5    5    0  502  0.65470886701E+02 -0.42637018314E+02 -0.13212900518E+02  0.79378983845E+02  0.47000000000E+01 0.  1.
         11    1    6    6    0    0  0.61950315681E+02  0.77358646028E+02 -0.38021665100E+02  0.10615012362E+03  0.00000000000E+00 0. -1.
        -12    1    6    6    0    0 -0.20428669200E+02  0.20983844128E+02  0.76678832691E+01  0.30272903288E+02  0.00000000000E+00 0.  1.
</event>
<event>
12    1  0.8113184E-002  0.1918244E+03  0.7818608E-02  0.1156903E+00
         21   -1    0    0  503  502  0.00000000000E+00  0.00000000000E+00  0.45584408303E+02  0.45584408303E+02  0.00000000000E+00 0. -1.
         21   -1    0    0  501  503 -0.00000000000E+00 -0.00000000000E+00 -0.87708830831E+03  0.87708830831E+03  0.00000000000E+00 0. -1.
          6    2    1    2  501    0 -0.82988657598E+02 -0.13430955180E+02 -0.28385390989E+03  0.34239941693E+03  0.17203723641E+03 0.  0.
         24    2    3    3    0    0 -0.56074331574E+02  0.53410309418E+02 -0.12385915602E+03  0.16686438663E+03  0.80657555022E+02 0.  0.
         -6    2    1    2    0  502  0.82988657598E+02  0.13430955180E+02 -0.54764999012E+03  0.58027329968E+03  0.17242123650E+03 0.  0.
        -24    2    5    5    0    0  0.93617049067E+02  0.96225656880E+01 -0.21505786873E+03  0.24745641948E+03  0.78281843310E+02 0.  0.
          5    1    3    3  501    0 -0.26914326024E+02 -0.66841264598E+02 -0.15999475387E+03  0.17553503030E+03  0.47000000000E+01 0. -1.
        -13    1    4    4    0    0  0.16075275954E+02  0.26209501555E+02 -0.17131340332E+02  0.35197092072E+02  0.00000000000E+00 0.  1.
         14    1    4    4    0    0 -0.72149607528E+02  0.27200807863E+02 -0.10672781569E+03  0.13166729456E+03  0.00000000000E+00 0. -1.
         -5    1    5    5    0  502 -0.10628391468E+02  0.38083894915E+01 -0.33259212139E+03  0.33281688020E+03  0.47000000000E+01 0.  1.
         13    1    6    6    0    0  0.17831408293E+02 -0.22956410471E+02 -0.18935375749E+02  0.34691560331E+02  0.00000000000E+00 0. -1.
        -14    1    6    6    0    0  0.75785640773E+02  0.32578976159E+02 -0.19612249298E+03  0.21276485915E+03  0.00000000000E+00 0.  1.
</event>
<event>
12    1  0.8113184E-002  0.1917549E+03  0.7818608E-02  0.1157458E+00
         21   -1    0    0  503  502  0.00000000000E+00  0.00000000000E+00  0.12518030499E+04  0.12518030499E+04  0.00000000000E+00 0. -1.
         21   -1    0    0  501  503 -0.00000000000E+00 -0.00000000000E+00 -0.35084989972E+02  0.35084989972E+02  0.00000000000E+00 0. -1.
          6    2    1    2  501    0 -0.75911282673E+02 -0.24258284633E+02  0.34343726351E+03  0.39334346787E+03  0.17441027073E+03 0.  0.
         24    2    3    3    0    0  0.19446451100E+02 -0.34502343871E+02  0.11151457445E+03  0.14232900246E+03  0.79078874772E+02 0.  0.
         -6    2    1    2    0  502  0.75911282673E+02  0.24258284633E+02  0.87328079642E+03  0.89354457200E+03  0.17161458432E+03 0.  0.
        -24    2    5    5    0    0 -0.17701845203E+02 -0.21547711095E+02  0.35389301821E+03  0.36378296420E+03  0.79499166811E+02 0.  0.
          5    1    3    3  501    0 -0.95357733773E+02  0.10244059239E+02  0.23192268907E+03  0.25101446541E+03  0.47000000000E+01 0. -1.
        -11    1    4    4    0    0 -0.20017201770E+02  0.13641144469E+02  0.45795686105E+02  0.51807471034E+02  0.00000000000E+00 0.  1.
         12    1    4    4    0    0  0.39463652870E+02 -0.48143488341E+02  0.65718888342E+02  0.90521531430E+02  0.00000000000E+00 0. -1.
         -5    1    5    5    0  502  0.93613127876E+02  0.45805995728E+02  0.51938777820E+03  0.52976160780E+03  0.47000000000E+01 0.  1.
         13    1    6    6    0    0  0.21636169788E+02  0.15068213107E+02  0.69012351787E+02  0.73877463332E+02  0.00000000000E+00 0. -1.
        -14    1    6    6    0    0 -0.39338014990E+02 -0.36615924202E+02  0.28488066643E+03  0.28990550086E+03  0.00000000000E+00 0.  1.
</event>
<event>
12    1  0.8113184E-002  0.2202200E+03  0.7818608E-02  0.1134106E+00
         21   -1    0    0  501  502  0.00000000000E+00  0.00000000000E+00  0.10104561394E+04  0.10104561394E+04  0.00000000000E+00 0. -1.
         21   -1    0    0  502  503 -0.00000000000E+00 -0.00000000000E+00 -0.63787551189E+02  0.63787551189E+02  0.00000000000E+00 0. -1.
         -6    2    1    2    0  503 -0.10984977233E+03 -0.77579751433E+02  0.20063295921E+03  0.29638380727E+03  0.17176782754E+03 0.  0.
        -24    2    3    3    0    0 -0.19853113415E+01 -0.77282442179E+02  0.11104460231E+03  0.15608771313E+03  0.77820004882E+02 0.  0.
          6    2    1    2  501    0  0.10984977233E+03  0.77579751433E+02  0.74603562897E+03  0.77785988329E+03  0.17438821068E+03 0.  0.
         24    2    5    5    0    0  0.24742664441E+02  0.79097895758E+02  0.25563476404E+03  0.28010429779E+03  0.78997522079E+02 0.  0.
          5    1    5    5  501    0  0.85107107891E+02 -0.15181443252E+01  0.49040086493E+03  0.49775558551E+03  0.47000000000E+01 0. -1.
        -13    1    6    6    0    0 -0.28442353426E+02  0.26874931596E+02  0.72596869229E+02  0.82471418313E+02  0.00000000000E+00 0.  1.
         14    1    6    6    0    0  0.53185017867E+02  0.52222964162E+02  0.18303789481E+03  0.19763287947E+03  0.00000000000E+00 0. -1.
         -5    1    3    3    0  503 -0.10786446099E+03 -0.29730925457E+00  0.89588356909E+02  0.14029609414E+03  0.47000000000E+01 0.  1.
         11    1    4    4    0    0 -0.16490369392E+02  0.10341459227E+02  0.11201945228E+02  0.22457997206E+02  0.00000000000E+00 0. -1.
        -12    1    4    4    0    0  0.14505058051E+02 -0.87623901405E+02  0.99842657077E+02  0.13362971593E+03  0.00000000000E+00 0.  1.
</event>
<event>
12    1  0.8113184E-002  0.2285523E+03  0.7818608E-02  0.1127985E+00
         21   -1    0    0  501  502  0.00000000000E+00  0.00000000000E+00  0.21550538750E+03  0.21550538750E+03  0.00000000000E+00 0.  1.
         21   -1    0    0  502  503 -0.00000000000E+00 -0.00000000000E+00 -0.31217337535E+03  0.31217337535E+03  0.00000000000E+00 0. -1.
         -6    2    1    2    0  503 -0.12771836841E+02 -0.14918484135E+03  0.78257101023E+02  0.23986815992E+03  0.17027425988E+03 0.  0.
        -24    2    3    3    0    0  0.75847003530E+01 -0.86446302922E+02 -0.21811109889E+02  0.11992546675E+03  0.79849246032E+02 0.  0.
          6    2    1    2  501    0  0.12771836841E+02  0.14918484135E+03 -0.17492508888E+03  0.28781060293E+03  0.17267576475E+03 0.  0.
         24    2    5    5    0    0  0.24435012983E+02  0.10637543614E+03 -0.33902558982E+02  0.13989806529E+03  0.80680120798E+02 0.  0.
          5    1    5    5  501    0 -0.11663176142E+02  0.42809405211E+02 -0.14102252990E+03  0.14791253764E+03  0.47000000000E+01 0. -1.
        -13    1    6    6    0    0 -0.63924379206E+00  0.28360090374E+02  0.25930716036E+02  0.38433128845E+02  0.00000000000E+00 0.  1.
         14    1    6    6    0    0  0.25074256775E+02  0.78015345770E+02 -0.59833275018E+02  0.10146493644E+03  0.00000000000E+00 0. -1.
         -5    1    3    3    0  503 -0.20356537194E+02 -0.62738538432E+02  0.10006821091E+03  0.11994269318E+03  0.47000000000E+01 0.  1.
         13    1    4    4    0    0 -0.26799203769E+02 -0.23136549347E+01 -0.25511961710E+01  0.27019602582E+02  0.00000000000E+00 0. -1.
        -14    1    4    4    0    0  0.34383904122E+02 -0.84132647988E+02 -0.19259913718E+02  0.92905864167E+02  0.00000000000E+00 0.  1.
</event>
<event>
12    1  0.8113184E-002  0.1982868E+03  0.7818608E-02  0.1151290E+00
         21   -1    0    0  501  502  0.00000000000E+00  0.00000000000E+00  0.80281224170E+02  0.80281224170E+02  0.00000000000E+00 0.  1.
         21   -1    0    0  502  503 -0.00000000000E+00 -0.00000000000E+00 -0.79476951929E+03  0.79476951929E+03  0.00000000000E+00 0.  1.
         -6    2    1    2    0  503  0.20129896842E+02  0.95909972863E+02 -0.62853842700E+03  0.65893729090E+03  0.17185419250E+03 0.  0.
        -24    2    3    3    0    0 -0.45796050369E+02  0.15025329319E+02 -0.25106936045E+03  0.26728241440E+03  0.77980937055E+02 0.  0.
          6    2    1    2  501    0 -0.20129896842E+02 -0.95909972863E+02 -0.85949868118E+02  0.21611345256E+03  0.17237664838E+03 0.  0.
         24    2    5    5    0    0 -0.75867734824E+02 -0.69793540600E+02 -0.82799450657E+02  0.15430091542E+03  0.79535979120E+02 0.  0.
          5    1    5    5  501    0  0.55737837982E+02 -0.26116432263E+02 -0.31504174607E+01  0.61812537137E+02  0.47000000000E+01 0. -1.
        -13    1    6    6    0    0 -0.44647025269E+01 -0.49490765239E+02 -0.10728240049E+02  0.50836645711E+02  0.00000000000E+00 0.  1.
         14    1    6    6    0    0 -0.71403032298E+02 -0.20302775361E+02 -0.72071210608E+02  0.10346426971E+03  0.00000000000E+00 0. -1.
         -5    1    3    3    0  503  0.65925947211E+02  0.80884643543E+02 -0.37746906655E+03  0.39165487649E+03  0.47000000000E+01 0.  1.
         13    1    4    4    0    0 -0.39426418358E+01 -0.11115791175E+02 -0.18207918546E+03  0.18246077665E+03  0.00000000000E+00 0. -1.
        -14    1    4    4    0    0 -0.41853408533E+02  0.26141120494E+02 -0.68990174987E+02  0.84821637754E+02  0.00000000000E+00 0.  1.
</event>
<event>
12    1  0.8113184E-002  0.2356388E+03  0.7818608E-02  0.1123367E+00
         21   -1    0    0  501  502  0.00000000000E+00  0.00000000000E+00  0.35584567279E+03  0.35584567279E+03  0.00000000000E+00 0.  1.
         21   -1    0    0  502  503 -0.00000000000E+00 -0.00000000000E+00 -0.15664112478E+03  0.15664112478E+03  0.00000000000E+00 0. -1.
         -6    2    1    2    0  503 -0.15461007252E+03 -0.55381120133E+00  0.13449269277E+03  0.26812385980E+03  0.17290904706E+03 0.  0.
        -24    2    3    3    0    0 -0.10540541854E+03  0.51822379258E+02  0.13505089525E+03  0.19610466173E+03  0.80140082326E+02 0.  0.
          6    2    1    2  501    0  0.15461007252E+03  0.55381120133E+00  0.64711855241E+02  0.24436293777E+03  0.17782305788E+03 0.  0.
         24    2    5    5    0    0  0.63054984896E+02 -0.56227126895E+02  0.73435677019E+02  0.13617511929E+03  0.77546396013E+02 0.  0.
          5    1    5    5  501    0  0.91555087625E+02  0.56780938097E+02 -0.87238217779E+01  0.10818781848E+03  0.47000000000E+01 0. -1.
        -13    1    6    6    0    0  0.71506129407E+02 -0.34983418733E+02  0.79517875232E+02  0.11251692588E+03  0.00000000000E+00 0.  1.
         14    1    6    6    0    0 -0.84511445108E+01 -0.21243708163E+02 -0.60821982127E+01  0.23658193404E+02  0.00000000000E+00 0. -1.
         -5    1    3    3    0  503 -0.49204653986E+02 -0.52376190460E+02 -0.55820248699E+00  0.72019198072E+02  0.47000000000E+01 0.  1.
         11    1    4    4    0    0  0.32747129250E+01  0.77193203127E+01 -0.76763686982E+01  0.11368301862E+02  0.00000000000E+00 0. -1.
        -12    1    4    4    0    0 -0.10868013146E+03  0.44103058946E+02  0.14272726395E+03  0.18473635987E+03  0.00000000000E+00 0.  1.
</event>
<event>
12    1  0.8113184E-002  0.3582939E+03  0.7818608E-02  0.1059548E+00
         21   -1    0    0  503  502  0.00000000000E+00  0.00000000000E+00  0.91967739897E+03  0.91967739897E+03  0.00000000000E+00 0. -1.
         21   -1    0    0  501  503 -0.00000000000E+00 -0.00000000000E+00 -0.25128604010E+03  0.25128604010E+03  0.00000000000E+00 0.  1.
          6    2    1    2  501    0  0.28903317069E+03 -0.11986411364E+03 -0.57356729726E+02  0.36285577334E+03  0.17454781094E+03 0.  0.
         24    2    3    3    0    0  0.80588878311E+02 -0.13956733648E+02 -0.60619404665E+02  0.12897945729E+03  0.79193626378E+02 0.  0.
         -6    2    1    2    0  502 -0.28903317069E+03  0.11986411364E+03  0.72574808860E+03  0.80810766573E+03  0.16858271507E+03 0.  0.
        -24    2    5    5    0    0 -0.22754210352E+03  0.65231221241E+02  0.64956289800E+03  0.69589279354E+03  0.79399625649E+02 0.  0.
          5    1    3    3  501    0  0.20844429238E+03 -0.10590737999E+03  0.32626749393E+01  0.23387631605E+03  0.47000000000E+01 0. -1.
        -11    1    4    4    0    0  0.86502865335E+02 -0.11106127958E+02 -0.22187696594E+02  0.89991031050E+02  0.00000000000E+00 0.  1.
         12    1    4    4    0    0 -0.59139870234E+01 -0.28506056905E+01 -0.38431708071E+02  0.38988426238E+02  0.00000000000E+00 0. -1.
         -5    1    5    5    0  502 -0.61491067176E+02  0.54632892401E+02  0.76185190597E+02  0.11221487219E+03  0.47000000000E+01 0.  1.
         13    1    6    6    0    0 -0.90820293793E+02  0.64219833437E+02  0.25137995675E+03  0.27488978778E+03  0.00000000000E+00 0. -1.
        -14    1    6    6    0    0 -0.13672180972E+03  0.10113878042E+01  0.39818294125E+03  0.42100300576E+03  0.00000000000E+00 0.  1.
</event>
<event>
12    1  0.8113184E-002  0.2326560E+03  0.7818608E-02  0.1124972E+00
         21   -1    0    0  503  502  0.00000000000E+00  0.00000000000E+00  0.20890344899E+03  0.20890344899E+03  0.00000000000E+00 0.  1.
         21   -1    0    0  501  503 -0.00000000000E+00 -0.00000000000E+00 -0.28181497390E+03  0.28181497390E+03  0.00000000000E+00 0.  1.
          6    2    1    2  501    0  0.11929473575E+03  0.10077834386E+03  0.34931827202E+02  0.23526382872E+03  0.17245674235E+03 0.  0.
         24    2    3    3    0    0  0.45997862609E+01 -0.25860642121E+01 -0.11029117509E+02  0.74100462122E+02  0.73084822583E+02 0.  0.
         -6    2    1    2    0  502 -0.11929473575E+03 -0.10077834386E+03 -0.10784335211E+03  0.25545459417E+03  0.17099518274E+03 0.  0.
        -24    2    5    5    0    0 -0.15203086030E+02 -0.20454861925E+02 -0.87927877970E+02  0.12239201715E+03  0.81233976498E+02 0.  0.
          5    1    3    3  501    0  0.11469494949E+03  0.10336440807E+03  0.45960944710E+02  0.16116336660E+03  0.47000000000E+01 0. -1.
        -11    1    4    4    0    0 -0.19920210174E+02  0.20710908188E+02 -0.24432495954E+02  0.37718740036E+02  0.00000000000E+00 0.  1.
         12    1    4    4    0    0  0.24519996435E+02 -0.23296972400E+02  0.13403378445E+02  0.36381722086E+02  0.00000000000E+00 0. -1.
         -5    1    5    5    0  502 -0.10409164972E+03 -0.80323481932E+02 -0.19915474143E+02  0.13306257701E+03  0.47000000000E+01 0.  1.
         11    1    6    6    0    0  0.22012461819E+02  0.94467460364E+01 -0.19296961903E+01  0.24031504601E+02  0.00000000000E+00 0. -1.
        -12    1    6    6    0    0 -0.37215547849E+02 -0.29901607962E+02 -0.85998181780E+02  0.98360512554E+02  0.00000000000E+00 0.  1.
</event>
<event>
12    1  0.8113184E-002  0.2084018E+03  0.7818608E-02  0.1142970E+00
         21   -1    0    0  501  502  0.00000000000E+00  0.00000000000E+00  0.29833869387E+03  0.29833869387E+03  0.00000000000E+00 0. -1.
         21   -1    0    0  502  503 -0.00000000000E+00 -0.00000000000E+00 -0.21745620571E+03  0.21745620571E+03  0.00000000000E+00 0. -1.
         -6    2    1    2    0  503 -0.63733501503E+02 -0.98298171967E+02 -0.10834729714E+03  0.23430026656E+03  0.17156045082E+03 0.  0.
        -24    2    3    3    0    0 -0.81593592904E+02 -0.91208478256E+02 -0.24156495812E+02  0.14781658225E+03  0.79307659092E+02 0.  0.
          6    2    1    2  501    0  0.63733501503E+02  0.98298171967E+02  0.18922978530E+03  0.28149463303E+03  0.17235668526E+03 0.  0.
         24    2    5    5    0    0 -0.29568459147E+02  0.28913931339E+02  0.10375897938E+03  0.13711050172E+03  0.79517637527E+02 0.  0.
          5    1    5    5  501    0  0.93301960650E+02  0.69384240628E+02  0.85470805915E+02  0.14438413130E+03  0.47000000000E+01 0. -1.
        -11    1    6    6    0    0  0.49854438018E+01  0.49065481714E+02  0.51586058559E+02  0.71368043152E+02  0.00000000000E+00 0.  1.
         12    1    6    6    0    0 -0.34553902949E+02 -0.20151550374E+02  0.52172920826E+02  0.65742458571E+02  0.00000000000E+00 0. -1.
         -5    1    3    3    0  503  0.17860091401E+02 -0.70896937116E+01 -0.84190801333E+02  0.86483684304E+02  0.47000000000E+01 0.  1.
         13    1    4    4    0    0 -0.18208236414E+02  0.93948656474E+01 -0.20307565120E+02  0.28847886836E+02  0.00000000000E+00 0. -1.
        -14    1    4    4    0    0 -0.63385356490E+02 -0.10060334390E+03 -0.38489306921E+01  0.11896869542E+03  0.00000000000E+00 0.  1.
</event>
<event>
12    1  0.8113184E-002  0.1767726E+03  0.7818608E-02  0.1171392E+00
         21   -1    0    0  501  502  0.00000000000E+00  0.00000000000E+00  0.43650032646E+02  0.43650032646E+02  0.00000000000E+00 0. -1.
         21   -1    0    0  502  503 -0.00000000000E+00 -0.00000000000E+00 -0.71589075412E+03  0.71589075412E+03  0.00000000000E+00 0. -1.
         -6    2    1    2    0  503 -0.32675241076E+02  0.24463393201E+02 -0.29705167936E+03  0.34479341898E+03  0.17022535821E+03 0.  0.
        -24    2    3    3    0    0 -0.51475951757E+02  0.71655407339E+02 -0.26366900251E+03  0.28382583715E+03  0.57021854921E+02 0.  0.
          6    2    1    2  501    0  0.32675241076E+02 -0.24463393201E+02 -0.37518904212E+03  0.41474736779E+03  0.17199544405E+03 0.  0.
         24    2    5    5    0    0  0.46244848693E+02 -0.77256518262E+02 -0.28666907491E+03  0.31068429605E+03  0.78983654373E+02 0.  0.
          5    1    5    5  501    0 -0.13569607616E+02  0.52793125061E+02 -0.88519967202E+02  0.10406307173E+03  0.47000000000E+01 0. -1.
        -11    1    6    6    0    0  0.13471012987E+01 -0.18705575830E+02 -0.48561692925E+01  0.19372548341E+02  0.00000000000E+00 0.  1.
         12    1    6    6    0    0  0.44897747394E+02 -0.58550942432E+02 -0.28181290562E+03  0.29131174771E+03  0.00000000000E+00 0. -1.
         -5    1    3    3    0  503  0.18800710681E+02 -0.47192014139E+02 -0.33382676845E+02  0.60967581828E+02  0.47000000000E+01 0.  1.
         13    1    4    4    0    0  0.58689809481E+01  0.36469791278E+02 -0.76983316977E+02  0.85386894228E+02  0.00000000000E+00 0. -1.
        -14    1    4    4    0    0 -0.57344932705E+02  0.35185616062E+02 -0.18668568553E+03  0.19843894292E+03  0.00000000000E+00 0.  1.
</event>
<event>
12    1  0.8113184E-002  0.1737742E+03  0.7818608E-02  0.1174079E+00
         21   -1    0    0  503  502  0.00000000000E+00  0.00000000000E+00  0.56983205188E+02  0.56983205188E+02  0.00000000000E+00 0. -1.
         21   -1    0    0  501  503 -0.00000000000E+00 -0.00000000000E+00 -0.84640495323E+03  0.84640495323E+03  0.00000000000E+00 0. -1.
          6    2    1    2  501    0 -0.18317542729E+02 -0.12095010203E+02 -0.67179549114E+03  0.69390679357E+03  0.17238223400E+03 0.  0.
         24    2    3    3    0    0 -0.42584066021E+02 -0.32706809917E+01 -0.18023142326E+03  0.20164258019E+03  0.79701092735E+02 0.  0.
         -6    2    1    2    0  502  0.18317542729E+02  0.12095010203E+02 -0.11762625690E+03  0.20948136485E+03  0.17194384044E+03 0.  0.
        -24    2    5    5    0    0  0.40397911347E+01  0.71401268997E+02 -0.70969555140E+02  0.13253967042E+03  0.86114025290E+02 0.  0.
          5    1    3    3  501    0  0.24266523291E+02 -0.88243292111E+01 -0.49156406789E+03  0.49226421338E+03  0.47000000000E+01 0. -1.
        -11    1    4    4    0    0 -0.42764553519E+02  0.19104126352E+02 -0.17123666025E+03  0.17752681064E+03  0.00000000000E+00 0.  1.
         12    1    4    4    0    0  0.18048749821E+00 -0.22374807344E+02 -0.89947630016E+01  0.24115769547E+02  0.00000000000E+00 0. -1.
         -5    1    5    5    0  502  0.14277751595E+02 -0.59306258794E+02 -0.46656701763E+02  0.76941694433E+02  0.47000000000E+01 0.  1.
         11    1    6    6    0    0  0.26726949947E+02  0.40050910725E+02  0.38513182978E+01  0.48303601895E+02  0.00000000000E+00 0. -1.
        -12    1    6    6    0    0 -0.22687158812E+02  0.31350358272E+02 -0.74820873438E+02  0.84236068526E+02  0.00000000000E+00 0.  1.
</event>
<event>
12    1  0.8113184E-002  0.1759773E+03  0.7818608E-02  0.1171996E+00
         21   -1    0    0  503  502  0.00000000000E+00  0.00000000000E+00  0.41454960218E+03  0.41454960218E+03  0.00000000000E+00 0.  1.
         21   -1    0    0  501  503 -0.00000000000E+00 -0.00000000000E+00 -0.11649693410E+03  0.11649693410E+03  0.00000000000E+00 0. -1.
          6    2    1    2  501    0 -0.22132842453E+02 -0.20253690674E+02 -0.11054317499E+02  0.17535686785E+03  0.17241739606E+03 0.  0.
         24    2    3    3    0    0 -0.57220331471E+02 -0.61019807997E+02  0.13487868657E+02  0.11604905126E+03  0.79296131024E+02 0.  0.
         -6    2    1    2    0  502  0.22132842453E+02  0.20253690674E+02  0.30910698557E+03  0.35568966843E+03  0.17340108708E+03 0.  0.
        -24    2    5    5    0    0 -0.51433138445E+02 -0.12528936534E+02  0.16245470911E+03  0.18831095299E+03  0.79165273467E+02 0.  0.
          5    1    3    3  501    0  0.35087489018E+02  0.40766117323E+02 -0.24542186156E+02  0.59307816589E+02  0.47000000000E+01 0. -1.
        -11    1    4    4    0    0 -0.19714609529E+02 -0.73083317179E+02  0.11844141582E+02  0.76616713377E+02  0.00000000000E+00 0.  1.
         12    1    4    4    0    0 -0.37505721942E+02  0.12063509182E+02  0.16437270749E+01  0.39432337882E+02  0.00000000000E+00 0. -1.
         -5    1    5    5    0  502  0.73565980897E+02  0.32782627208E+02  0.14665227646E+03  0.16737871544E+03  0.47000000000E+01 0.  1.
         11    1    6    6    0    0  0.61625658858E+01  0.16580118222E+02  0.53678205002E+01  0.18484886677E+02  0.00000000000E+00 0. -1.
        -12    1    6    6    0    0 -0.57595704330E+02 -0.29109054756E+02  0.15708688861E+03  0.16982606632E+03  0.00000000000E+00 0.  1.
</event>
<event>
12    1  0.8113184E-002  0.1926014E+03  0.7818608E-02  0.1156163E+00
         21   -1    0    0  503  502  0.00000000000E+00  0.00000000000E+00  0.12174165191E+04  0.12174165191E+04  0.00000000000E+00 0. -1.
         21   -1    0    0  501  503 -0.00000000000E+00 -0.00000000000E+00 -0.29365351676E+03  0.29365351676E+03  0.00000000000E+00 0. -1.
          6    2    1    2  501    0  0.51571442323E+02  0.70926545841E+02 -0.25339306993E+03  0.31828184250E+03  0.17147913812E+03 0.  0.
         24    2    3    3    0    0 -0.57055942840E+01  0.27451446082E+02 -0.22505893469E+03  0.24085021820E+03  0.81062740065E+02 0.  0.
         -6    2    1    2    0  502 -0.51571442323E+02 -0.70926545841E+02  0.11771560723E+04  0.11927881934E+04  0.17133904164E+03 0.  0.
        -24    2    5    5    0    0 -0.94895465263E+02 -0.51557144012E+02  0.67488709647E+03  0.68826033612E+03  0.81033381184E+02 0.  0.
          5    1    3    3  501    0  0.57277036607E+02  0.43475099758E+02 -0.28334135236E+02  0.77431624296E+02  0.47000000000E+01 0. -1.
        -11    1    4    4    0    0  0.72943567362E+01  0.28446571538E+02 -0.20355040361E+02  0.35731537059E+02  0.00000000000E+00 0.  1.
         12    1    4    4    0    0 -0.12999951020E+02 -0.99512545606E+00 -0.20470389433E+03  0.20511868115E+03  0.00000000000E+00 0. -1.
         -5    1    5    5    0  502  0.43324022940E+02 -0.19369401829E+02  0.50226897584E+03  0.50452785729E+03  0.47000000000E+01 0.  1.
         13    1    6    6    0    0 -0.26454977624E+02 -0.58087134373E+02  0.39042329110E+03  0.39560627808E+03  0.00000000000E+00 0. -1.
        -14    1    6    6    0    0 -0.68440487639E+02  0.65299903613E+01  0.28446380536E+03  0.29265405803E+03  0.00000000000E+00 0.  1.
</event>
<event>
12    1  0.8113184E-002  0.2146393E+03  0.7818608E-02  0.1138098E+00
         21   -1    0    0  501  502  0.00000000000E+00  0.00000000000E+00  0.65690960283E+03  0.65690960283E+03  0.00000000000E+00 0. -1.
         21   -1    0    0  502  503 -0.00000000000E+00 -0.00000000000E+00 -0.72118881444E+03  0.72118881444E+03  0.00000000000E+00 0. -1.
         -6    2    1    2    0  503 -0.12158370073E+03 -0.39322292613E+02 -0.68695391349E+03  0.71946815591E+03  0.17146401700E+03 0.  0.
        -24    2    3    3    0    0 -0.15305016526E+03 -0.32019920978E+02 -0.52191958586E+03  0.55123652298E+03  0.83737815450E+02 0.  0.
          6    2    1    2  501    0  0.12158370073E+03  0.39322292613E+02  0.62267470188E+03  0.65863026137E+03  0.17245636504E+03 0.  0.
         24    2    5    5    0    0  0.24776877558E+02 -0.31008624300E+02  0.33561209528E+03  0.34759163194E+03  0.81295975627E+02 0.  0.
          5    1    5    5  501    0  0.96806823170E+02  0.70330916913E+02  0.28706260660E+03  0.31103862943E+03  0.47000000000E+01 0. -1.
        -13    1    6    6    0    0 -0.29179767852E+02 -0.16243325506E+02  0.99976592098E+02  0.10540694210E+03  0.00000000000E+00 0.  1.
         14    1    6    6    0    0  0.53956645410E+02 -0.14765298794E+02  0.23563550318E+03  0.24218468984E+03  0.00000000000E+00 0. -1.
         -5    1    3    3    0  503  0.31466464531E+02 -0.73023716352E+01 -0.16503432763E+03  0.16823163292E+03  0.47000000000E+01 0.  1.
         13    1    4    4    0    0 -0.14521684647E+02 -0.35793458880E+02 -0.12393345866E+03  0.12981353242E+03  0.00000000000E+00 0. -1.
        -14    1    4    4    0    0 -0.13852848061E+03  0.37735379020E+01 -0.39798612720E+03  0.42142299056E+03  0.00000000000E+00 0.  1.
</event>
<event>
12    1  0.8113184E-002  0.2507627E+03  0.7818608E-02  0.1112909E+00
         21   -1    0    0  503  502  0.00000000000E+00  0.00000000000E+00  0.90746116604E+02  0.90746116604E+02  0.00000000000E+00 0. -1.
         21   -1    0    0  501  503 -0.00000000000E+00 -0.00000000000E+00 -0.74071579491E+03  0.74071579491E+03  0.00000000000E+00 0. -1.
          6    2    1    2  501    0  0.99496788844E+02  0.15221578907E+03 -0.21743873379E+03  0.33149695160E+03  0.17187602664E+03 0.  0.
         24    2    3    3    0    0  0.91039190570E+02  0.16183131968E+03 -0.23280059530E+03  0.31095270213E+03  0.89543037344E+02 0.  0.
         -6    2    1    2    0  502 -0.99496788844E+02 -0.15221578907E+03 -0.43253094451E+03  0.49996495991E+03  0.17266350438E+03 0.  0.
        -24    2    5    5    0    0 -0.80885497524E+02 -0.12858586373E+03 -0.19467445034E+03  0.26016805552E+03  0.81929771366E+02 0.  0.
          5    1    3    3  501    0  0.84575982745E+01 -0.96155306051E+01  0.15361861513E+02  0.20544249476E+02  0.47000000000E+01 0. -1.
        -11    1    4    4    0    0  0.51902429945E+02  0.30738762989E+02 -0.11732259594E+03  0.13192166351E+03  0.00000000000E+00 0.  1.
         12    1    4    4    0    0  0.39136760625E+02  0.13109255669E+03 -0.11547799936E+03  0.17903103861E+03  0.00000000000E+00 0. -1.
         -5    1    5    5    0  502 -0.18611291320E+02 -0.23629925342E+02 -0.23785649417E+03  0.23979690439E+03  0.47000000000E+01 0.  1.
         13    1    6    6    0    0 -0.17453784323E+01 -0.77730145467E+02 -0.75920079380E+02  0.10866867218E+03  0.00000000000E+00 0. -1.
        -14    1    6    6    0    0 -0.79140119092E+02 -0.50855718264E+02 -0.11875437096E+03  0.15149938334E+03  0.00000000000E+00 0.  1.
</event>
<event>
12    1  0.8113184E-002  0.2742428E+03  0.7818608E-02  0.1100064E+00
         21   -1    0    0  503  502  0.00000000000E+00  0.00000000000E+00  0.58003875711E+03  0.58003875711E+03  0.00000000000E+00 0.  1.
         21   -1    0    0  501  503 -0.00000000000E+00 -0.00000000000E+00 -0.35802986288E+03  0.35802986288E+03  0.00000000000E+00 0.  1.
          6    2    1    2  501    0 -0.24472028459E+02  0.21183778561E+03 -0.26736913718E+03  0.37708738245E+03  0.15885374057E+03 0.  0.
         24    2    3    3    0    0  0.96682899791E+01  0.18716137471E+03 -0.15369424074E+03  0.25576731536E+03  0.81683192595E+02 0.  0.
         -6    2    1    2    0  502  0.24472028459E+02 -0.21183778561E+03  0.48937803141E+03  0.56098123754E+03  0.17243828939E+03 0.  0.
        -24    2    5    5    0    0  0.76423466033E+02 -0.89739728071E+02  0.24558072276E+03  0.28337341123E+03  0.78082224899E+02 0.  0.
          5    1    3    3  501    0 -0.34140318438E+02  0.24676410903E+02 -0.11367489644E+03  0.12132006709E+03  0.47000000000E+01 0. -1.
        -11    1    4    4    0    0 -0.42796233477E+01  0.13798507708E+03 -0.63191052477E+02  0.15182656483E+03  0.00000000000E+00 0.  1.
         12    1    4    4    0    0  0.13947913327E+02  0.49176297626E+02 -0.90503188266E+02  0.10394075053E+03  0.00000000000E+00 0. -1.
         -5    1    5    5    0  502 -0.51951437574E+02 -0.12209805754E+03  0.24379730865E+03  0.27760782631E+03  0.47000000000E+01 0.  1.
         11    1    6    6    0    0 -0.15293908738E+02 -0.10146514870E+02  0.19744213548E+02  0.26957176728E+02  0.00000000000E+00 0. -1.
        -12    1    6    6    0    0  0.91717374771E+02 -0.79593213201E+02  0.22583650922E+03  0.25641623450E+03  0.00000000000E+00 0.  1.
</event>
<event>
12    1  0.8113184E-002  0.1830937E+03  0.7818608E-02  0.1165155E+00
         21   -1    0    0  503  502  0.00000000000E+00  0.00000000000E+00  0.90530257146E+03  0.90530257146E+03  0.00000000000E+00 0.  1.
         21   -1    0    0  501  503 -0.00000000000E+00 -0.00000000000E+00 -0.53744768180E+02  0.53744768180E+02  0.00000000000E+00 0.  1.
          6    2    1    2  501    0  0.29077331819E+02 -0.54142748674E+02  0.15519064871E+03  0.23901227190E+03  0.17107249988E+03 0.  0.
         24    2    3    3    0    0  0.32893763581E+02  0.60299654174E+01  0.15720916318E+03  0.17850206555E+03  0.77652471004E+02 0.  0.
         -6    2    1    2    0  502 -0.29077331819E+02  0.54142748674E+02  0.69636715457E+03  0.72003506773E+03  0.17247132034E+03 0.  0.
        -24    2    5    5    0    0  0.17048047087E+02  0.44205127832E+02  0.19176921918E+03  0.21321411978E+03  0.80250222496E+02 0.  0.
          5    1    3    3  501    0 -0.38164317621E+01 -0.60172714091E+02 -0.20185144706E+01  0.60510206355E+02  0.47000000000E+01 0. -1.
        -13    1    4    4    0    0  0.50741336739E+02  0.12465026485E+02  0.60455098731E+02  0.79905438500E+02  0.00000000000E+00 0.  1.
         14    1    4    4    0    0 -0.17847573158E+02 -0.64350610671E+01  0.96754064445E+02  0.98596627048E+02  0.00000000000E+00 0. -1.
         -5    1    5    5    0  502 -0.46125378906E+02  0.99376208419E+01  0.50459793539E+03  0.50682094796E+03  0.47000000000E+01 0.  1.
         13    1    6    6    0    0 -0.30324238650E+02  0.25299575836E+02  0.59124522846E+02  0.71100894431E+02  0.00000000000E+00 0. -1.
        -14    1    6    6    0    0  0.47372285736E+02  0.18905551996E+02  0.13264469633E+03  0.14211322534E+03  0.00000000000E+00 0.  1.
</event>
<event>
12    1  0.8113184E-002  0.1927931E+03  0.7818608E-02  0.1156041E+00
         21   -1    0    0  503  502  0.00000000000E+00  0.00000000000E+00  0.18611572717E+03  0.18611572717E+03  0.00000000000E+00 0. -1.
         21   -1    0    0  501  503 -0.00000000000E+00 -0.00000000000E+00 -0.20210785687E+03  0.20210785687E+03  0.00000000000E+00 0. -1.
          6    2    1    2  501    0 -0.45098240244E+02  0.74881122478E+02 -0.30627010316E+02  0.19487584543E+03  0.17145713049E+03 0.  0.
         24    2    3    3    0    0  0.31994319942E+02  0.76779552525E+02 -0.21975084252E+02  0.11713388316E+03  0.79490289111E+02 0.  0.
         -6    2    1    2    0  502  0.45098240244E+02 -0.74881122478E+02  0.14634880621E+02  0.19334773861E+03  0.17183752360E+03 0.  0.
        -24    2    5    5    0    0 -0.19527602332E+02 -0.47808001687E+01 -0.30508517175E+02  0.87751474083E+02  0.79783258147E+02 0.  0.
          5    1    3    3  501    0 -0.77092560186E+02 -0.18984300473E+01 -0.86519260642E+01  0.77741962268E+02  0.47000000000E+01 0. -1.
        -11    1    4    4    0    0  0.10223220418E+02  0.81403207149E+02  0.49607987819E+01  0.82192492932E+02  0.00000000000E+00 0.  1.
         12    1    4    4    0    0  0.21771099524E+02 -0.46236546239E+01 -0.26935883034E+02  0.34941390233E+02  0.00000000000E+00 0. -1.
         -5    1    5    5    0  502  0.64625842576E+02 -0.70100322309E+02  0.45143397796E+02  0.10559626452E+03  0.47000000000E+01 0.  1.
         13    1    6    6    0    0  0.10776749346E+02 -0.29278803179E+02  0.87843380536E+01  0.32412208149E+02  0.00000000000E+00 0. -1.
        -14    1    6    6    0    0 -0.30304351678E+02  0.24498003010E+02 -0.39292855229E+02  0.55339265934E+02  0.00000000000E+00 0.  1.
</event>
<event>
12    1  0.8113184E-002  0.1881837E+03  0.7818608E-02  0.1160313E+00
         21   -1    0    0  503  502  0.00000000000E+00  0.00000000000E+00  0.81646839557E+02  0.81646839557E+02  0.00000000000E+00 0. -1.
         21   -1    0    0  501  503 -0.00000000000E+00 -0.00000000000E+00 -0.44616883376E+03  0.44616883376E+03  0.00000000000E+00 0.  1.
          6    2    1    2  501    0  0.14339598971E+02  0.80134606980E+02 -0.22937818250E+03  0.29613276048E+03  0.16868041347E+03 0.  0.
         24    2    3    3    0    0  0.72973614402E+02  0.43371482071E+02 -0.15943431687E+03  0.19762535234E+03  0.80188806188E+02 0.  0.
         -6    2    1    2    0  502 -0.14339598971E+02 -0.80134606980E+02 -0.13514381170E+03  0.23168291283E+03  0.16966420637E+03 0.  0.
        -24    2    5    5    0    0 -0.59283564155E+02 -0.74726504147E+02 -0.13698579378E+03  0.18613414248E+03  0.82354234243E+02 0.  0.
          5    1    3    3  501    0 -0.58634015430E+02  0.36763124909E+02 -0.69943865638E+02  0.98507408143E+02  0.47000000000E+01 0. -1.
        -13    1    4    4    0    0  0.54011585417E+02  0.42572984223E+02 -0.16423143496E+03  0.17804964076E+03  0.00000000000E+00 0.  1.
         14    1    4    4    0    0  0.18962028985E+02  0.79849784801E+00  0.47971180935E+01  0.19575711585E+02  0.00000000000E+00 0. -1.
         -5    1    5    5    0  502  0.44943965184E+02 -0.54081028335E+01  0.18419820831E+01  0.45548770353E+02  0.47000000000E+01 0.  1.
         13    1    6    6    0    0 -0.54498023309E+02 -0.95274088989E+01 -0.36590634543E+02  0.66330088204E+02  0.00000000000E+00 0. -1.
        -14    1    6    6    0    0 -0.47855408462E+01 -0.65199095248E+02 -0.10039515924E+03  0.11980405428E+03  0.00000000000E+00 0.  1.
</event>
<event>
12    1  0.8113184E-002  0.1794490E+03  0.7818608E-02  0.1168677E+00
         21   -1    0    0  503  502  0.00000000000E+00  0.00000000000E+00  0.20269367573E+03  0.20269367573E+03  0.00000000000E+00 0. -1.
         21   -1    0    0  501  503 -0.00000000000E+00 -0.00000000000E+00 -0.16170917899E+03  0.16170917899E+03  0.00000000000E+00 0. -1.
          6    2    1    2  501    0 -0.30890064863E+02 -0.46615603527E+02 -0.83346842873E+01  0.17964246924E+03  0.17051316428E+03 0.  0.
         24    2    3    3    0    0  0.12895561758E+02  0.23702026417E+01  0.47285632853E+02  0.93430521204E+02  0.79507344595E+02 0.  0.
         -6    2    1    2    0  502  0.30890064863E+02  0.46615603527E+02  0.49319181032E+02  0.18476038548E+03  0.16904676224E+03 0.  0.
        -24    2    5    5    0    0 -0.24472839388E+02  0.81826068477E+02  0.45629619300E+02  0.11887768005E+03  0.68959519328E+02 0.  0.
          5    1    3    3  501    0 -0.43785626621E+02 -0.48985806168E+02 -0.55620317141E+02  0.86211948032E+02  0.47000000000E+01 0. -1.
        -13    1    4    4    0    0  0.21260789217E+01  0.29290638777E+02 -0.84886170380E+01  0.30569892881E+02  0.00000000000E+00 0.  1.
         14    1    4    4    0    0  0.10769482836E+02 -0.26920436135E+02  0.55774249891E+02  0.62860628323E+02  0.00000000000E+00 0. -1.
         -5    1    5    5    0  502  0.55362904252E+02 -0.35210464951E+02  0.36895617318E+01  0.65882705432E+02  0.47000000000E+01 0.  1.
         11    1    6    6    0    0  0.17238903866E+02  0.28825070168E+01  0.18751201522E+02  0.25633887956E+02  0.00000000000E+00 0. -1.
        -12    1    6    6    0    0 -0.41711743255E+02  0.78943561461E+02  0.26878417778E+02  0.93243792092E+02  0.00000000000E+00 0.  1.
</event>
<event>
12    1  0.8113184E-002  0.1946714E+03  0.7818608E-02  0.1154328E+00
         21   -1    0    0  503  502  0.00000000000E+00  0.00000000000E+00  0.14632768497E+03  0.14632768497E+03  0.00000000000E+00 0. -1.
         21   -1    0    0  501  503 -0.00000000000E+00 -0.00000000000E+00 -0.71937141427E+03  0.71937141427E+03  0.00000000000E+00 0. -1.
          6    2    1    2  501    0 -0.66597028203E+02  0.59815295117E+02 -0.63284548980E+03  0.66211055395E+03  0.17286971396E+03 0.  0.
         24    2    3    3    0    0 -0.14768347223E+02 -0.26706754396E+02 -0.39403528052E+03  0.40283332148E+03  0.77971326716E+02 0.  0.
         -6    2    1    2    0  502  0.66597028203E+02 -0.59815295117E+02  0.59801760493E+02  0.20358854529E+03  0.17279760276E+03 0.  0.
        -24    2    5    5    0    0  0.85797443636E+02 -0.79926155931E+02  0.84756554923E+02  0.16593307503E+03  0.81244815525E+02 0.  0.
          5    1    3    3  501    0 -0.51828680980E+02  0.86522049513E+02 -0.23881020927E+03  0.25927723247E+03  0.47000000000E+01 0. -1.
        -11    1    4    4    0    0 -0.12795967732E+01 -0.47930648097E+02 -0.14932082793E+03  0.15683014394E+03  0.00000000000E+00 0.  1.
         12    1    4    4    0    0 -0.13488750450E+02  0.21223893701E+02 -0.24471445260E+03  0.24600317755E+03  0.00000000000E+00 0. -1.
         -5    1    5    5    0  502 -0.19200415433E+02  0.20110860814E+02 -0.24954794430E+02  0.37655470260E+02  0.47000000000E+01 0.  1.
         13    1    6    6    0    0  0.57435342775E+02 -0.90292386020E+02  0.83457332189E+02  0.13570799486E+03  0.00000000000E+00 0. -1.
        -14    1    6    6    0    0  0.28362100861E+02  0.10366230089E+02  0.12992227339E+01  0.30225080169E+02  0.00000000000E+00 0.  1.
</event>
<event>
12    1  0.8113184E-002  0.2262323E+03  0.7818608E-02  0.1129747E+00
         21   -1    0    0  503  502  0.00000000000E+00  0.00000000000E+00  0.30908723864E+03  0.30908723864E+03  0.00000000000E+00 0.  1.
         21   -1    0    0  501  503 -0.00000000000E+00 -0.00000000000E+00 -0.56187667544E+03  0.56187667544E+03  0.00000000000E+00 0. -1.
          6    2    1    2  501    0  0.14365567749E+03 -0.29806440088E+02 -0.49310729822E+03  0.54252730624E+03  0.17220828353E+03 0.  0.
         24    2    3    3    0    0  0.52458287292E+02 -0.31978516818E+02 -0.11458724225E+03  0.15314163026E+03  0.80917398540E+02 0.  0.
         -6    2    1    2    0  502 -0.14365567749E+03  0.29806440088E+02  0.24031786142E+03  0.32843660783E+03  0.16909332719E+03 0.  0.
        -24    2    5    5    0    0 -0.10500840893E+03 -0.39333794451E+02  0.11587440585E+03  0.18084850860E+03  0.81886456760E+02 0.  0.
          5    1    3    3  501    0  0.91197390200E+02  0.21720767299E+01 -0.37852005597E+03  0.38938567599E+03  0.47000000000E+01 0. -1.
        -13    1    4    4    0    0 -0.69367336599E+01  0.12046007054E+02 -0.59075958920E+02  0.60689319342E+02  0.00000000000E+00 0.  1.
         14    1    4    4    0    0  0.59395020951E+02 -0.44024523871E+02 -0.55511283334E+02  0.92452310914E+02  0.00000000000E+00 0. -1.
         -5    1    5    5    0  502 -0.38647268558E+02  0.69140234538E+02  0.12444345557E+03  0.14758809922E+03  0.47000000000E+01 0.  1.
         13    1    6    6    0    0 -0.68179824802E+02 -0.51333964418E+02  0.37086860367E+02  0.93054283216E+02  0.00000000000E+00 0. -1.
        -14    1    6    6    0    0 -0.36828584131E+02  0.12000169967E+02  0.78787545483E+02  0.87794225389E+02  0.00000000000E+00 0.  1.
</event>
<event>
12    1  0.8113184E-002  0.3237906E+03  0.7818608E-02  0.1073958E+00
         21   -1    0    0  503  502  0.00000000000E+00  0.00000000000E+00  0.37232289758E+03  0.37232289758E+03  0.00000000000E+00 0. -1.
         21   -1    0    0  501  503 -0.00000000000E+00 -0.00000000000E+00 -0.36624985368E+03  0.36624985368E+03  0.00000000000E+00 0.  1.
          6    2    1    2  501    0  0.24642152071E+03  0.12015247142E+03  0.18091192789E+03  0.37059317671E+03  0.17161000762E+03 0.  0.
         24    2    3    3    0    0  0.14800515085E+03  0.10666087286E+03  0.49964634883E+02  0.20616359107E+03  0.82005457554E+02 0.  0.
         -6    2    1    2    0  502 -0.24642152071E+03 -0.12015247142E+03 -0.17483888398E+03  0.36797957455E+03  0.17227927816E+03 0.  0.
        -24    2    5    5    0    0 -0.11674248099E+03 -0.99952007134E+01 -0.13039808027E+03  0.19205813565E+03  0.78447162004E+02 0.  0.
          5    1    3    3  501    0  0.98416369859E+02  0.13491598561E+02  0.13094729300E+03  0.16442958564E+03  0.47000000000E+01 0. -1.
        -13    1    4    4    0    0 -0.46762105227E+01 -0.70662285950E+00 -0.92114229475E+01  0.10354543613E+02  0.00000000000E+00 0.  1.
         14    1    4    4    0    0  0.15268136137E+03  0.10736749572E+03  0.59176057830E+02  0.19580904746E+03  0.00000000000E+00 0. -1.
         -5    1    5    5    0  502 -0.12967903972E+03 -0.11015727070E+03 -0.44440803711E+02  0.17592143890E+03  0.47000000000E+01 0.  1.
         13    1    6    6    0    0 -0.18734024433E+02  0.25041355521E+02 -0.98369016543E+01  0.32784108833E+02  0.00000000000E+00 0. -1.
        -14    1    6    6    0    0 -0.98008456553E+02 -0.35036556235E+02 -0.12056117862E+03  0.15927402682E+03  0.00000000000E+00 0.  1.
</event>
<event>
12    1  0.8113184E-002  0.1844301E+03  0.7818608E-02  0.1163703E+00
         21   -1    0    0  503  502  0.00000000000E+00  0.00000000000E+00  0.36953273693E+03  0.36953273693E+03  0.00000000000E+00 0. -1.
         21   -1    0    0  501  503 -0.00000000000E+00 -0.00000000000E+00 -0.17827416359E+03  0.17827416359E+03  0.00000000000E+00 0. -1.
          6    2    1    2  501    0  0.41315090810E+02 -0.50373078252E+02 -0.95074231410E+02  0.20749352372E+03  0.17254005090E+03 0.  0.
         24    2    3    3    0    0 -0.23976096963E+02  0.26044625756E+01 -0.91692535880E+02  0.12321372248E+03  0.78692209394E+02 0.  0.
         -6    2    1    2    0  502 -0.41315090810E+02  0.50373078252E+02  0.28633280475E+03  0.34031337681E+03  0.17199516162E+03 0.  0.
        -24    2    5    5    0    0 -0.53649939464E+02 -0.25629395727E+02  0.20654385386E+03  0.22933188634E+03  0.79984802287E+02 0.  0.
          5    1    3    3  501    0  0.65291187773E+02 -0.52977540828E+02 -0.33816955307E+01  0.84279801243E+02  0.47000000000E+01 0. -1.
        -11    1    4    4    0    0 -0.19451231610E+02 -0.33183529531E+02 -0.20937008538E+02  0.43793325631E+02  0.00000000000E+00 0.  1.
         12    1    4    4    0    0 -0.45248653531E+01  0.35787992107E+02 -0.70755527342E+02  0.79420396845E+02  0.00000000000E+00 0. -1.
         -5    1    5    5    0  502  0.12334848654E+02  0.76002473979E+02  0.79788950891E+02  0.11098149047E+03  0.47000000000E+01 0.  1.
         11    1    6    6    0    0 -0.29120881522E+01 -0.47349849804E+01  0.15152676663E+03  0.15162869565E+03  0.00000000000E+00 0. -1.
        -12    1    6    6    0    0 -0.50737851311E+02 -0.20894410746E+02  0.55017087229E+02  0.77703190689E+02  0.00000000000E+00 0.  1.
</event>
<event>
12    1  0.8113184E-002  0.3373869E+03  0.7818608E-02  0.1068096E+00
         21   -1    0    0  503  502  0.00000000000E+00  0.00000000000E+00  0.46423016098E+03  0.46423016098E+03  0.00000000000E+00 0.  1.
         21   -1    0    0  501  503 -0.00000000000E+00 -0.00000000000E+00 -0.32132162608E+03  0.32132162608E+03  0.00000000000E+00 0. -1.
          6    2    1    2  501    0 -0.18042513912E+03 -0.22708841925E+03 -0.12111219351E+03  0.35846630182E+03  0.17235876868E+03 0.  0.
         24    2    3    3    0    0 -0.18246140364E+03 -0.22486648211E+03 -0.14533171776E+03  0.33361154909E+03  0.79487476402E+02 0.  0.
         -6    2    1    2    0  502  0.18042513912E+03  0.22708841925E+03  0.26402072840E+03  0.42708548524E+03  0.16903456952E+03 0.  0.
        -24    2    5    5    0    0  0.99926992751E+02  0.13957625263E+03  0.79613457749E+02  0.20761689445E+03  0.85437333909E+02 0.  0.
          5    1    3    3  501    0  0.20362645199E+01 -0.22219371378E+01  0.24219524258E+02  0.24854752727E+02  0.47000000000E+01 0. -1.
        -11    1    4    4    0    0 -0.42186396958E+02 -0.10255872287E+03 -0.30834377597E+02  0.11510318226E+03  0.00000000000E+00 0.  1.
         12    1    4    4    0    0 -0.14027500668E+03 -0.12230775925E+03 -0.11449734017E+03  0.21850836683E+03  0.00000000000E+00 0. -1.
         -5    1    5    5    0  502  0.80498146368E+02  0.87512166620E+02  0.18440727065E+03  0.21946859079E+03  0.47000000000E+01 0.  1.
         11    1    6    6    0    0  0.96694820467E+02  0.14196050643E+03  0.91820765892E+02  0.19476582539E+03  0.00000000000E+00 0. -1.
        -12    1    6    6    0    0  0.32321722838E+01 -0.23842537957E+01 -0.12207308142E+02  0.12851069057E+02  0.00000000000E+00 0.  1.
</event>
<event>
12    1  0.8113184E-002  0.2988744E+03  0.7818608E-02  0.1085831E+00
         21   -1    0    0  503  502  0.00000000000E+00  0.00000000000E+00  0.51910049880E+03  0.51910049880E+03  0.00000000000E+00 0.  1.
         21   -1    0    0  501  503 -0.00000000000E+00 -0.00000000000E+00 -0.32095545757E+03  0.32095545757E+03  0.00000000000E+00 0. -1.
          6    2    1    2  501    0 -0.23963640430E+03  0.46036304135E+02 -0.18713160416E+03  0.35244544149E+03  0.17220512299E+03 0.  0.
         24    2    3    3    0    0 -0.69538536845E+02 -0.13863092052E+02 -0.23591643671E+02  0.10895287311E+03  0.79286628636E+02 0.  0.
         -6    2    1    2    0  502  0.23963640430E+03 -0.46036304135E+02  0.38527664539E+03  0.48761051489E+03  0.17257164651E+03 0.  0.
        -24    2    5    5    0    0  0.13082997952E+03 -0.22811865858E+02  0.32731598700E+03  0.36207270971E+03  0.79523751214E+02 0.  0.
          5    1    3    3  501    0 -0.17009786745E+03  0.59899396188E+02 -0.16353996049E+03  0.24349256837E+03  0.47000000000E+01 0. -1.
        -13    1    4    4    0    0 -0.66605763545E+02 -0.22282130324E+02 -0.46593385613E+02  0.84283833872E+02  0.00000000000E+00 0.  1.
         14    1    4    4    0    0 -0.29327732995E+01  0.84190382713E+01  0.23001741943E+02  0.24669039240E+02  0.00000000000E+00 0. -1.
         -5    1    5    5    0  502  0.10880642478E+03 -0.23224438277E+02  0.57960658391E+02  0.12553780517E+03  0.47000000000E+01 0.  1.
         13    1    6    6    0    0  0.43556279580E+02  0.25050969578E+02  0.69923893071E+02  0.86104885981E+02  0.00000000000E+00 0. -1.
        -14    1    6    6    0    0  0.87273699938E+02 -0.47862835436E+02  0.25739209393E+03  0.27596782373E+03  0.00000000000E+00 0.  1.
</event>
<event>
12    1  0.8113184E-002  0.1923085E+03  0.7818608E-02  0.1156765E+00
         21   -1    0    0  503  502  0.00000000000E+00  0.00000000000E+00  0.26564761957E+03  0.26564761957E+03  0.00000000000E+00 0. -1.
         21   -1    0    0  501  503 -0.00000000000E+00 -0.00000000000E+00 -0.34818528667E+03  0.34818528667E+03  0.00000000000E+00 0. -1.
          6    2    1    2  501    0 -0.80853857857E+02 -0.31826144358E+02 -0.27978828601E+03  0.33950559024E+03  0.17155847696E+03 0.  0.
         24    2    3    3    0    0  0.11949758119E+02 -0.36825470749E+02 -0.19435491839E+03  0.21317881276E+03  0.78565004266E+02 0.  0.
         -6    2    1    2    0  502  0.80853857857E+02  0.31826144358E+02  0.19725061892E+03  0.27432731600E+03  0.16969802546E+03 0.  0.
        -24    2    5    5    0    0 -0.19297778524E+02  0.79019928805E+01  0.10921171538E+03  0.13877048722E+03  0.83037362669E+02 0.  0.
          5    1    3    3  501    0 -0.92803615977E+02  0.49993263914E+01 -0.85433367624E+02  0.12632677747E+03  0.47000000000E+01 0. -1.
        -13    1    4    4    0    0  0.19752836939E+02  0.15052489495E+02 -0.22557514940E+02  0.33549865683E+02  0.00000000000E+00 0.  1.
         14    1    4    4    0    0 -0.78030788194E+01 -0.51877960244E+02 -0.17179740345E+03  0.17962894708E+03  0.00000000000E+00 0. -1.
         -5    1    5    5    0  502  0.10015163638E+03  0.23924151477E+02  0.88038903534E+02  0.13555682878E+03  0.47000000000E+01 0.  1.
         13    1    6    6    0    0  0.97506207925E+01  0.40665987952E+02  0.54422835076E+02  0.68634118044E+02  0.00000000000E+00 0. -1.
        -14    1    6    6    0    0 -0.29048399316E+02 -0.32763995072E+02  0.54788880309E+02  0.70136369177E+02  0.00000000000E+00 0.  1.
</event>
<event>
12    1  0.8113184E-002  0.1941381E+03  0.7818608E-02  0.1155129E+00
         21   -1    0    0  503  502  0.00000000000E+00  0.00000000000E+00  0.12069919941E+03  0.12069919941E+03  0.00000000000E+00 0.  1.
         21   -1    0    0  501  503 -0.00000000000E+00 -0.00000000000E+00 -0.41834848594E+03  0.41834848594E+03  0.00000000000E+00 0.  1.
          6    2    1    2  501    0  0.78859797902E+02 -0.37745549316E+02 -0.28571225837E+03  0.34454289993E+03  0.17156550088E+03 0.  0.
         24    2    3    3    0    0  0.86325359745E+02 -0.79128553278E+02 -0.25673395835E+03  0.29325820921E+03  0.79841444250E+02 0.  0.
         -6    2    1    2    0  502 -0.78859797902E+02  0.37745549316E+02 -0.11937028169E+02  0.19450478542E+03  0.17333789167E+03 0.  0.
        -24    2    5    5    0    0 -0.55879024741E+02  0.65924030499E+02 -0.61263097529E+02  0.13304509248E+03  0.80494635298E+02 0.  0.
          5    1    3    3  501    0 -0.74655618431E+01  0.41383003962E+02 -0.28978300019E+02  0.51284690723E+02  0.47000000000E+01 0. -1.
        -13    1    4    4    0    0  0.40376970018E+02 -0.17792964401E+02 -0.28565539921E+02  0.52563098852E+02  0.00000000000E+00 0.  1.
         14    1    4    4    0    0  0.45948389727E+02 -0.61335588877E+02 -0.22816841843E+03  0.24069511036E+03  0.00000000000E+00 0. -1.
         -5    1    5    5    0  502 -0.22980773160E+02 -0.28178481183E+02  0.49326069361E+02  0.61459692933E+02  0.47000000000E+01 0.  1.
         11    1    6    6    0    0  0.18565132355E+02  0.54629655757E+00 -0.55811218597E+01  0.19393594316E+02  0.00000000000E+00 0. -1.
        -12    1    6    6    0    0 -0.74444157097E+02  0.65377733942E+02 -0.55681975670E+02  0.11365149817E+03  0.00000000000E+00 0.  1.
</event>
<event>
12    1  0.8113184E-002  0.2088108E+03  0.7818608E-02  0.1142713E+00
         21   -1    0    0  503  502  0.00000000000E+00  0.00000000000E+00  0.51926340828E+02  0.51926340828E+02  0.00000000000E+00 0. -1.
         21   -1    0    0  501  503 -0.00000000000E+00 -0.00000000000E+00 -0.85217546287E+03  0.85217546287E+03  0.00000000000E+00 0. -1.
          6    2    1    2  501    0 -0.10390163661E+03 -0.55896477945E+02 -0.33807957263E+03  0.39736599506E+03  0.17228456188E+03 0.  0.
         24    2    3    3    0    0 -0.84184468269E+02  0.30630399345E+02 -0.18224295427E+03  0.21797031829E+03  0.79204287839E+02 0.  0.
         -6    2    1    2    0  502  0.10390163661E+03  0.55896477945E+02 -0.46216954941E+03  0.50673580864E+03  0.17105706948E+03 0.  0.
        -24    2    5    5    0    0  0.33932764482E+02  0.58332572745E+02 -0.39695097670E+03  0.41093847125E+03  0.82135422958E+02 0.  0.
          5    1    3    3  501    0 -0.19717168337E+02 -0.86526877290E+02 -0.15583661836E+03  0.17939567677E+03  0.47000000000E+01 0. -1.
        -11    1    4    4    0    0 -0.39260116294E+02  0.11323215917E+02 -0.15837024569E+03  0.16355643268E+03  0.00000000000E+00 0.  1.
         12    1    4    4    0    0 -0.44924351974E+02  0.19307183428E+02 -0.23872708577E+02  0.54413885609E+02  0.00000000000E+00 0. -1.
         -5    1    5    5    0  502  0.69968872124E+02 -0.24360947999E+01 -0.65218572711E+02  0.95797337388E+02  0.47000000000E+01 0.  1.
         13    1    6    6    0    0 -0.26018853357E+02  0.59654736447E+01 -0.97661659082E+02  0.10124409741E+03  0.00000000000E+00 0. -1.
        -14    1    6    6    0    0  0.59951617839E+02  0.52367099100E+02 -0.29928931761E+03  0.30969437384E+03  0.00000000000E+00 0.  1.
</event>
<event>
12    1  0.8113184E-002  0.1856519E+03  0.7818608E-02  0.1163477E+00
         21   -1    0    0  503  502  0.00000000000E+00  0.00000000000E+00  0.48740260554E+02  0.48740260554E+02  0.00000000000E+00 0. -1.
         21   -1    0    0  501  503 -0.00000000000E+00 -0.00000000000E+00 -0.10438245174E+04  0.10438245174E+04  0.00000000000E+00 0. -1.
          6    2    1    2  501    0 -0.30224714193E+02 -0.46870870120E+02 -0.81140774588E+03  0.83140644463E+03  0.17246371875E+03 0.  0.
         24    2    3    3    0    0 -0.39682930436E+02  0.20878706755E+02 -0.64564526584E+03  0.65202207293E+03  0.79147450513E+02 0.  0.
         -6    2    1    2    0  502  0.30224714193E+02  0.46870870120E+02 -0.18367651098E+03  0.26115833334E+03  0.17707682675E+03 0.  0.
        -24    2    5    5    0    0 -0.47697545304E+02  0.32109316891E+01 -0.11675753117E+03  0.14945198344E+03  0.80113721411E+02 0.  0.
          5    1    3    3  501    0  0.94582162424E+01 -0.67749576876E+02 -0.16576248005E+03  0.17938437171E+03  0.47000000000E+01 0. -1.
        -11    1    4    4    0    0 -0.12301376807E+02  0.17629510347E+02 -0.58508696143E+03  0.58548174689E+03  0.00000000000E+00 0.  1.
         12    1    4    4    0    0 -0.27381553629E+02  0.32491964089E+01 -0.60558304408E+02  0.66540326038E+02  0.00000000000E+00 0. -1.
         -5    1    5    5    0  502  0.77922259497E+02  0.43659938431E+02 -0.66918979804E+02  0.11170634990E+03  0.47000000000E+01 0.  1.
         13    1    6    6    0    0 -0.19723684749E+02 -0.52362466745E+01  0.75479245779E+01  0.21758060225E+02  0.00000000000E+00 0. -1.
        -14    1    6    6    0    0 -0.27973860555E+02  0.84471783636E+01 -0.12430545575E+03  0.12769392322E+03  0.00000000000E+00 0.  1.
</event>
<event>
12    1  0.8113184E-002  0.1953923E+03  0.7818608E-02  0.1153727E+00
         21   -1    0    0  501  502  0.00000000000E+00  0.00000000000E+00  0.10706258774E+03  0.10706258774E+03  0.00000000000E+00 0. -1.
         21   -1    0    0  502  503 -0.00000000000E+00 -0.00000000000E+00 -0.35663436394E+03  0.35663436394E+03  0.00000000000E+00 0. -1.
         -6    2    1    2    0  503 -0.44317727911E+02  0.81215891850E+02 -0.13234627207E+03  0.23583740525E+03  0.17188270386E+03 0.  0.
        -24    2    3    3    0    0 -0.83342324179E+02  0.10218548362E+02 -0.76725901866E+02  0.13745418778E+03  0.77177898338E+02 0.  0.
          6    2    1    2  501    0  0.44317727911E+02 -0.81215891850E+02 -0.11722550413E+03  0.22785954643E+03  0.17209901796E+03 0.  0.
         24    2    5    5    0    0  0.53734117084E+02 -0.49727751703E+02 -0.18627226594E+01  0.10781441865E+03  0.79121896495E+02 0.  0.
          5    1    5    5  501    0 -0.94163891735E+01 -0.31488140147E+02 -0.11536278147E+03  0.12004512778E+03  0.47000000000E+01 0. -1.
        -11    1    6    6    0    0 -0.78074547841E+01 -0.41237670519E+02  0.12998766293E+02  0.43937111252E+02  0.00000000000E+00 0.  1.
         12    1    6    6    0    0  0.61541571868E+02 -0.84900811838E+01 -0.14861488953E+02  0.63877307398E+02  0.00000000000E+00 0. -1.
         -5    1    3    3    0  503  0.39024596269E+02  0.70997343488E+02 -0.55620370208E+02  0.98383217463E+02  0.47000000000E+01 0.  1.
         11    1    4    4    0    0 -0.16851449203E+02  0.36619830753E+02 -0.15152527228E+02  0.43064863009E+02  0.00000000000E+00 0. -1.
        -12    1    4    4    0    0 -0.66490874977E+02 -0.26401282391E+02 -0.61573374638E+02  0.94389324774E+02  0.00000000000E+00 0.  1.
</event>
<event>
12    1  0.8113184E-002  0.2096514E+03  0.7818608E-02  0.1141919E+00
         21   -1    0    0  503  502  0.00000000000E+00  0.00000000000E+00  0.61755270777E+03  0.61755270777E+03  0.00000000000E+00 0.  1.
         21   -1    0    0  501  503 -0.00000000000E+00 -0.00000000000E+00 -0.16444503977E+03  0.16444503977E+03  0.00000000000E+00 0.  1.
          6    2    1    2  501    0 -0.84021580446E+02 -0.84513226428E+02 -0.68030275306E+02  0.22041284145E+03  0.17248649482E+03 0.  0.
         24    2    3    3    0    0 -0.71888983511E+02 -0.27375298388E+02  0.22706375580E+02  0.11239815475E+03  0.78742191911E+02 0.  0.
         -6    2    1    2    0  502  0.84021580446E+02  0.84513226428E+02  0.52113794330E+03  0.56158490609E+03  0.17201959010E+03 0.  0.
        -24    2    5    5    0    0  0.10819759687E+03  0.83693705211E+02  0.51102788889E+03  0.53494931739E+03  0.79434958898E+02 0.  0.
          5    1    3    3  501    0 -0.12132596934E+02 -0.57137928040E+02 -0.90736650885E+02  0.10801468670E+03  0.47000000000E+01 0. -1.
        -13    1    4    4    0    0 -0.15877783560E+02 -0.17768837437E+02 -0.27626825104E+02  0.36483928790E+02  0.00000000000E+00 0.  1.
         14    1    4    4    0    0 -0.56011199951E+02 -0.96064609512E+01  0.50333200683E+02  0.75914225959E+02  0.00000000000E+00 0. -1.
         -5    1    5    5    0  502 -0.24176016425E+02  0.81952121698E+00  0.10110054415E+02  0.26635588702E+02  0.47000000000E+01 0.  1.
         13    1    6    6    0    0  0.10293137369E+03  0.35910425065E+02  0.32431336372E+03  0.34214555997E+03  0.00000000000E+00 0. -1.
        -14    1    6    6    0    0  0.52662231829E+01  0.47783280146E+02  0.18671452517E+03  0.19280375742E+03  0.00000000000E+00 0.  1.
</event>
<event>
12    1  0.8113184E-002  0.2576335E+03  0.7818608E-02  0.1108600E+00
         21   -1    0    0  503  502  0.00000000000E+00  0.00000000000E+00  0.76907609337E+02  0.76907609337E+02  0.00000000000E+00 0. -1.
         21   -1    0    0  501  503 -0.00000000000E+00 -0.00000000000E+00 -0.88340519118E+03  0.88340519118E+03  0.00000000000E+00 0. -1.
          6    2    1    2  501    0 -0.19706768148E+02 -0.19080110385E+03 -0.47704898497E+03  0.54208870647E+03  0.17172947819E+03 0.  0.
         24    2    3    3    0    0 -0.79187627121E+02 -0.13663217931E+03 -0.32521550385E+03  0.37019414298E+03  0.79621271258E+02 0.  0.
         -6    2    1    2    0  502  0.19706768148E+02  0.19080110385E+03 -0.32944859688E+03  0.41822409405E+03  0.17199301416E+03 0.  0.
        -24    2    5    5    0    0  0.43654368185E+01  0.16376971543E+02 -0.14170666895E+03  0.16145911225E+03  0.75504984395E+02 0.  0.
          5    1    3    3  501    0  0.59480858973E+02 -0.54168924538E+02 -0.15183348112E+03  0.17189456349E+03  0.47000000000E+01 0. -1.
        -13    1    4    4    0    0 -0.88948166494E+01  0.70916600142E+01 -0.55010853971E+02  0.56174758207E+02  0.00000000000E+00 0.  1.
         14    1    4    4    0    0 -0.70292810472E+02 -0.14372383932E+03 -0.27020464988E+03  0.31401938477E+03  0.00000000000E+00 0. -1.
         -5    1    5    5    0  502  0.15341331330E+02  0.17442413231E+03 -0.18774192793E+03  0.25676498180E+03  0.47000000000E+01 0.  1.
         11    1    6    6    0    0  0.87649667836E+01  0.11126200180E+01 -0.14497223171E+03  0.14524121499E+03  0.00000000000E+00 0. -1.
        -12    1    6    6    0    0 -0.43995299651E+01  0.15264351525E+02  0.32655627579E+01  0.16217897259E+02  0.00000000000E+00 0.  1.
</event>
<event>
12    1  0.8113184E-002  0.1998797E+03  0.7818608E-02  0.1150587E+00
         21   -1    0    0  501  502  0.00000000000E+00  0.00000000000E+00  0.10369434498E+03  0.10369434498E+03  0.00000000000E+00 0. -1.
         21   -1    0    0  502  503 -0.00000000000E+00 -0.00000000000E+00 -0.55845198163E+03  0.55845198163E+03  0.00000000000E+00 0. -1.
         -6    2    1    2    0  503 -0.13676269522E+02 -0.96192469417E+02 -0.41664032509E+03  0.46210503824E+03  0.17467648484E+03 0.  0.
        -24    2    3    3    0    0 -0.40706648149E+02 -0.10354781741E+03 -0.19171362907E+03  0.23539189108E+03  0.79221494068E+02 0.  0.
          6    2    1    2  501    0  0.13676269522E+02  0.96192469417E+02 -0.38117311558E+02  0.20004128837E+03  0.17065625125E+03 0.  0.
         24    2    5    5    0    0 -0.33191965250E+02  0.11232532376E+03 -0.11919258395E+02  0.14378003696E+03  0.82534510325E+02 0.  0.
          5    1    5    5  501    0  0.46868234772E+02 -0.16132854339E+02 -0.26198053163E+02  0.56261251402E+02  0.47000000000E+01 0. -1.
        -13    1    6    6    0    0 -0.51378379859E+02  0.42039275471E+02  0.11752022987E+02  0.67417717577E+02  0.00000000000E+00 0.  1.
         14    1    6    6    0    0  0.18186414609E+02  0.70286048285E+02 -0.23671281382E+02  0.76362319387E+02  0.00000000000E+00 0. -1.
         -5    1    3    3    0  503  0.27030378626E+02  0.73553479914E+01 -0.22492669602E+03  0.22671314716E+03  0.47000000000E+01 0.  1.
         13    1    4    4    0    0 -0.44638641138E+02 -0.10100705801E+03 -0.19849828603E+03  0.22714885782E+03  0.00000000000E+00 0. -1.
        -14    1    4    4    0    0  0.39319929891E+01 -0.25407593950E+01  0.67846569658E+01  0.82430332592E+01  0.00000000000E+00 0.  1.
</event>
<event>
12    1  0.8113184E-002  0.1778168E+03  0.7818608E-02  0.1170216E+00
         21   -1    0    0  501  502  0.00000000000E+00  0.00000000000E+00  0.65601505954E+03  0.65601505954E+03  0.00000000000E+00 0.  1.
         21   -1    0    0  502  503 -0.00000000000E+00 -0.00000000000E+00 -0.47931893822E+02  0.47931893822E+02  0.00000000000E+00 0.  1.
         -6    2    1    2    0  503  0.22494388600E+02 -0.32881463006E+02  0.29232243132E+03  0.34156090516E+03  0.17211699497E+03 0.  0.
        -24    2    3    3    0    0  0.80373342647E+02 -0.26061060922E+02  0.21861531932E+03  0.24747945340E+03  0.79463003414E+02 0.  0.
          6    2    1    2  501    0 -0.22494388600E+02  0.32881463006E+02  0.31576073440E+03  0.36238604819E+03  0.17329633121E+03 0.  0.
         24    2    5    5    0    0  0.25935127781E+02  0.36445386594E+02  0.79488345164E+02  0.12112923167E+03  0.79705687939E+02 0.  0.
          5    1    5    5  501    0 -0.48429516380E+02 -0.35639235886E+01  0.23627238923E+03  0.24125681653E+03  0.47000000000E+01 0. -1.
        -13    1    6    6    0    0  0.38660851332E+02 -0.10026983056E+02  0.20282999743E+02  0.44795110151E+02  0.00000000000E+00 0.  1.
         14    1    6    6    0    0 -0.12725723551E+02  0.46472369650E+02  0.59205345421E+02  0.76334121514E+02  0.00000000000E+00 0. -1.
         -5    1    3    3    0  503 -0.57878954047E+02 -0.68204020832E+01  0.73707112003E+02  0.94081451764E+02  0.47000000000E+01 0.  1.
         13    1    4    4    0    0  0.63427759200E+02 -0.40606555783E+02  0.91929084607E+02  0.11883993271E+03  0.00000000000E+00 0. -1.
        -14    1    4    4    0    0  0.16945583446E+02  0.14545494860E+02  0.12668623471E+03  0.12863952069E+03  0.00000000000E+00 0.  1.
</event>
<event>
12    1  0.8113184E-002  0.2059857E+03  0.7818608E-02  0.1144829E+00
         21   -1    0    0  501  502  0.00000000000E+00  0.00000000000E+00  0.45595437749E+03  0.45595437749E+03  0.00000000000E+00 0. -1.
         21   -1    0    0  502  503 -0.00000000000E+00 -0.00000000000E+00 -0.16795952479E+03  0.16795952479E+03  0.00000000000E+00 0.  1.
         -6    2    1    2    0  503 -0.73973489352E+02 -0.85817587613E+02 -0.64419686155E+02  0.21582400828E+03  0.17202723946E+03 0.  0.
        -24    2    3    3    0    0 -0.10659958861E+03 -0.10308907912E+03 -0.61103977940E+02  0.17846292302E+03  0.78259109671E+02 0.  0.
          6    2    1    2  501    0  0.73973489352E+02  0.85817587613E+02  0.35241453885E+03  0.40808989400E+03  0.17176908603E+03 0.  0.
         24    2    5    5    0    0 -0.25590198923E+02  0.21171689365E+02  0.17100306510E+03  0.19123917808E+03  0.78913093013E+02 0.  0.
          5    1    5    5  501    0  0.99563688274E+02  0.64645898248E+02  0.18141147375E+03  0.21685071591E+03  0.47000000000E+01 0. -1.
        -13    1    6    6    0    0 -0.17178005412E+02  0.31477281952E+02  0.22917302383E+02  0.42557089863E+02  0.00000000000E+00 0.  1.
         14    1    6    6    0    0 -0.84121935102E+01 -0.10305592587E+02  0.14808576272E+03  0.14868208822E+03  0.00000000000E+00 0. -1.
         -5    1    3    3    0  503  0.32626099256E+02  0.17271491506E+02 -0.33157082147E+01  0.37361085269E+02  0.47000000000E+01 0.  1.
         11    1    4    4    0    0 -0.12590591580E+01  0.93968627056E+01  0.50647250283E+01  0.10748846370E+02  0.00000000000E+00 0. -1.
        -12    1    4    4    0    0 -0.10534052945E+03 -0.11248594182E+03 -0.66168702969E+02  0.16771407665E+03  0.00000000000E+00 0.  1.
</event>
<event>
12    1  0.8113184E-002  0.1740263E+03  0.7818608E-02  0.1173733E+00
         21   -1    0    0  501  502  0.00000000000E+00  0.00000000000E+00  0.15629757307E+03  0.15629757307E+03  0.00000000000E+00 0. -1.
         21   -1    0    0  502  503 -0.00000000000E+00 -0.00000000000E+00 -0.36718703096E+03  0.36718703096E+03  0.00000000000E+00 0. -1.
         -6    2    1    2    0  503 -0.21632378855E+02 -0.10032577821E+02  0.74468347280E+02  0.18928996636E+03  0.17238487226E+03 0.  0.
        -24    2    3    3    0    0  0.51492031250E+02 -0.25918469347E+02  0.34819138972E+02  0.10447433913E+03  0.79870637676E+02 0.  0.
          6    2    1    2  501    0  0.21632378855E+02  0.10032577821E+02 -0.28535780517E+03  0.33419463766E+03  0.17230312371E+03 0.  0.
         24    2    5    5    0    0 -0.32779943139E+01  0.31917712241E+02 -0.28818140283E+03  0.30058588131E+03  0.79207736405E+02 0.  0.
          5    1    5    5  501    0  0.24910373169E+02 -0.21885134420E+02  0.28235976574E+01  0.33608756355E+02  0.47000000000E+01 0. -1.
        -11    1    6    6    0    0 -0.27993948138E+02 -0.11248090868E+02 -0.61374236768E+02  0.68388431912E+02  0.00000000000E+00 0.  1.
         12    1    6    6    0    0  0.24715953824E+02  0.43165803109E+02 -0.22680716606E+03  0.23219744940E+03  0.00000000000E+00 0. -1.
         -5    1    3    3    0  503 -0.73124410105E+02  0.15885891525E+02  0.39649208309E+02  0.84815627229E+02  0.47000000000E+01 0.  1.
         11    1    4    4    0    0  0.23180925756E+02 -0.15312080443E+02  0.59357110998E+02  0.65536873228E+02  0.00000000000E+00 0. -1.
        -12    1    4    4    0    0  0.28311105493E+02 -0.10606388904E+02 -0.24537972027E+02  0.38937465904E+02  0.00000000000E+00 0.  1.
</event>
<event>
12    1  0.8113184E-002  0.2796911E+03  0.7818608E-02  0.1095868E+00
         21   -1    0    0  503  502  0.00000000000E+00  0.00000000000E+00  0.14273842932E+03  0.14273842932E+03  0.00000000000E+00 0.  1.
         21   -1    0    0  501  503 -0.00000000000E+00 -0.00000000000E+00 -0.54942319644E+03  0.54942319644E+03  0.00000000000E+00 0.  1.
          6    2    1    2  501    0  0.17731100537E+03 -0.13181383542E+03 -0.22150733104E+03  0.35672492111E+03  0.17138579815E+03 0.  0.
         24    2    3    3    0    0  0.15569387581E+03 -0.14404439237E+03 -0.12873525952E+03  0.26057070089E+03  0.79592419129E+02 0.  0.
         -6    2    1    2    0  502 -0.17731100537E+03  0.13181383542E+03 -0.18517743608E+03  0.33543670465E+03  0.17150224536E+03 0.  0.
        -24    2    5    5    0    0 -0.14011046290E+03  0.16383055555E+03 -0.14186823089E+03  0.26981103907E+03  0.78740136682E+02 0.  0.
          5    1    3    3  501    0  0.21617129561E+02  0.12230556947E+02 -0.92772071516E+02  0.96154220225E+02  0.47000000000E+01 0. -1.
        -11    1    4    4    0    0  0.62876282058E+02 -0.48800323210E+02 -0.93898835345E+02  0.12309301227E+03  0.00000000000E+00 0.  1.
         12    1    4    4    0    0  0.92817593747E+02 -0.95244069155E+02 -0.34836424175E+02  0.13747768862E+03  0.00000000000E+00 0. -1.
         -5    1    5    5    0  502 -0.37200542463E+02 -0.32016720133E+02 -0.43309205199E+02  0.65625665579E+02  0.47000000000E+01 0.  1.
         13    1    6    6    0    0 -0.61243891260E+02  0.11286072653E+03 -0.48137083077E+02  0.13713328034E+03  0.00000000000E+00 0. -1.
        -14    1    6    6    0    0 -0.78866571642E+02  0.50969829020E+02 -0.93731147809E+02  0.13267775873E+03  0.00000000000E+00 0.  1.
</event>
<event>
12    1  0.8113184E-002  0.3305976E+03  0.7818608E-02  0.1070941E+00
         21   -1    0    0  501  502  0.00000000000E+00  0.00000000000E+00  0.11278176667E+04  0.11278176667E+04  0.00000000000E+00 0.  1.
         21   -1    0    0  502  503 -0.00000000000E+00 -0.00000000000E+00 -0.99145251217E+02  0.99145251217E+02  0.00000000000E+00 0. -1.
         -6    2    1    2    0  503 -0.36043392843E+02  0.27938331824E+03  0.41806870717E+03  0.53260590266E+03  0.17185295734E+03 0.  0.
        -24    2    3    3    0    0  0.44165715952E+02  0.13826950710E+03  0.23409290257E+03  0.28721683300E+03  0.81393826941E+02 0.  0.
          6    2    1    2  501    0  0.36043392843E+02 -0.27938331824E+03  0.61060370834E+03  0.69435701529E+03  0.17303355560E+03 0.  0.
         24    2    5    5    0    0  0.10049364499E+02 -0.11643739621E+03  0.15651965176E+03  0.21119919070E+03  0.80299687450E+02 0.  0.
          5    1    5    5  501    0  0.25994028345E+02 -0.16294592204E+03  0.45408405658E+03  0.48315782459E+03  0.47000000000E+01 0. -1.
        -11    1    6    6    0    0 -0.74089873520E+01 -0.12064018470E+03  0.14866561546E+03  0.19159961503E+03  0.00000000000E+00 0.  1.
         12    1    6    6    0    0  0.17458351851E+02  0.42027884920E+01  0.78540362918E+01  0.19599575672E+02  0.00000000000E+00 0. -1.
         -5    1    3    3    0  503 -0.80209108795E+02  0.14111381115E+03  0.18397580460E+03  0.24538906966E+03  0.47000000000E+01 0.  1.
         13    1    4    4    0    0 -0.23654152080E+02  0.38454544290E+02  0.74902858116E+02  0.87456898191E+02  0.00000000000E+00 0. -1.
        -14    1    4    4    0    0  0.67819868032E+02  0.99814962808E+02  0.15919004445E+03  0.19975993481E+03  0.00000000000E+00 0.  1.
</event>
<event>
12    1  0.8113184E-002  0.2000460E+03  0.7818608E-02  0.1149989E+00
         21   -1    0    0  503  502  0.00000000000E+00  0.00000000000E+00  0.76672052911E+02  0.76672052911E+02  0.00000000000E+00 0.  1.
         21   -1    0    0  501  503 -0.00000000000E+00 -0.00000000000E+00 -0.70081080128E+03  0.70081080128E+03  0.00000000000E+00 0.  1.
          6    2    1    2  501    0  0.30372038973E+02  0.95346512510E+02 -0.50961287346E+03  0.54697350406E+03  0.17164298748E+03 0.  0.
         24    2    3    3    0    0  0.59428818675E+02  0.76990878890E+01 -0.19882837592E+03  0.22272751503E+03  0.80521813432E+02 0.  0.
         -6    2    1    2    0  502 -0.30372038973E+02 -0.95346512510E+02 -0.11452587491E+03  0.23050935014E+03  0.17321941657E+03 0.  0.
        -24    2    5    5    0    0  0.12513479618E+02 -0.26356079831E+02  0.47518882906E+01  0.86120561439E+02  0.80888445059E+02 0.  0.
          5    1    3    3  501    0 -0.29056779702E+02  0.87647424621E+02 -0.31078449754E+03  0.32424598903E+03  0.47000000000E+01 0. -1.
        -13    1    4    4    0    0 -0.10722219127E+02  0.23116829635E+02 -0.30688416296E+02  0.39889004627E+02  0.00000000000E+00 0.  1.
         14    1    4    4    0    0  0.70151037801E+02 -0.15417741746E+02 -0.16813995962E+03  0.18283851040E+03  0.00000000000E+00 0. -1.
         -5    1    5    5    0  502 -0.42885518591E+02 -0.68990432679E+02 -0.11927776321E+03  0.14438878870E+03  0.47000000000E+01 0.  1.
         11    1    6    6    0    0 -0.15733101037E+02  0.22605809072E+02 -0.69304713205E+01  0.28400431418E+02  0.00000000000E+00 0. -1.
        -12    1    6    6    0    0  0.28246580655E+02 -0.48961888902E+02  0.11682359611E+02  0.57720130021E+02  0.00000000000E+00 0.  1.
</event>
<event>
12    1  0.8113184E-002  0.2185702E+03  0.7818608E-02  0.1135045E+00
         21   -1    0    0  503  502  0.00000000000E+00  0.00000000000E+00  0.96487409607E+03  0.96487409607E+03  0.00000000000E+00 0. -1.
         21   -1    0    0  501  503 -0.00000000000E+00 -0.00000000000E+00 -0.54521653554E+02  0.54521653554E+02  0.00000000000E+00 0. -1.
          6    2    1    2  501    0 -0.10235528980E+03 -0.85462108856E+02  0.61090318529E+03  0.64866298152E+03  0.17257052006E+03 0.  0.
         24    2    3    3    0    0 -0.10227643928E+03 -0.25981831742E+02  0.21918673630E+03  0.25242848530E+03  0.67392797903E+02 0.  0.
         -6    2    1    2    0  502  0.10235528980E+03  0.85462108856E+02  0.29944925723E+03  0.37073276811E+03  0.17318357398E+03 0.  0.
        -24    2    5    5    0    0  0.12301750381E+03  0.39432072687E+02  0.27623052981E+03  0.31499327923E+03  0.78925697687E+02 0.  0.
          5    1    3    3  501    0 -0.78850515690E-01 -0.59480277115E+02  0.39171644899E+03  0.39623449622E+03  0.47000000000E+01 0. -1.
        -11    1    4    4    0    0 -0.10263239893E+03 -0.39067126514E+02  0.20799856830E+03  0.23520853322E+03  0.00000000000E+00 0.  1.
         12    1    4    4    0    0  0.35595964897E+00  0.13085294772E+02  0.11188168002E+02  0.17219952084E+02  0.00000000000E+00 0. -1.
         -5    1    5    5    0  502 -0.20662214018E+02  0.46030036170E+02  0.23218727412E+02  0.55739488880E+02  0.47000000000E+01 0.  1.
         13    1    6    6    0    0  0.67963625512E+01  0.33789807354E+02  0.52289642643E+02  0.62627057672E+02  0.00000000000E+00 0. -1.
        -14    1    6    6    0    0  0.11622114126E+03  0.56422653328E+01  0.22394088717E+03  0.25236622155E+03  0.00000000000E+00 0.  1.
</event>
<event>
12    1  0.8113184E-002  0.1723100E+03  0.7818608E-02  0.1175508E+00
         21   -1    0    0  503  502  0.00000000000E+00  0.00000000000E+00  0.39061390051E+03  0.39061390051E+03  0.00000000000E+00 0. -1.
         21   -1    0    0  501  503 -0.00000000000E+00 -0.00000000000E+00 -0.27806234007E+03  0.27806234007E+03  0.00000000000E+00 0. -1.
          6    2    1    2  501    0 -0.12656434107E+02  0.28114711772E+01 -0.22877523777E+03  0.28640675567E+03  0.17182150791E+03 0.  0.
         24    2    3    3    0    0 -0.59751917617E+02  0.38795294703E+02 -0.17967029782E+03  0.20929511420E+03  0.80297337182E+02 0.  0.
         -6    2    1    2    0  502  0.12656434107E+02 -0.28114711772E+01  0.34132679822E+03  0.38226948491E+03  0.17163299862E+03 0.  0.
        -24    2    5    5    0    0  0.34655979596E+02 -0.63599115593E+02  0.19817301034E+03  0.22512555502E+03  0.78505344226E+02 0.  0.
          5    1    3    3  501    0  0.47095483510E+02 -0.35983823526E+02 -0.49104939950E+02  0.77111641469E+02  0.47000000000E+01 0. -1.
        -11    1    4    4    0    0  0.33770437452E+01  0.15379960720E+02  0.16925353911E+01  0.15837054406E+02  0.00000000000E+00 0.  1.
         12    1    4    4    0    0 -0.63128961362E+02  0.23415333983E+02 -0.18136283321E+03  0.19345805980E+03  0.00000000000E+00 0. -1.
         -5    1    5    5    0  502 -0.21999545489E+02  0.60787644416E+02  0.14315378788E+03  0.15714392988E+03  0.47000000000E+01 0.  1.
         11    1    6    6    0    0 -0.13920822205E+02 -0.10908290498E+02  0.11041716881E+03  0.11182455571E+03  0.00000000000E+00 0. -1.
        -12    1    6    6    0    0  0.48576801801E+02 -0.52690825095E+02  0.87755841532E+02  0.11330099931E+03  0.00000000000E+00 0.  1.
</event>
<event>
12    1  0.8113184E-002  0.2645651E+03  0.7818608E-02  0.1104523E+00
         21   -1    0    0  501  502  0.00000000000E+00  0.00000000000E+00  0.14384923557E+03  0.14384923557E+03  0.00000000000E+00 0. -1.
         21   -1    0    0  502  503 -0.00000000000E+00 -0.00000000000E+00 -0.52581191140E+03  0.52581191140E+03  0.00000000000E+00 0. -1.
         -6    2    1    2    0  503 -0.20084726456E+03  0.91445832122E+01 -0.28356208862E+03  0.38738937195E+03  0.17099655058E+03 0.  0.
        -24    2    3    3    0    0 -0.20933729368E+03  0.43314482047E+02 -0.24587324546E+03  0.33559939724E+03  0.80467730913E+02 0.  0.
          6    2    1    2  501    0  0.20084726456E+03 -0.91445832122E+01 -0.98400587213E+02  0.28227177502E+03  0.17196346218E+03 0.  0.
         24    2    5    5    0    0  0.18288149464E+03  0.32234540786E+02 -0.11653200191E+03  0.23342672419E+03  0.80147497760E+02 0.  0.
          5    1    5    5  501    0  0.17965769926E+02 -0.41379123998E+02  0.18131414694E+02  0.48845050831E+02  0.47000000000E+01 0. -1.
        -11    1    6    6    0    0  0.44437853940E+02  0.29406892163E+02 -0.68661611631E+02  0.86913204297E+02  0.00000000000E+00 0.  1.
         12    1    6    6    0    0  0.13844364070E+03  0.28276486232E+01 -0.47870390276E+02  0.14651351989E+03  0.00000000000E+00 0. -1.
         -5    1    3    3    0  503  0.84900291198E+01 -0.34169898835E+02 -0.37688843161E+02  0.51789974702E+02  0.47000000000E+01 0.  1.
         11    1    4    4    0    0 -0.12720458875E+03 -0.26225159356E+01 -0.18121995838E+03  0.22142393345E+03  0.00000000000E+00 0. -1.
        -12    1    4    4    0    0 -0.82132704927E+02  0.45936997983E+02 -0.64653287075E+02  0.11417546379E+03  0.00000000000E+00 0.  1.
</event>
<event>
12    1  0.8113184E-002  0.2229724E+03  0.7818608E-02  0.1134679E+00
         21   -1    0    0  501  502  0.00000000000E+00  0.00000000000E+00  0.14911757037E+04  0.14911757037E+04  0.00000000000E+00 0.  1.
         21   -1    0    0  502  503 -0.00000000000E+00 -0.00000000000E+00 -0.52194078660E+02  0.52194078660E+02  0.00000000000E+00 0. -1.
         -6    2    1    2    0  503 -0.25045886870E+02 -0.13940431884E+03  0.21269634199E+03  0.29697808060E+03  0.15131221332E+03 0.  0.
        -24    2    3    3    0    0 -0.69477093145E+01 -0.77511370143E+02  0.20246392917E+03  0.23151760854E+03  0.80947373552E+02 0.  0.
          6    2    1    2  501    0  0.25045886870E+02  0.13940431884E+03  0.12262852831E+04  0.12463917018E+04  0.17220864739E+03 0.  0.
         24    2    5    5    0    0 -0.41098215562E+02  0.29748998649E+02  0.34142372832E+03  0.35229920511E+03  0.70501783080E+02 0.  0.
          5    1    5    5  501    0  0.66144102432E+02  0.10965532019E+03  0.88486155473E+03  0.89409249666E+03  0.47000000000E+01 0. -1.
        -11    1    6    6    0    0  0.97877273731E+01  0.26432172272E+02  0.19972380468E+03  0.20170289412E+03  0.00000000000E+00 0.  1.
         12    1    6    6    0    0 -0.50885942935E+02  0.33168263769E+01  0.14169992364E+03  0.15059631099E+03  0.00000000000E+00 0. -1.
         -5    1    3    3    0  503 -0.18098177555E+02 -0.61892948696E+02  0.10232412819E+02  0.65460472052E+02  0.47000000000E+01 0.  1.
         13    1    4    4    0    0 -0.40347760618E+02 -0.61811421172E+02  0.11583420256E+03  0.13735412646E+03  0.00000000000E+00 0. -1.
        -14    1    4    4    0    0  0.33400051303E+02 -0.15699948970E+02  0.86629726613E+02  0.94163482082E+02  0.00000000000E+00 0.  1.
</event>
<event>
12    1  0.8113184E-002  0.1866345E+03  0.7818608E-02  0.1162775E+00
         21   -1    0    0  503  502  0.00000000000E+00  0.00000000000E+00  0.10585029850E+04  0.10585029850E+04  0.00000000000E+00 0. -1.
         21   -1    0    0  501  503 -0.00000000000E+00 -0.00000000000E+00 -0.32076620598E+02  0.32076620598E+02  0.00000000000E+00 0. -1.
          6    2    1    2  501    0  0.17937145842E+01 -0.56763448694E+02  0.55064134774E+03  0.58141065217E+03  0.17778398718E+03 0.  0.
         24    2    3    3    0    0 -0.55299399539E-01 -0.34799599021E+02  0.10319731448E+03  0.13339939958E+03  0.77036997234E+02 0.  0.
         -6    2    1    2    0  502 -0.17937145842E+01  0.56763448694E+02  0.47578501669E+03  0.50916895345E+03  0.17221014644E+03 0.  0.
        -24    2    5    5    0    0 -0.11318713403E+02  0.66588588212E+02  0.15892283529E+03  0.19197659704E+03  0.83883209765E+02 0.  0.
          5    1    3    3  501    0  0.18490139838E+01 -0.21963849673E+02  0.44744403327E+03  0.44801125259E+03  0.47000000000E+01 0. -1.
        -13    1    4    4    0    0 -0.65136689548E+01  0.23869949477E+02  0.22675571902E+02  0.33561643768E+02  0.00000000000E+00 0.  1.
         14    1    4    4    0    0  0.64583695552E+01 -0.58669548498E+02  0.80521742576E+02  0.99837755813E+02  0.00000000000E+00 0. -1.
         -5    1    5    5    0  502  0.95249988184E+01 -0.98251395182E+01  0.31686218140E+03  0.31719235642E+03  0.47000000000E+01 0.  1.
         11    1    6    6    0    0 -0.37604454494E+02  0.63969603542E+02  0.14307164253E+03  0.16116978647E+03  0.00000000000E+00 0. -1.
        -12    1    6    6    0    0  0.26285741091E+02  0.26189846697E+01  0.15851192763E+02  0.30806810569E+02  0.00000000000E+00 0.  1.
</event>
<event>
12    1  0.8113184E-002  0.1752044E+03  0.7818608E-02  0.1172757E+00
         21   -1    0    0  503  502  0.00000000000E+00  0.00000000000E+00  0.53157973217E+03  0.53157973217E+03  0.00000000000E+00 0. -1.
         21   -1    0    0  501  503 -0.00000000000E+00 -0.00000000000E+00 -0.63343491901E+02  0.63343491901E+02  0.00000000000E+00 0. -1.
          6    2    1    2  501    0  0.27265583328E+02 -0.11826094165E+02  0.14389985841E+03  0.22672393944E+03  0.17266530319E+03 0.  0.
         24    2    3    3    0    0  0.18179176581E+02  0.62641731868E+02  0.77067862395E+02  0.12614250182E+03  0.75617500085E+02 0.  0.
         -6    2    1    2    0  502 -0.27265583328E+02  0.11826094165E+02  0.32433638185E+03  0.36819928463E+03  0.17173629806E+03 0.  0.
        -24    2    5    5    0    0 -0.16664377071E+02  0.42169806454E+02  0.32329673014E+03  0.33569855655E+03  0.78209661257E+02 0.  0.
          5    1    3    3  501    0  0.90864067467E+01 -0.74467826033E+02  0.66831996018E+02  0.10058143762E+03  0.47000000000E+01 0. -1.
        -11    1    4    4    0    0  0.19899368315E+02  0.58987672631E+02  0.91771508757E+02  0.11089427488E+03  0.00000000000E+00 0.  1.
         12    1    4    4    0    0 -0.17201917336E+01  0.36540592371E+01 -0.14703646362E+02  0.15248226941E+02  0.00000000000E+00 0. -1.
         -5    1    5    5    0  502 -0.10601206257E+02 -0.30343712289E+02  0.10396517113E+01  0.32500728072E+02  0.47000000000E+01 0.  1.
         13    1    6    6    0    0  0.15507508358E+01  0.51786337926E+02  0.11202825307E+03  0.12342835618E+03  0.00000000000E+00 0. -1.
        -14    1    6    6    0    0 -0.18215127907E+02 -0.96165314730E+01  0.21126847707E+03  0.21227020037E+03  0.00000000000E+00 0.  1.
</event>
<event>
12    1  0.8113184E-002  0.1972387E+03  0.7818608E-02  0.1156007E+00
         21   -1    0    0  501  502  0.00000000000E+00  0.00000000000E+00  0.46021435404E+02  0.46021435404E+02  0.00000000000E+00 0. -1.
         21   -1    0    0  502  503 -0.00000000000E+00 -0.00000000000E+00 -0.10513689748E+04  0.10513689748E+04  0.00000000000E+00 0.  1.
         -6    2    1    2    0  503  0.44247611290E+01 -0.54125645163E+02 -0.76801033630E+03  0.78879349812E+03  0.17148219159E+03 0.  0.
        -24    2    3    3    0    0  0.39744016971E+02  0.25330996762E+02 -0.39342078402E+03  0.40421550804E+03  0.79931328991E+02 0.  0.
          6    2    1    2  501    0 -0.44247611290E+01  0.54125645163E+02 -0.23733720310E+03  0.30859691209E+03  0.18961524781E+03 0.  0.
         24    2    5    5    0    0 -0.35934950655E+02  0.78134132222E+02 -0.64033622126E+02  0.13076125573E+03  0.74846095026E+02 0.  0.
          5    1    5    5  501    0  0.31510189526E+02 -0.24008487059E+02 -0.17330358097E+03  0.17783565636E+03  0.47000000000E+01 0. -1.
        -11    1    6    6    0    0  0.18232393692E+01  0.72968711166E+02 -0.55532151406E+02  0.91714649052E+02  0.00000000000E+00 0.  1.
         12    1    6    6    0    0 -0.37758190024E+02  0.51654210559E+01 -0.85014707204E+01  0.39046606677E+02  0.00000000000E+00 0. -1.
         -5    1    3    3    0  503 -0.35319255842E+02 -0.79456641925E+02 -0.37458955228E+03  0.38457799008E+03  0.47000000000E+01 0.  1.
         13    1    4    4    0    0 -0.15535602452E+02  0.21232800820E+02 -0.51504481166E+02  0.57835096217E+02  0.00000000000E+00 0. -1.
        -14    1    4    4    0    0  0.55279619423E+02  0.40981959423E+01 -0.34191630286E+03  0.34638041182E+03  0.00000000000E+00 0.  1.
</event>
<event>
12    1  0.8113184E-002  0.1833997E+03  0.7818608E-02  0.1164775E+00
         21   -1    0    0  503  502  0.00000000000E+00  0.00000000000E+00  0.91141210046E+02  0.91141210046E+02  0.00000000000E+00 0. -1.
         21   -1    0    0  501  503 -0.00000000000E+00 -0.00000000000E+00 -0.38289458505E+03  0.38289458505E+03  0.00000000000E+00 0. -1.
          6    2    1    2  501    0  0.12603907815E+02  0.59437076578E+02 -0.19356513096E+03  0.26600599437E+03  0.17204680918E+03 0.  0.
         24    2    3    3    0    0 -0.39507508411E+02 -0.18299567442E+02 -0.10669802177E+03  0.13823052652E+03  0.76338019507E+02 0.  0.
         -6    2    1    2    0  502 -0.12603907815E+02 -0.59437076578E+02 -0.98188244045E+02  0.20802980073E+03  0.17304289110E+03 0.  0.
        -24    2    5    5    0    0 -0.63003447979E+01 -0.10084130348E+03 -0.41294785830E+02  0.13722725488E+03  0.83170892222E+02 0.  0.
          5    1    3    3  501    0  0.52111416226E+02  0.77736644020E+02 -0.86867109190E+02  0.12777546785E+03  0.47000000000E+01 0. -1.
        -13    1    4    4    0    0 -0.16839410475E+01 -0.99742935978E+01 -0.98020855391E+02  0.98541414044E+02  0.00000000000E+00 0.  1.
         14    1    4    4    0    0 -0.37823567364E+02 -0.83252738443E+01 -0.86771663822E+01  0.39689112476E+02  0.00000000000E+00 0. -1.
         -5    1    5    5    0  502 -0.63035630169E+01  0.41404226898E+02 -0.56893458215E+02  0.70802545854E+02  0.47000000000E+01 0.  1.
         13    1    6    6    0    0  0.25511938673E+02 -0.74167708725E+01 -0.26333315542E+02  0.37407365751E+02  0.00000000000E+00 0. -1.
        -14    1    6    6    0    0 -0.31812283471E+02 -0.93424532604E+02 -0.14961470288E+02  0.99819889126E+02  0.00000000000E+00 0.  1.
</event>
<event>
12    1  0.8113184E-002  0.1997621E+03  0.7818608E-02  0.1150087E+00
         21   -1    0    0  501  502  0.00000000000E+00  0.00000000000E+00  0.96698037321E+02  0.96698037321E+02  0.00000000000E+00 0. -1.
         21   -1    0    0  502  503 -0.00000000000E+00 -0.00000000000E+00 -0.87710981529E+03  0.87710981529E+03  0.00000000000E+00 0.  1.
         -6    2    1    2    0  503 -0.97954188034E+02  0.17206814367E+02 -0.74473968312E+03  0.77088566859E+03  0.17244251509E+03 0.  0.
        -24    2    3    3    0    0 -0.11538132795E+03  0.41310126483E+02 -0.70989660371E+03  0.72483346948E+03  0.80068677577E+02 0.  0.
          6    2    1    2  501    0  0.97954188034E+02 -0.17206814367E+02 -0.35672094851E+02  0.20292218402E+03  0.17324496242E+03 0.  0.
         24    2    5    5    0    0  0.74305623600E+01  0.36904152782E+02  0.13474319064E+02  0.86474841538E+02  0.76676014472E+02 0.  0.
          5    1    5    5  501    0  0.90523625674E+02 -0.54110967149E+02 -0.49146413915E+02  0.11644734248E+03  0.47000000000E+01 0. -1.
        -11    1    6    6    0    0  0.78661930026E+01  0.23469347446E+02 -0.31197635801E+02  0.39824361156E+02  0.00000000000E+00 0.  1.
         12    1    6    6    0    0 -0.43563064259E+00  0.13434805335E+02  0.44671954865E+02  0.46650480382E+02  0.00000000000E+00 0. -1.
         -5    1    3    3    0  503  0.17427139912E+02 -0.24103312115E+02 -0.34843079415E+02  0.46052199117E+02  0.47000000000E+01 0.  1.
         13    1    4    4    0    0 -0.27861104905E+02  0.28171753143E+02 -0.85966484123E+02  0.94657938041E+02  0.00000000000E+00 0. -1.
        -14    1    4    4    0    0 -0.87520223041E+02  0.13138373340E+02 -0.62393011958E+03  0.63017553144E+03  0.00000000000E+00 0.  1.
</event>
<event>
12    1  0.8113184E-002  0.2116148E+03  0.7818608E-02  0.1140357E+00
         21   -1    0    0  503  502  0.00000000000E+00  0.00000000000E+00  0.23083664617E+03  0.23083664617E+03  0.00000000000E+00 0. -1.
         21   -1    0    0  501  503 -0.00000000000E+00 -0.00000000000E+00 -0.21850506914E+03  0.21850506914E+03  0.00000000000E+00 0. -1.
          6    2    1    2  501    0 -0.10013121752E+03  0.71380121187E+02  0.81864027570E+02  0.22659611614E+03  0.17182170531E+03 0.  0.
         24    2    3    3    0    0 -0.13320076821E+03  0.62727703864E+02  0.38718176043E+02  0.17135017500E+03  0.78642074189E+02 0.  0.
         -6    2    1    2    0  502  0.10013121752E+03 -0.71380121187E+02 -0.69532450534E+02  0.22274559917E+03  0.17221921452E+03 0.  0.
        -24    2    5    5    0    0  0.10395953311E+03 -0.30193690812E+01 -0.99279154577E+01  0.13184653961E+03  0.80425402617E+02 0.  0.
          5    1    3    3  501    0  0.33069550687E+02  0.86524173228E+01  0.43145851527E+02  0.55245941137E+02  0.47000000000E+01 0. -1.
        -11    1    4    4    0    0 -0.53800553686E+02 -0.25314066450E+01 -0.14268875271E+02  0.55718115528E+02  0.00000000000E+00 0.  1.
         12    1    4    4    0    0 -0.79400214525E+02  0.65259110509E+02  0.52987051314E+02  0.11563205947E+03  0.00000000000E+00 0. -1.
         -5    1    5    5    0  502 -0.38283155884E+01 -0.68360752105E+02 -0.59604535076E+02  0.90899059568E+02  0.47000000000E+01 0.  1.
         13    1    6    6    0    0  0.10469031772E+03 -0.97258383480E+01 -0.31084944577E+02  0.10963999423E+03  0.00000000000E+00 0. -1.
        -14    1    6    6    0    0 -0.73078460958E+00  0.67064692669E+01  0.21157029120E+02  0.22206545372E+02  0.00000000000E+00 0.  1.
</event>
<event>
12    1  0.8113184E-002  0.2380394E+03  0.7818608E-02  0.1121432E+00
         21   -1    0    0  503  502  0.00000000000E+00  0.00000000000E+00  0.35237772522E+03  0.35237772522E+03  0.00000000000E+00 0. -1.
         21   -1    0    0  501  503 -0.00000000000E+00 -0.00000000000E+00 -0.16900907013E+03  0.16900907013E+03  0.00000000000E+00 0.  1.
          6    2    1    2  501    0  0.90380865055E+02  0.13429982224E+03  0.15316260656E+03  0.28143851368E+03  0.17188283775E+03 0.  0.
         24    2    3    3    0    0 -0.15875748534E+02  0.93060462162E+02  0.79892238810E+02  0.14585905528E+03  0.77329200016E+02 0.  0.
         -6    2    1    2    0  502 -0.90380865055E+02 -0.13429982224E+03  0.30206048530E+02  0.23994828167E+03  0.17452114339E+03 0.  0.
        -24    2    5    5    0    0 -0.38085697928E+02 -0.25996758714E+02  0.68013985913E+02  0.11379017372E+03  0.78714353868E+02 0.  0.
          5    1    3    3  501    0  0.10625661359E+03  0.41239360077E+02  0.73270367751E+02  0.13557945840E+03  0.47000000000E+01 0. -1.
        -11    1    4    4    0    0 -0.24462040868E+02 -0.35887809263E+01  0.20304882752E+02  0.31993109501E+02  0.00000000000E+00 0.  1.
         12    1    4    4    0    0  0.85862923348E+01  0.96649243089E+02  0.59587356058E+02  0.11386594578E+03  0.00000000000E+00 0. -1.
         -5    1    5    5    0  502 -0.52295167127E+02 -0.10830306353E+03 -0.37807937383E+02  0.12615810796E+03  0.47000000000E+01 0.  1.
         13    1    6    6    0    0 -0.51387373739E+02  0.21712992519E+01  0.64418525003E+02  0.82432536561E+02  0.00000000000E+00 0. -1.
        -14    1    6    6    0    0  0.13301675812E+02 -0.28168057966E+02  0.35954609094E+01  0.31357637158E+02  0.00000000000E+00 0.  1.
</event>
<event>
12    1  0.8113184E-002  0.1814414E+03  0.7818608E-02  0.1168043E+00
         21   -1    0    0  503  502  0.00000000000E+00  0.00000000000E+00  0.41259398387E+02  0.41259398387E+02  0.00000000000E+00 0. -1.
         21   -1    0    0  501  503 -0.00000000000E+00 -0.00000000000E+00 -0.10318969698E+04  0.10318969698E+04  0.00000000000E+00 0. -1.
          6    2    1    2  501    0 -0.17973089309E+02  0.23669840202E+02 -0.75928312194E+03  0.77913961749E+03  0.17223353622E+03 0.  0.
         24    2    3    3    0    0 -0.53802368098E+01 -0.51869045975E+02 -0.47345662375E+03  0.48319438551E+03  0.81217576563E+02 0.  0.
         -6    2    1    2    0  502  0.17973089309E+02 -0.23669840202E+02 -0.23135444947E+03  0.29401675070E+03  0.17899071240E+03 0.  0.
        -24    2    5    5    0    0  0.31372888435E+02 -0.83927009460E+02 -0.14795259225E+03  0.19014933111E+03  0.78986059042E+02 0.  0.
          5    1    3    3  501    0 -0.12592852499E+02  0.75538886177E+02 -0.28582649819E+03  0.29594523197E+03  0.47000000000E+01 0. -1.
        -13    1    4    4    0    0 -0.17190457213E+01 -0.16938793524E+02 -0.41244233950E+03  0.41279360612E+03  0.00000000000E+00 0.  1.
         14    1    4    4    0    0 -0.36611910885E+01 -0.34930252451E+02 -0.61014284249E+02  0.70400779392E+02  0.00000000000E+00 0. -1.
         -5    1    5    5    0  502 -0.13399799127E+02  0.60257169258E+02 -0.83401857222E+02  0.10386741959E+03  0.47000000000E+01 0.  1.
         13    1    6    6    0    0  0.18076044252E+02 -0.95268456986E+02 -0.14146257614E+03  0.17150650926E+03  0.00000000000E+00 0. -1.
        -14    1    6    6    0    0  0.13296844183E+02  0.11341447526E+02 -0.64900161068E+01  0.18642821844E+02  0.00000000000E+00 0.  1.
</event>
<event>
12    1  0.8113184E-002  0.1714083E+03  0.7818608E-02  0.1176439E+00
         21   -1    0    0  503  502  0.00000000000E+00  0.00000000000E+00  0.13295716695E+03  0.13295716695E+03  0.00000000000E+00 0. -1.
         21   -1    0    0  501  503 -0.00000000000E+00 -0.00000000000E+00 -0.46202666990E+03  0.46202666990E+03  0.00000000000E+00 0. -1.
          6    2    1    2  501    0 -0.13293855889E+02 -0.88175058640E+01 -0.37957543622E+03  0.41648325313E+03  0.17066432942E+03 0.  0.
         24    2    3    3    0    0  0.40226975904E+02  0.25565512984E+02 -0.15028458024E+03  0.17848523200E+03  0.83664317014E+02 0.  0.
         -6    2    1    2    0  502  0.13293855889E+02  0.88175058640E+01  0.50505933275E+02  0.17850058373E+03  0.17046153256E+03 0.  0.
        -24    2    5    5    0    0  0.46554063336E+02  0.39641902265E+02 -0.12025924714E+02  0.10111384018E+03  0.79628038926E+02 0.  0.
          5    1    3    3  501    0 -0.53520831793E+02 -0.34383018847E+02 -0.22929085598E+03  0.23799802112E+03  0.47000000000E+01 0. -1.
        -11    1    4    4    0    0  0.27111270265E+02  0.11399360638E+02 -0.25787939383E+01  0.29523153227E+02  0.00000000000E+00 0.  1.
         12    1    4    4    0    0  0.13115705639E+02  0.14166152346E+02 -0.14770578630E+03  0.14896207878E+03  0.00000000000E+00 0. -1.
         -5    1    5    5    0  502 -0.33260207447E+02 -0.30824396401E+02  0.62531857989E+02  0.77386743545E+02  0.47000000000E+01 0.  1.
         13    1    6    6    0    0  0.29426405222E+02  0.34778512556E+02  0.30626205446E+02  0.54894651105E+02  0.00000000000E+00 0. -1.
        -14    1    6    6    0    0  0.17127658114E+02  0.48633897091E+01 -0.42652130160E+02  0.46219189079E+02  0.00000000000E+00 0.  1.
</event>
<event>
12    1  0.8113184E-002  0.1852693E+03  0.7818608E-02  0.1162994E+00
         21   -1    0    0  503  502  0.00000000000E+00  0.00000000000E+00  0.26093956715E+03  0.26093956715E+03  0.00000000000E+00 0. -1.
         21   -1    0    0  501  503 -0.00000000000E+00 -0.00000000000E+00 -0.15722270021E+03  0.15722270021E+03  0.00000000000E+00 0. -1.
          6    2    1    2  501    0 -0.66547771711E+02 -0.61968269269E+01  0.13742558429E+03  0.23067398854E+03  0.17279378226E+03 0.  0.
         24    2    3    3    0    0 -0.13236175548E+01  0.48338343807E+02  0.49105221727E+02  0.10799207636E+03  0.83142157242E+02 0.  0.
         -6    2    1    2    0  502  0.66547771711E+02  0.61968269269E+01 -0.33708717338E+02  0.18748827882E+03  0.17189697638E+03 0.  0.
        -24    2    5    5    0    0  0.15931640439E+02  0.64442394773E+02 -0.20463881564E+01  0.10394707936E+03  0.79963542890E+02 0.  0.
          5    1    3    3  501    0 -0.65224154156E+02 -0.54535170734E+02  0.88320362560E+02  0.12268191218E+03  0.47000000000E+01 0. -1.
        -13    1    4    4    0    0  0.12471066395E+02  0.48250320685E+02  0.68179854459E+02  0.84451841290E+02  0.00000000000E+00 0.  1.
         14    1    4    4    0    0 -0.13794683950E+02  0.88023121859E-01 -0.19074632733E+02  0.23540235072E+02  0.00000000000E+00 0. -1.
         -5    1    5    5    0  502  0.50616131271E+02 -0.58245567846E+02 -0.31662329182E+02  0.83541199464E+02  0.47000000000E+01 0.  1.
         13    1    6    6    0    0  0.47483308497E+02  0.26631144698E+02 -0.45931623183E+01  0.54634966768E+02  0.00000000000E+00 0. -1.
        -14    1    6    6    0    0 -0.31551668057E+02  0.37811250076E+02  0.25467741619E+01  0.49312112590E+02  0.00000000000E+00 0.  1.
</event>
<event>
12    1  0.8113184E-002  0.1970775E+03  0.7818608E-02  0.1152650E+00
         21   -1    0    0  501  502  0.00000000000E+00  0.00000000000E+00  0.19469879582E+03  0.19469879582E+03  0.00000000000E+00 0.  1.
         21   -1    0    0  502  503 -0.00000000000E+00 -0.00000000000E+00 -0.23792224629E+03  0.23792224629E+03  0.00000000000E+00 0.  1.
         -6    2    1    2    0  503 -0.92392715864E+02 -0.99029955238E+00  0.67617251103E+02  0.20651217421E+03  0.17186561847E+03 0.  0.
        -24    2    3    3    0    0 -0.95322260951E+02 -0.22186750446E+02  0.10426783111E+03  0.16381291450E+03  0.79901846188E+02 0.  0.
          6    2    1    2  501    0  0.92392715864E+02  0.99029955238E+00 -0.11084070158E+03  0.22610886790E+03  0.17407516876E+03 0.  0.
         24    2    5    5    0    0  0.11027059608E+03  0.36259169542E+02 -0.43166939428E+02  0.14758918964E+03  0.80279838706E+02 0.  0.
          5    1    5    5  501    0 -0.17877880215E+02 -0.35268869989E+02 -0.67673762148E+02  0.78519678263E+02  0.47000000000E+01 0. -1.
        -11    1    6    6    0    0  0.53080160221E+02  0.34229298740E+02 -0.60839544457E+02  0.87696057330E+02  0.00000000000E+00 0.  1.
         12    1    6    6    0    0  0.57190435858E+02  0.20298708012E+01  0.17672605029E+02  0.59893132307E+02  0.00000000000E+00 0. -1.
         -5    1    3    3    0  503  0.29295450869E+01  0.21196450894E+02 -0.36650580008E+02  0.42699259711E+02  0.47000000000E+01 0.  1.
         11    1    4    4    0    0  0.11094441374E+02 -0.14209623174E+02  0.67440274407E+01  0.19247907062E+02  0.00000000000E+00 0. -1.
        -12    1    4    4    0    0 -0.10641670232E+03 -0.79771272717E+01  0.97523803671E+02  0.14456500744E+03  0.00000000000E+00 0.  1.
</event>
<event>
12    1  0.8113184E-002  0.1879641E+03  0.7818608E-02  0.1162394E+00
         21   -1    0    0  503  502  0.00000000000E+00  0.00000000000E+00  0.67659272963E+03  0.67659272963E+03  0.00000000000E+00 0.  1.
         21   -1    0    0  501  503 -0.00000000000E+00 -0.00000000000E+00 -0.68859750626E+02  0.68859750626E+02  0.00000000000E+00 0.  1.
          6    2    1    2  501    0 -0.38726054551E+02 -0.55455081555E+02  0.10239801312E+03  0.20629210015E+03  0.16581949258E+03 0.  0.
         24    2    3    3    0    0 -0.20379523368E+02 -0.22631426336E+02  0.13268891459E+03  0.15777801704E+03  0.79749910188E+02 0.  0.
         -6    2    1    2    0  502  0.38726054551E+02  0.55455081555E+02  0.50533496589E+03  0.53916038011E+03  0.17537250173E+03 0.  0.
        -24    2    5    5    0    0  0.70571522180E+02 -0.17957557269E+02  0.29038960910E+03  0.30975430837E+03  0.79490835160E+02 0.  0.
          5    1    3    3  501    0 -0.18346531183E+02 -0.32823655219E+02 -0.30290901467E+02  0.48514083111E+02  0.47000000000E+01 0. -1.
        -13    1    4    4    0    0 -0.13766470461E+02 -0.50189405679E+02  0.58174456425E+02  0.78056130648E+02  0.00000000000E+00 0.  1.
         14    1    4    4    0    0 -0.66130529072E+01  0.27557979343E+02  0.74514458161E+02  0.79721886388E+02  0.00000000000E+00 0. -1.
         -5    1    5    5    0  502 -0.31845467629E+02  0.73412638824E+02  0.21494535678E+03  0.22940607174E+03  0.47000000000E+01 0.  1.
         13    1    6    6    0    0  0.22379843066E+02  0.28587464595E+02  0.63138330872E+02  0.72832337138E+02  0.00000000000E+00 0. -1.
        -14    1    6    6    0    0  0.48191679114E+02 -0.46545021864E+02  0.22725127823E+03  0.23692197124E+03  0.00000000000E+00 0.  1.
</event>
<event>
12    1  0.8113184E-002  0.2999286E+03  0.7818608E-02  0.1085980E+00
         21   -1    0    0  503  502  0.00000000000E+00  0.00000000000E+00  0.17430415292E+04  0.17430415292E+04  0.00000000000E+00 0.  1.
         21   -1    0    0  501  503 -0.00000000000E+00 -0.00000000000E+00 -0.15522914586E+03  0.15522914586E+03  0.00000000000E+00 0.  1.
          6    2    1    2  501    0 -0.43110170554E+02 -0.24218249640E+03  0.17316927355E+02  0.30042807942E+03  0.17159926155E+03 0.  0.
         24    2    3    3    0    0  0.22148776509E+02 -0.20797611416E+03 -0.11504629391E+01  0.22432327496E+03  0.81086224244E+02 0.  0.
         -6    2    1    2    0  502  0.43110170554E+02  0.24218249640E+03  0.15704954560E+04  0.15978425956E+04  0.16166055417E+03 0.  0.
        -24    2    5    5    0    0  0.76977136531E+02  0.21533605515E+03  0.11618514569E+04  0.11868928289E+04  0.80750747282E+02 0.  0.
          5    1    3    3  501    0 -0.65258947063E+02 -0.34206382243E+02  0.18467390294E+02  0.76104804462E+02  0.47000000000E+01 0. -1.
        -11    1    4    4    0    0 -0.15297850399E+02 -0.65965883993E+01 -0.97653330253E+01  0.19310643035E+02  0.00000000000E+00 0.  1.
         12    1    4    4    0    0  0.37446626908E+02 -0.20137952576E+03  0.86148700862E+01  0.20501263193E+03  0.00000000000E+00 0. -1.
         -5    1    5    5    0  502 -0.33866965976E+02  0.26846441254E+02  0.40864399906E+03  0.41094976671E+03  0.47000000000E+01 0.  1.
         13    1    6    6    0    0  0.16719129610E+02  0.62578947075E+02  0.17774165058E+03  0.18917650029E+03  0.00000000000E+00 0. -1.
        -14    1    6    6    0    0  0.60258006921E+02  0.15275710807E+03  0.98410980636E+03  0.99771632864E+03  0.00000000000E+00 0.  1.
</event>
<event>
12    1  0.8113184E-002  0.2350192E+03  0.7818608E-02  0.1123243E+00
         21   -1    0    0  503  502  0.00000000000E+00  0.00000000000E+00  0.10786337898E+03  0.10786337898E+03  0.00000000000E+00 0.  1.
         21   -1    0    0  501  503 -0.00000000000E+00 -0.00000000000E+00 -0.55982337291E+03  0.55982337291E+03  0.00000000000E+00 0. -1.
          6    2    1    2  501    0  0.15822094204E+03  0.25920035548E+02 -0.32438233649E+03  0.40027303958E+03  0.17113997560E+03 0.  0.
         24    2    3    3    0    0  0.64589215236E+02 -0.28006292679E+02 -0.24023387104E+03  0.26324018448E+03  0.81406159328E+02 0.  0.
         -6    2    1    2    0  502 -0.15822094204E+03 -0.25920035548E+02 -0.12757765744E+03  0.26741371230E+03  0.17183806362E+03 0.  0.
        -24    2    5    5    0    0 -0.17228128818E+03 -0.29069476655E+02 -0.62494560932E+02  0.20058922754E+03  0.76187868657E+02 0.  0.
          5    1    3    3  501    0  0.93631726801E+02  0.53926328227E+02 -0.84148465447E+02  0.13703285510E+03  0.47000000000E+01 0. -1.
        -11    1    4    4    0    0  0.70678055683E+02 -0.22218952672E+02 -0.10933917256E+03  0.13207620554E+03  0.00000000000E+00 0.  1.
         12    1    4    4    0    0 -0.60888404466E+01 -0.57873400069E+01 -0.13089469848E+03  0.13116397895E+03  0.00000000000E+00 0. -1.
         -5    1    5    5    0  502  0.14060346140E+02  0.31494411074E+01 -0.65083096504E+02  0.66824484760E+02  0.47000000000E+01 0.  1.
         13    1    6    6    0    0 -0.14841522069E+03 -0.50901264385E+02 -0.60570435289E+02  0.16818678331E+03  0.00000000000E+00 0. -1.
        -14    1    6    6    0    0 -0.23866067488E+02  0.21831787730E+02 -0.19241256428E+01  0.32402444234E+02  0.00000000000E+00 0.  1.
</event>
<event>
12    1  0.8113184E-002  0.2104222E+03  0.7818608E-02  0.1141250E+00
         21   -1    0    0  501  502  0.00000000000E+00  0.00000000000E+00  0.24576961376E+03  0.24576961376E+03  0.00000000000E+00 0. -1.
         21   -1    0    0  502  503 -0.00000000000E+00 -0.00000000000E+00 -0.19176787824E+03  0.19176787824E+03  0.00000000000E+00 0.  1.
         -6    2    1    2    0  503 -0.71722619658E+02 -0.98457441568E+02 -0.27008863370E+02  0.21205974074E+03  0.17146968529E+03 0.  0.
        -24    2    3    3    0    0 -0.42678881288E+02 -0.12719335508E+02  0.40285470325E+02  0.99165192971E+02  0.78914814666E+02 0.  0.
          6    2    1    2  501    0  0.71722619658E+02  0.98457441568E+02  0.81010598886E+02  0.22547775125E+03  0.17157941953E+03 0.  0.
         24    2    5    5    0    0 -0.14804724907E+02  0.85493502964E+02  0.46557427456E+02  0.13132810397E+03  0.86897398769E+02 0.  0.
          5    1    5    5  501    0  0.86527344565E+02  0.12963938604E+02  0.34453171430E+02  0.94149647281E+02  0.47000000000E+01 0. -1.
        -13    1    6    6    0    0  0.20650568883E+02  0.75869342363E+02  0.95936639261E+01  0.79212634683E+02  0.00000000000E+00 0.  1.
         14    1    6    6    0    0 -0.35455293789E+02  0.96241606010E+01  0.36963763530E+02  0.52115469289E+02  0.00000000000E+00 0. -1.
         -5    1    3    3    0  503 -0.29043738370E+02 -0.85738106060E+02 -0.67294333695E+02  0.11289454777E+03  0.47000000000E+01 0.  1.
         11    1    4    4    0    0  0.20226089917E+02  0.11003889413E+02  0.14200359753E+02  0.27052366119E+02  0.00000000000E+00 0. -1.
        -12    1    4    4    0    0 -0.62904971205E+02 -0.23723224922E+02  0.26085110572E+02  0.72112826851E+02  0.00000000000E+00 0.  1.
</event>
<event>
12    1  0.8113184E-002  0.1962794E+03  0.7818608E-02  0.1153179E+00
         21   -1    0    0  503  502  0.00000000000E+00  0.00000000000E+00  0.10414493297E+03  0.10414493297E+03  0.00000000000E+00 0. -1.
         21   -1    0    0  501  503 -0.00000000000E+00 -0.00000000000E+00 -0.48564941227E+03  0.48564941227E+03  0.00000000000E+00 0. -1.
          6    2    1    2  501    0 -0.68813356436E+02 -0.62374413427E+02 -0.33655979885E+03  0.38961277614E+03  0.17291550437E+03 0.  0.
         24    2    3    3    0    0 -0.85435715122E+01 -0.73548877997E+02 -0.11020950539E+03  0.15506243829E+03  0.80098655553E+02 0.  0.
         -6    2    1    2    0  502  0.68813356436E+02  0.62374413427E+02 -0.44944680442E+02  0.20018156910E+03  0.17154238786E+03 0.  0.
        -24    2    5    5    0    0  0.56133637002E+02  0.78639656496E+02 -0.88029795111E+02  0.15218416789E+03  0.77946105427E+02 0.  0.
          5    1    3    3  501    0 -0.60269784924E+02  0.11174464570E+02 -0.22635029346E+03  0.23455033784E+03  0.47000000000E+01 0. -1.
        -13    1    4    4    0    0 -0.51684399187E+01  0.17341367163E+02 -0.19682244291E+02  0.26736239949E+02  0.00000000000E+00 0.  1.
         14    1    4    4    0    0 -0.33751315936E+01 -0.90890245160E+02 -0.90527261102E+02  0.12832619834E+03  0.00000000000E+00 0. -1.
         -5    1    5    5    0  502  0.12679719434E+02 -0.16265243069E+02  0.43085114669E+02  0.47997401212E+02  0.47000000000E+01 0.  1.
         13    1    6    6    0    0 -0.10849084897E+02  0.43390062769E+02 -0.15454893846E+02  0.47320755848E+02  0.00000000000E+00 0. -1.
        -14    1    6    6    0    0  0.66982721899E+02  0.35249593727E+02 -0.72574901265E+02  0.10486341204E+03  0.00000000000E+00 0.  1.
</event>
<event>
12    1  0.8113184E-002  0.1886645E+03  0.7818608E-02  0.1159782E+00
         21   -1    0    0  501  502  0.00000000000E+00  0.00000000000E+00  0.35048770172E+03  0.35048770172E+03  0.00000000000E+00 0.  1.
         21   -1    0    0  502  503 -0.00000000000E+00 -0.00000000000E+00 -0.19572947612E+03  0.19572947612E+03  0.00000000000E+00 0.  1.
         -6    2    1    2    0  503  0.81187973030E+01  0.76533591213E+02 -0.11237420698E+03  0.21917889259E+03  0.17172105027E+03 0.  0.
        -24    2    3    3    0    0 -0.37055189015E+02  0.10267039659E+02 -0.10478051986E+03  0.13848379373E+03  0.81977464269E+02 0.  0.
          6    2    1    2  501    0 -0.81187973030E+01 -0.76533591213E+02  0.26713243258E+03  0.32703828526E+03  0.17225271561E+03 0.  0.
         24    2    5    5    0    0  0.59296775408E+02 -0.35505432243E+02  0.18737767384E+03  0.21473921663E+03  0.78903708495E+02 0.  0.
          5    1    5    5  501    0 -0.67415572711E+02 -0.41028158969E+02  0.79754758743E+02  0.11229906863E+03  0.47000000000E+01 0. -1.
        -11    1    6    6    0    0  0.17167793760E+02  0.21483849658E+02  0.91294242044E+02  0.95346355826E+02  0.00000000000E+00 0.  1.
         12    1    6    6    0    0  0.42128981648E+02 -0.56989281902E+02  0.96083431793E+02  0.11939286081E+03  0.00000000000E+00 0. -1.
         -5    1    3    3    0  503  0.45173986318E+02  0.66266551554E+02 -0.75936871197E+01  0.80695098852E+02  0.47000000000E+01 0.  1.
         13    1    4    4    0    0 -0.28855061710E+02  0.43274743630E+02 -0.41105124195E+02  0.66294413472E+02  0.00000000000E+00 0. -1.
        -14    1    4    4    0    0 -0.82001273058E+01 -0.33007703970E+02 -0.63675395668E+02  0.72189380262E+02  0.00000000000E+00 0.  1.
</event>
<event>
12    1  0.8113184E-002  0.2057722E+03  0.7818608E-02  0.1145312E+00
         21   -1    0    0  501  502  0.00000000000E+00  0.00000000000E+00  0.63197321368E+02  0.63197321368E+02  0.00000000000E+00 0.  1.
         21   -1    0    0  502  503 -0.00000000000E+00 -0.00000000000E+00 -0.68959181094E+03  0.68959181094E+03  0.00000000000E+00 0.  1.
         -6    2    1    2    0  503  0.10971689619E+03  0.21020095964E+02 -0.38389533536E+03  0.43475135200E+03  0.17074386610E+03 0.  0.
        -24    2    3    3    0    0  0.10897211604E+03 -0.38366279993E+02 -0.30073400308E+03  0.33245182349E+03  0.82075458080E+02 0.  0.
          6    2    1    2  501    0 -0.10971689619E+03 -0.21020095964E+02 -0.24249915421E+03  0.31803778030E+03  0.17280783595E+03 0.  0.
         24    2    5    5    0    0  0.85843001810E+01 -0.43419795570E+02 -0.11056023075E+03  0.13935681006E+03  0.72372557151E+02 0.  0.
          5    1    5    5  501    0 -0.11830119637E+03  0.22399699606E+02 -0.13193892345E+03  0.17868097024E+03  0.47000000000E+01 0. -1.
        -13    1    6    6    0    0  0.48175161607E+00 -0.60064192646E+02 -0.57466576260E+02  0.83128495174E+02  0.00000000000E+00 0.  1.
         14    1    6    6    0    0  0.81025485649E+01  0.16644397076E+02 -0.53093654494E+02  0.56228314885E+02  0.00000000000E+00 0. -1.
         -5    1    3    3    0  503  0.74478014658E+00  0.59386375958E+02 -0.83161332284E+02  0.10229952851E+03  0.47000000000E+01 0.  1.
         11    1    4    4    0    0  0.71005492275E+02  0.60047985815E+01 -0.22967541112E+03  0.24047584497E+03  0.00000000000E+00 0. -1.
        -12    1    4    4    0    0  0.37966623768E+02 -0.44371078575E+02 -0.71058591957E+02  0.91975978523E+02  0.00000000000E+00 0.  1.
</event>
<event>
12    1  0.8113184E-002  0.2251684E+03  0.7818608E-02  0.1130150E+00
         21   -1    0    0  503  502  0.00000000000E+00  0.00000000000E+00  0.13848798277E+04  0.13848798277E+04  0.00000000000E+00 0. -1.
         21   -1    0    0  501  503 -0.00000000000E+00 -0.00000000000E+00 -0.82708481854E+02  0.82708481854E+02  0.00000000000E+00 0. -1.
          6    2    1    2  501    0  0.13702327793E+03  0.52451166600E+02  0.10314914099E+03  0.24767021502E+03  0.17080482004E+03 0.  0.
         24    2    3    3    0    0  0.91486234924E+02  0.44635845702E+02  0.13834403140E+03  0.18939953768E+03  0.79818694222E+02 0.  0.
         -6    2    1    2    0  502 -0.13702327793E+03 -0.52451166600E+02  0.11990222049E+04  0.12199180946E+04  0.17035083229E+03 0.  0.
        -24    2    5    5    0    0 -0.13994207082E+03 -0.87843284655E+02  0.90270910346E+03  0.92144755087E+03  0.82955636944E+02 0.  0.
          5    1    3    3  501    0  0.45537043002E+02  0.78153208975E+01 -0.35194890414E+02  0.58270677337E+02  0.47000000000E+01 0. -1.
        -13    1    4    4    0    0  0.40203842615E+02  0.60915630130E+02  0.60667143289E+02  0.94908193693E+02  0.00000000000E+00 0.  1.
         14    1    4    4    0    0  0.51282392308E+02 -0.16279784427E+02  0.77676888113E+02  0.94491343989E+02  0.00000000000E+00 0. -1.
         -5    1    5    5    0  502  0.29187928952E+01  0.35392118055E+02  0.29631310144E+03  0.29847054370E+03  0.47000000000E+01 0.  1.
         11    1    6    6    0    0 -0.37912442444E+02  0.95820850281E+01  0.12260236749E+03  0.12868764572E+03  0.00000000000E+00 0. -1.
        -12    1    6    6    0    0 -0.10202962838E+03 -0.97425369683E+02  0.78010673596E+03  0.79275990515E+03  0.00000000000E+00 0.  1.
</event>
<event>
12    1  0.8113184E-002  0.2515048E+03  0.7818608E-02  0.1112958E+00
         21   -1    0    0  503  502  0.00000000000E+00  0.00000000000E+00  0.98772611805E+03  0.98772611805E+03  0.00000000000E+00 0. -1.
         21   -1    0    0  501  503 -0.00000000000E+00 -0.00000000000E+00 -0.64018095167E+02  0.64018095167E+02  0.00000000000E+00 0.  1.
          6    2    1    2  501    0 -0.18308172820E+03 -0.70367821930E+01  0.39463584295E+03  0.46593531850E+03  0.16670284036E+03 0.  0.
         24    2    3    3    0    0 -0.11479977343E+03  0.54334665923E+02  0.29132200775E+03  0.32764316929E+03  0.79688708614E+02 0.  0.
         -6    2    1    2    0  502  0.18308172820E+03  0.70367821930E+01  0.52907217993E+03  0.58580889472E+03  0.17229699372E+03 0.  0.
        -24    2    5    5    0    0  0.12167899129E+03 -0.39804463501E+02  0.45067492693E+03  0.47566073233E+03  0.82189234588E+02 0.  0.
          5    1    3    3  501    0 -0.68281954765E+02 -0.61371448116E+02  0.10331383520E+03  0.13829214922E+03  0.47000000000E+01 0. -1.
        -11    1    4    4    0    0 -0.99511931351E+02  0.13853333900E+02  0.15585422058E+03  0.18543213695E+03  0.00000000000E+00 0.  1.
         12    1    4    4    0    0 -0.15287842084E+02  0.40481332024E+02  0.13546778717E+03  0.14221103234E+03  0.00000000000E+00 0. -1.
         -5    1    5    5    0  502  0.61402736912E+02  0.46841245694E+02  0.78397253003E+02  0.11014816239E+03  0.47000000000E+01 0.  1.
         11    1    6    6    0    0  0.98861267946E+01  0.52227913729E+01  0.16792409997E+03  0.16829591915E+03  0.00000000000E+00 0. -1.
        -12    1    6    6    0    0  0.11179286449E+03 -0.45027254874E+02  0.28275082696E+03  0.30736481318E+03  0.00000000000E+00 0.  1.
</event>
<event>
12    1  0.8113184E-002  0.1855520E+03  0.7818608E-02  0.1163113E+00
         21   -1    0    0  503  502  0.00000000000E+00  0.00000000000E+00  0.25187286772E+02  0.25187286772E+02  0.00000000000E+00 0. -1.
         21   -1    0    0  501  503 -0.00000000000E+00 -0.00000000000E+00 -0.14312436329E+04  0.14312436329E+04  0.00000000000E+00 0. -1.
          6    2    1    2  501    0  0.58510496467E+02 -0.27761185336E+02 -0.87331921344E+03  0.89230468468E+03  0.17125139456E+03 0.  0.
         24    2    3    3    0    0  0.12729996959E+02  0.24711721567E+02 -0.20958840136E+03  0.22491428844E+03  0.76722989739E+02 0.  0.
         -6    2    1    2    0  502 -0.58510496467E+02  0.27761185336E+02 -0.53273713273E+03  0.56412623503E+03  0.17388327939E+03 0.  0.
        -24    2    5    5    0    0 -0.83699308104E+02 -0.31583402811E+02 -0.32945241707E+03  0.35081186140E+03  0.80789736226E+02 0.  0.
          5    1    3    3  501    0  0.45780499508E+02 -0.52472906903E+02 -0.66373081208E+03  0.66739039624E+03  0.47000000000E+01 0. -1.
        -13    1    4    4    0    0 -0.27478960825E+02 -0.91602158285E+01 -0.78748679177E+02  0.83906837112E+02  0.00000000000E+00 0.  1.
         14    1    4    4    0    0  0.40208957784E+02  0.33871937396E+02 -0.13083972218E+03  0.14100745133E+03  0.00000000000E+00 0. -1.
         -5    1    5    5    0  502  0.25188811637E+02  0.59344588147E+02 -0.20328471566E+03  0.21331437363E+03  0.47000000000E+01 0.  1.
         11    1    6    6    0    0 -0.53564850630E+02  0.22759029090E+02 -0.16952040365E+03  0.17923262505E+03  0.00000000000E+00 0. -1.
        -12    1    6    6    0    0 -0.30134457473E+02 -0.54342431902E+02 -0.15993201341E+03  0.17157923635E+03  0.00000000000E+00 0.  1.
</event>
<event>
12    1  0.8113184E-002  0.2646746E+03  0.7818608E-02  0.1104480E+00
         21   -1    0    0  501  502  0.00000000000E+00  0.00000000000E+00  0.18971026953E+04  0.18971026953E+04  0.00000000000E+00 0. -1.
         21   -1    0    0  502  503 -0.00000000000E+00 -0.00000000000E+00 -0.41190700163E+02  0.41190700163E+02  0.00000000000E+00 0.  1.
         -6    2    1    2    0  503  0.11016784114E+03  0.16793456526E+03  0.12424778582E+04  0.12701960144E+04  0.17119496329E+03 0.  0.
        -24    2    3    3    0    0  0.74354522581E+02  0.26627748876E+02  0.58440693906E+03  0.59615622718E+03  0.87367870209E+02 0.  0.
          6    2    1    2  501    0 -0.11016784114E+03 -0.16793456526E+03  0.61343413691E+03  0.66809738103E+03  0.17237661903E+03 0.  0.
         24    2    5    5    0    0 -0.13685129094E+03 -0.11318808731E+03  0.52569889786E+03  0.56119207008E+03  0.83889149233E+02 0.  0.
          5    1    5    5  501    0  0.26683449799E+02 -0.54746477946E+02  0.87735239045E+02  0.10690531096E+03  0.47000000000E+01 0. -1.
        -13    1    6    6    0    0 -0.53075796050E+02 -0.53698481503E+02  0.11305717114E+03  0.13595032544E+03  0.00000000000E+00 0.  1.
         14    1    6    6    0    0 -0.83775494889E+02 -0.59489605809E+02  0.41264172673E+03  0.42524174463E+03  0.00000000000E+00 0. -1.
         -5    1    3    3    0  503  0.35813318560E+02  0.14130681638E+03  0.65807091912E+03  0.67403978721E+03  0.47000000000E+01 0.  1.
         11    1    4    4    0    0 -0.10293631154E+02  0.29597385921E+02  0.20723681872E+03  0.20959261230E+03  0.00000000000E+00 0. -1.
        -12    1    4    4    0    0  0.84648153735E+02 -0.29696370441E+01  0.37717012034E+03  0.38656361488E+03  0.00000000000E+00 0.  1.
</event>
<event>
12    1  0.8113184E-002  0.1931987E+03  0.7818608E-02  0.1155688E+00
         21   -1    0    0  501  502  0.00000000000E+00  0.00000000000E+00  0.27275890824E+03  0.27275890824E+03  0.00000000000E+00 0. -1.
         21   -1    0    0  502  503 -0.00000000000E+00 -0.00000000000E+00 -0.19602815864E+03  0.19602815864E+03  0.00000000000E+00 0. -1.
         -6    2    1    2    0  503 -0.33582359790E+02 -0.81998018795E+02 -0.90730365763E+02  0.21311348486E+03  0.17127144591E+03 0.  0.
        -24    2    3    3    0    0  0.25879877257E+02 -0.60189051011E+02 -0.90755594820E+02  0.14960380570E+03  0.99258404083E+02 0.  0.
          6    2    1    2  501    0  0.33582359790E+02  0.81998018795E+02  0.16746111537E+03  0.25567358202E+03  0.17168082424E+03 0.  0.
         24    2    5    5    0    0  0.52436187693E+02  0.48110489526E+02  0.26943434286E+02  0.10982729252E+03  0.79195407370E+02 0.  0.
          5    1    5    5  501    0 -0.18853827903E+02  0.33887529268E+02  0.14051768108E+03  0.14584628951E+03  0.47000000000E+01 0. -1.
        -13    1    6    6    0    0 -0.17723799193E+02  0.70185546143E+01  0.20910926630E+02  0.28295936444E+02  0.00000000000E+00 0.  1.
         14    1    6    6    0    0  0.70159986886E+02  0.41091934912E+02  0.60325076552E+01  0.81531356074E+02  0.00000000000E+00 0. -1.
         -5    1    3    3    0  503 -0.59462237046E+02 -0.21808967784E+02  0.25229057077E-01  0.63509679159E+02  0.47000000000E+01 0.  1.
         11    1    4    4    0    0 -0.22958040036E+02 -0.45065719850E+02 -0.64211963236E+01  0.50982570258E+02  0.00000000000E+00 0. -1.
        -12    1    4    4    0    0  0.48837917293E+02 -0.15123331161E+02 -0.84334398496E+02  0.98621235445E+02  0.00000000000E+00 0.  1.
</event>
<event>
12    1  0.8113184E-002  0.1928283E+03  0.7818608E-02  0.1156573E+00
         21   -1    0    0  503  502  0.00000000000E+00  0.00000000000E+00  0.59898839332E+03  0.59898839332E+03  0.00000000000E+00 0.  1.
         21   -1    0    0  501  503 -0.00000000000E+00 -0.00000000000E+00 -0.66459447137E+02  0.66459447137E+02  0.00000000000E+00 0.  1.
          6    2    1    2  501    0 -0.49496730808E+02 -0.66727650317E+02  0.36206961414E+03  0.41021599972E+03  0.17401222735E+03 0.  0.
         24    2    3    3    0    0 -0.76980454201E+02 -0.99302568063E+02  0.29645748607E+03  0.33183537924E+03  0.80253894070E+02 0.  0.
         -6    2    1    2    0  502  0.49496730808E+02  0.66727650317E+02  0.17045933205E+03  0.25523184074E+03  0.17083443144E+03 0.  0.
        -24    2    5    5    0    0 -0.12489651807E+02  0.68038396124E+02  0.25816016549E+02  0.97790396377E+02  0.64119265153E+02 0.  0.
          5    1    3    3  501    0  0.27483723394E+02  0.32574917746E+02  0.65612128063E+02  0.78380620479E+02  0.47000000000E+01 0. -1.
        -11    1    4    4    0    0 -0.19704383392E+02 -0.63140748413E+02  0.73803484610E+02  0.99105858433E+02  0.00000000000E+00 0.  1.
         12    1    4    4    0    0 -0.57276070809E+02 -0.36161819651E+02  0.22265400146E+03  0.23272952081E+03  0.00000000000E+00 0. -1.
         -5    1    5    5    0  502  0.61986382615E+02 -0.13107458063E+01  0.14464331550E+03  0.15744144436E+03  0.47000000000E+01 0.  1.
         13    1    6    6    0    0 -0.10048321062E+02  0.69164167398E+02 -0.19275764669E+01  0.69916853183E+02  0.00000000000E+00 0. -1.
        -14    1    6    6    0    0 -0.24413307457E+01 -0.11257712741E+01  0.27743593016E+02  0.27873543194E+02  0.00000000000E+00 0.  1.
</event>
<event>
12    1  0.8113184E-002  0.2723963E+03  0.7818608E-02  0.1100471E+00
         21   -1    0    0  501  502  0.00000000000E+00  0.00000000000E+00  0.11222069329E+04  0.11222069329E+04  0.00000000000E+00 0.  1.
         21   -1    0    0  502  503 -0.00000000000E+00 -0.00000000000E+00 -0.10323187188E+03  0.10323187188E+03  0.00000000000E+00 0. -1.
         -6    2    1    2    0  503 -0.20278487341E+03 -0.55337123874E+02  0.13517036323E+03  0.30060881868E+03  0.16706505502E+03 0.  0.
        -24    2    3    3    0    0 -0.74525538156E+02  0.15260449897E+02  0.10245284426E+03  0.15051884383E+03  0.79827312891E+02 0.  0.
          6    2    1    2  501    0  0.20278487341E+03  0.55337123874E+02  0.88380469777E+03  0.92482998608E+03  0.17325085046E+03 0.  0.
         24    2    5    5    0    0  0.18039059597E+03  0.75354266892E+02  0.86103321516E+03  0.88684551429E+03  0.83052609530E+02 0.  0.
          5    1    5    5  501    0  0.22394277441E+02 -0.20017143018E+02  0.22771482604E+02  0.37984471784E+02  0.47000000000E+01 0.  1.
        -13    1    6    6    0    0  0.12251411735E+03  0.84934229353E+02  0.52608636071E+03  0.54680013825E+03  0.00000000000E+00 0.  1.
         14    1    6    6    0    0  0.57876478627E+02 -0.95799624610E+01  0.33494685446E+03  0.34004537605E+03  0.00000000000E+00 0. -1.
         -5    1    3    3    0  503 -0.12825933526E+03 -0.70597573770E+02  0.32717518974E+02  0.15008997485E+03  0.47000000000E+01 0.  1.
         11    1    4    4    0    0 -0.28115554775E+02  0.27129017878E+02  0.18741444017E+01  0.39114964509E+02  0.00000000000E+00 0. -1.
        -12    1    4    4    0    0 -0.46409983381E+02 -0.11868567982E+02  0.10057869985E+03  0.11140387932E+03  0.00000000000E+00 0.  1.
</event>
<event>
12    1  0.8113184E-002  0.1801761E+03  0.7818608E-02  0.1168143E+00
         21   -1    0    0  501  502  0.00000000000E+00  0.00000000000E+00  0.19216898805E+02  0.19216898805E+02  0.00000000000E+00 0.  1.
         21   -1    0    0  502  503 -0.00000000000E+00 -0.00000000000E+00 -0.16948390348E+04  0.16948390348E+04  0.00000000000E+00 0.  1.
         -6    2    1    2    0  503  0.21749714314E+02  0.41011762672E+02 -0.94703435548E+03  0.96402152314E+03  0.17409311262E+03 0.  0.
        -24    2    3    3    0    0 -0.93867609291E+01 -0.47380418729E+02 -0.50747154533E+03  0.51455493719E+03  0.70045690076E+02 0.  0.
          6    2    1    2  501    0 -0.21749714314E+02 -0.41011762672E+02 -0.72858778049E+03  0.75003441044E+03  0.17191988896E+03 0.  0.
         24    2    5    5    0    0 -0.71895266187E+02 -0.56478498513E+02 -0.42454681031E+03  0.44146221818E+03  0.79310439675E+02 0.  0.
          5    1    5    5  501    0  0.50145551874E+02  0.15466735841E+02 -0.30404097018E+03  0.30857219227E+03  0.47000000000E+01 0. -1.
        -11    1    6    6    0    0 -0.79780055206E+01 -0.53918071240E+02 -0.24103826054E+03  0.24712395680E+03  0.00000000000E+00 0.  1.
         12    1    6    6    0    0 -0.63917260667E+02 -0.25604272730E+01 -0.18350854976E+03  0.19433826138E+03  0.00000000000E+00 0. -1.
         -5    1    3    3    0  503  0.31136475243E+02  0.88392181401E+02 -0.43956281015E+03  0.44946658595E+03  0.47000000000E+01 0.  1.
         13    1    4    4    0    0  0.12022724120E+02 -0.22423153510E+02 -0.51927407685E+02  0.57825594485E+02  0.00000000000E+00 0. -1.
        -14    1    4    4    0    0 -0.21409485049E+02 -0.24957265219E+02 -0.45554413765E+03  0.45672934270E+03  0.00000000000E+00 0.  1.
</event>
<event>
12    1  0.8113184E-002  0.1939449E+03  0.7818608E-02  0.1155007E+00
         21   -1    0    0  501  502  0.00000000000E+00  0.00000000000E+00  0.39315846634E+02  0.39315846634E+02  0.00000000000E+00 0.  1.
         21   -1    0    0  502  503 -0.00000000000E+00 -0.00000000000E+00 -0.10529213279E+04  0.10529213279E+04  0.00000000000E+00 0. -1.
         -6    2    1    2    0  503  0.35900992844E+02 -0.83703467838E+02 -0.67325756650E+03  0.70063569841E+03  0.17122931762E+03 0.  0.
        -24    2    3    3    0    0 -0.18668320890E+02 -0.14584159770E+02 -0.16933532528E+03  0.18905481140E+03  0.80660184759E+02 0.  0.
          6    2    1    2  501    0 -0.35900992844E+02  0.83703467838E+02 -0.34034791472E+03  0.39160147609E+03  0.17093817948E+03 0.  0.
         24    2    5    5    0    0 -0.22921948776E+02  0.12330997812E+03 -0.23847069374E+03  0.28142802467E+03  0.81256968067E+02 0.  0.
          5    1    5    5  501    0 -0.12979044069E+02 -0.39606510280E+02 -0.10187722098E+03  0.11017345141E+03  0.47000000000E+01 0. -1.
        -11    1    6    6    0    0  0.14998252393E+01  0.23357747578E+02 -0.19390942288E+01  0.23486037003E+02  0.00000000000E+00 0.  1.
         12    1    6    6    0    0 -0.24421774015E+02  0.99952230540E+02 -0.23653159951E+03  0.25794198767E+03  0.00000000000E+00 0. -1.
         -5    1    3    3    0  503  0.54569313734E+02 -0.69119308068E+02 -0.50392224123E+03  0.51158088701E+03  0.47000000000E+01 0.  1.
         11    1    4    4    0    0 -0.16275674674E+02  0.11690041953E+02 -0.15972336898E+03  0.16097549275E+03  0.00000000000E+00 0. -1.
        -12    1    4    4    0    0 -0.23926462152E+01 -0.26274201723E+02 -0.96119562976E+01  0.28079318652E+02  0.00000000000E+00 0.  1.
</event>
<event>
12    1  0.8113184E-002  0.1816033E+03  0.7818608E-02  0.1166673E+00
         21   -1    0    0  503  502  0.00000000000E+00  0.00000000000E+00  0.13413323332E+03  0.13413323332E+03  0.00000000000E+00 0.  1.
         21   -1    0    0  501  503 -0.00000000000E+00 -0.00000000000E+00 -0.24768502034E+03  0.24768502034E+03  0.00000000000E+00 0. -1.
          6    2    1    2  501    0 -0.34003536502E+02  0.43052123454E+02 -0.81690230096E+02  0.19913074003E+03  0.17311854928E+03 0.  0.
         24    2    3    3    0    0 -0.21171206600E+02  0.37508788883E+02  0.25475299158E+02  0.90955244148E+02  0.75952197720E+02 0.  0.
         -6    2    1    2    0  502  0.34003536502E+02 -0.43052123454E+02 -0.31861556931E+02  0.18268751363E+03  0.17131795877E+03 0.  0.
        -24    2    5    5    0    0 -0.35219503382E+02 -0.47625047479E+02 -0.49272165986E+02  0.11100794755E+03  0.79915327148E+02 0.  0.
          5    1    3    3  501    0 -0.12832329902E+02  0.55433345710E+01 -0.10716552925E+03  0.10817549588E+03  0.47000000000E+01 0. -1.
        -11    1    4    4    0    0  0.14926354041E+02  0.44786780139E+02  0.26459805033E+02  0.54118139311E+02  0.00000000000E+00 0.  1.
         12    1    4    4    0    0 -0.36097560641E+02 -0.72779912562E+01 -0.98450587471E+00  0.36837104837E+02  0.00000000000E+00 0. -1.
         -5    1    5    5    0  502  0.69223039884E+02  0.45729240257E+01  0.17410609056E+02  0.71679566074E+02  0.47000000000E+01 0.  1.
         13    1    6    6    0    0  0.20244583176E+02 -0.86650262447E+01 -0.35603534361E+02  0.41863319109E+02  0.00000000000E+00 0. -1.
        -14    1    6    6    0    0 -0.55464086557E+02 -0.38960021235E+02 -0.13668631625E+02  0.69144628445E+02  0.00000000000E+00 0.  1.
</event>
<event>
12    1  0.8113184E-002  0.1735000E+03  0.7818608E-02  0.1174433E+00
         21   -1    0    0  503  502  0.00000000000E+00  0.00000000000E+00  0.37689305469E+02  0.37689305469E+02  0.00000000000E+00 0. -1.
         21   -1    0    0  501  503 -0.00000000000E+00 -0.00000000000E+00 -0.11882196799E+04  0.11882196799E+04  0.00000000000E+00 0. -1.
          6    2    1    2  501    0 -0.13640057736E+02 -0.26175060546E+02 -0.92855277663E+03  0.94462294892E+03  0.17097096731E+03 0.  0.
         24    2    3    3    0    0  0.34165194452E+01 -0.15835799943E+02 -0.20077349569E+03  0.21655523304E+03  0.79521866305E+02 0.  0.
         -6    2    1    2    0  502  0.13640057736E+02  0.26175060546E+02 -0.22197759776E+03  0.28128603641E+03  0.17022513152E+03 0.  0.
        -24    2    5    5    0    0 -0.32408428871E+02  0.30655930242E+02 -0.21233913069E+03  0.23379360165E+03  0.87071519048E+02 0.  0.
          5    1    3    3  501    0 -0.17056577181E+02 -0.10339260603E+02 -0.72777928094E+03  0.72806771588E+03  0.47000000000E+01 0. -1.
        -11    1    4    4    0    0 -0.30544956538E+02  0.14962923679E+02 -0.10504427693E+03  0.11041369286E+03  0.00000000000E+00 0.  1.
         12    1    4    4    0    0  0.33961475983E+02 -0.30798723622E+02 -0.95729218757E+02  0.10614154018E+03  0.00000000000E+00 0. -1.
         -5    1    5    5    0  502  0.46048486607E+02 -0.44808696958E+01 -0.96384670691E+01  0.47492434760E+02  0.47000000000E+01 0.  1.
         11    1    6    6    0    0 -0.35333713094E+02  0.25649914815E+02 -0.33944511904E+02  0.55304785502E+02  0.00000000000E+00 0. -1.
        -12    1    6    6    0    0  0.29252842228E+01  0.50060154270E+01 -0.17839461878E+03  0.17848881615E+03  0.00000000000E+00 0.  1.
</event>
<event>
12    1  0.8113184E-002  0.3006099E+03  0.7818608E-02  0.1084977E+00
         21   -1    0    0  503  502  0.00000000000E+00  0.00000000000E+00  0.14901458386E+03  0.14901458386E+03  0.00000000000E+00 0. -1.
         21   -1    0    0  501  503 -0.00000000000E+00 -0.00000000000E+00 -0.61854894307E+03  0.61854894307E+03  0.00000000000E+00 0. -1.
          6    2    1    2  501    0  0.24439559613E+03  0.33017367520E+02 -0.29006983557E+03  0.41774011959E+03  0.17189224546E+03 0.  0.
         24    2    3    3    0    0  0.14480313884E+03  0.74924760433E+02 -0.12716933287E+03  0.22220610488E+03  0.81374720160E+02 0.  0.
         -6    2    1    2    0  502 -0.24439559613E+03 -0.33017367520E+02 -0.17946452364E+03  0.34982340733E+03  0.17131709520E+03 0.  0.
        -24    2    5    5    0    0 -0.71668663838E+02 -0.28810250068E+00 -0.13193776418E+03  0.16765128874E+03  0.74584855169E+02 0.  0.
          5    1    3    3  501    0  0.99592457293E+02 -0.41907392914E+02 -0.16290050270E+03  0.19553401472E+03  0.47000000000E+01 0. -1.
        -11    1    4    4    0    0  0.83331468914E+02  0.86006608078E+02 -0.83867615732E+02  0.14620207698E+03  0.00000000000E+00 0.  1.
         12    1    4    4    0    0  0.61471669922E+02 -0.11081847645E+02 -0.43301717133E+02  0.76004027900E+02  0.00000000000E+00 0. -1.
         -5    1    5    5    0  502 -0.17272693229E+03 -0.32729265019E+02 -0.47526759459E+02  0.18217211859E+03  0.47000000000E+01 0.  1.
         13    1    6    6    0    0 -0.79157900752E+02 -0.12634238007E+02 -0.78120294749E+02  0.11193023574E+03  0.00000000000E+00 0. -1.
        -14    1    6    6    0    0  0.74892369142E+01  0.12346135507E+02 -0.53817469430E+02  0.55721052999E+02  0.00000000000E+00 0.  1.
</event>
<event>
12    1  0.8113184E-002  0.1933953E+03  0.7818608E-02  0.1156037E+00
         21   -1    0    0  503  502  0.00000000000E+00  0.00000000000E+00  0.64479631498E+03  0.64479631498E+03  0.00000000000E+00 0.  1.
         21   -1    0    0  501  503 -0.00000000000E+00 -0.00000000000E+00 -0.14088899069E+04  0.14088899069E+04  0.00000000000E+00 0.  1.
          6    2    1    2  501    0 -0.73678772200E+02 -0.43154757167E+02 -0.13877209034E+04  0.14007599224E+04  0.17049386991E+03 0.  0.
         24    2    3    3    0    0 -0.48918563535E+02 -0.92514438962E+02 -0.84763847477E+03  0.85784135950E+03  0.80304837325E+02 0.  0.
         -6    2    1    2    0  502  0.73678772200E+02  0.43154757167E+02  0.62362731155E+03  0.65292629949E+03  0.17352473690E+03 0.  0.
        -24    2    5    5    0    0  0.11875017851E+03  0.27096031817E+02  0.48020999627E+03  0.50166516552E+03  0.78933503325E+02 0.  0.
          5    1    3    3  501    0 -0.24760208664E+02  0.49359681795E+02 -0.54008242868E+03  0.54291856285E+03  0.47000000000E+01 0. -1.
        -11    1    4    4    0    0  0.21729520564E+01 -0.20655052376E+02 -0.45288279565E+03  0.45335877570E+03  0.00000000000E+00 0.  1.
         12    1    4    4    0    0 -0.51091515592E+02 -0.71859386586E+02 -0.39475567912E+03  0.40448258381E+03  0.00000000000E+00 0. -1.
         -5    1    5    5    0  502 -0.45071406310E+02  0.16058725350E+02  0.14341731528E+03  0.15126113397E+03  0.47000000000E+01 0.  1.
         11    1    6    6    0    0  0.48612955674E+01 -0.16124007071E+02  0.12542258129E+03  0.12654817145E+03  0.00000000000E+00 0. -1.
        -12    1    6    6    0    0  0.11388888294E+03  0.43220038888E+02  0.35478741498E+03  0.37511699408E+03  0.00000000000E+00 0.  1.
</event>
<event>
12    1  0.8113184E-002  0.1736210E+03  0.7818608E-02  0.1175048E+00
         21   -1    0    0  503  502  0.00000000000E+00  0.00000000000E+00  0.49929039121E+03  0.49929039121E+03  0.00000000000E+00 0. -1.
         21   -1    0    0  501  503 -0.00000000000E+00 -0.00000000000E+00 -0.10324637543E+03  0.10324637543E+03  0.00000000000E+00 0. -1.
          6    2    1    2  501    0 -0.84183461411E+01 -0.16790933432E+02  0.22797005134E+01  0.17363600785E+03  0.17260203414E+03 0.  0.
         24    2    3    3    0    0 -0.68182547662E+02 -0.18592221620E+02  0.24817526218E+02  0.10956535926E+03  0.79963290530E+02 0.  0.
         -6    2    1    2    0  502  0.84183461411E+01  0.16790933432E+02  0.39376431527E+03  0.42890075879E+03  0.16897550389E+03 0.  0.
        -24    2    5    5    0    0 -0.41616600846E+02  0.53607724270E+02  0.28576524247E+03  0.30422172393E+03  0.79267609659E+02 0.  0.
          5    1    3    3  501    0  0.59764201521E+02  0.18012881874E+01 -0.22537825705E+02  0.64070648585E+02  0.47000000000E+01 0. -1.
        -11    1    4    4    0    0 -0.15331021181E+02  0.14802047396E+02 -0.22627548498E+02  0.31082901547E+02  0.00000000000E+00 0.  1.
         12    1    4    4    0    0 -0.52851526481E+02 -0.33394269015E+02  0.47445074716E+02  0.78482457717E+02  0.00000000000E+00 0. -1.
         -5    1    5    5    0  502  0.50034946987E+02 -0.36816790837E+02  0.10799907280E+03  0.12467903486E+03  0.47000000000E+01 0.  1.
         11    1    6    6    0    0 -0.33806201104E+02 -0.13589926429E+02  0.11059303738E+03  0.11644039355E+03  0.00000000000E+00 0. -1.
        -12    1    6    6    0    0 -0.78103997414E+01  0.67197650699E+02  0.17517220509E+03  0.18778133038E+03  0.00000000000E+00 0.  1.
</event>
<event>
12    1  0.8113184E-002  0.3585129E+03  0.7818608E-02  0.1059329E+00
         21   -1    0    0  501  502  0.00000000000E+00  0.00000000000E+00  0.70009434111E+03  0.70009434111E+03  0.00000000000E+00 0. -1.
         21   -1    0    0  502  503 -0.00000000000E+00 -0.00000000000E+00 -0.29818255162E+03  0.29818255162E+03  0.00000000000E+00 0. -1.
         -6    2    1    2    0  503 -0.16970465276E+03 -0.26454786027E+03 -0.10980371431E+03  0.37346954392E+03  0.16922589937E+03 0.  0.
        -24    2    3    3    0    0 -0.15864706009E+03 -0.13306786147E+03 -0.43142951553E+02  0.22556752321E+03  0.78380149420E+02 0.  0.
          6    2    1    2  501    0  0.16970465276E+03  0.26454786027E+03  0.51171550379E+03  0.62480734881E+03  0.17247094471E+03 0.  0.
         24    2    5    5    0    0  0.29171855997E+02  0.12997128846E+03  0.26475936772E+03  0.31037175320E+03  0.92138859244E+02 0.  0.
          5    1    5    5  501    0  0.14053279676E+03  0.13457657181E+03  0.24695613607E+03  0.31443559561E+03  0.47000000000E+01 0. -1.
        -11    1    6    6    0    0  0.14069517506E+02  0.12894885657E+03  0.26520552977E+03  0.29522827092E+03  0.00000000000E+00 0.  1.
         12    1    6    6    0    0  0.15102338490E+02  0.10224318906E+01 -0.44616204844E+00  0.15143482275E+02  0.00000000000E+00 0. -1.
         -5    1    3    3    0  503 -0.11057592663E+02 -0.13147999880E+03 -0.66660762753E+02  0.14790202071E+03  0.47000000000E+01 0.  1.
         13    1    4    4    0    0 -0.11046388364E+03 -0.12404082156E+03 -0.10009541302E+02  0.16639887596E+03  0.00000000000E+00 0. -1.
        -14    1    4    4    0    0 -0.48183176451E+02 -0.90270399145E+01 -0.33133410251E+02  0.59168647250E+02  0.00000000000E+00 0.  1.
</event>
<event>
12    1  0.8113184E-002  0.3032402E+03  0.7818608E-02  0.1084522E+00
         21   -1    0    0  503  502  0.00000000000E+00  0.00000000000E+00  0.53063418287E+02  0.53063418287E+02  0.00000000000E+00 0.  1.
         21   -1    0    0  501  503 -0.00000000000E+00 -0.00000000000E+00 -0.17514664281E+04  0.17514664281E+04  0.00000000000E+00 0. -1.
          6    2    1    2  501    0 -0.22025940608E+03 -0.11689709316E+03 -0.10050854744E+04  0.10477975114E+04  0.15969870910E+03 0.  0.
         24    2    3    3    0    0 -0.98501308017E+02 -0.11247905055E+03 -0.48801546455E+03  0.51654612211E+03  0.79415100107E+02 0.  0.
         -6    2    1    2    0  502  0.22025940608E+03  0.11689709316E+03 -0.69331753541E+03  0.75673233498E+03  0.17255574620E+03 0.  0.
        -24    2    5    5    0    0  0.23934516151E+03  0.95028309300E+02 -0.65414046952E+03  0.70774823287E+03  0.81800497347E+02 0.  0.
          5    1    3    3  501    0 -0.12175809806E+03 -0.44180426163E+01 -0.51707000989E+03  0.53125138933E+03  0.47000000000E+01 0. -1.
        -11    1    4    4    0    0 -0.10615592392E+03 -0.72750263308E+02 -0.38013995006E+03  0.40133285764E+03  0.00000000000E+00 0.  1.
         12    1    4    4    0    0  0.76546159013E+01 -0.39728787240E+02 -0.10787551450E+03  0.11521326446E+03  0.00000000000E+00 0. -1.
         -5    1    5    5    0  502 -0.19085755427E+02  0.21868783865E+02 -0.39177065889E+02  0.48984102111E+02  0.47000000000E+01 0.  1.
         11    1    6    6    0    0  0.44404214121E+02  0.35824842463E+02 -0.23346453795E+03  0.24033485817E+03  0.00000000000E+00 0. -1.
        -12    1    6    6    0    0  0.19494094739E+03  0.59203466837E+02 -0.42067593156E+03  0.46741337470E+03  0.00000000000E+00 0.  1.
</event>
<event>
12    1  0.8113184E-002  0.3073175E+03  0.7818608E-02  0.1081715E+00
         21   -1    0    0  501  502  0.00000000000E+00  0.00000000000E+00  0.13255362144E+04  0.13255362144E+04  0.00000000000E+00 0.  1.
         21   -1    0    0  502  503 -0.00000000000E+00 -0.00000000000E+00 -0.83701698092E+02  0.83701698092E+02  0.00000000000E+00 0. -1.
         -6    2    1    2    0  503  0.23027334149E+03 -0.10813036238E+03  0.89373235599E+03  0.94488978673E+03  0.17129272565E+03 0.  0.
        -24    2    3    3    0    0  0.15672111073E+03 -0.98445595230E+01  0.41854173306E+03  0.45407592404E+03  0.79682749564E+02 0.  0.
          6    2    1    2  501    0 -0.23027334149E+03  0.10813036238E+03  0.34810216032E+03  0.46434812576E+03  0.17241253089E+03 0.  0.
         24    2    5    5    0    0 -0.24692912664E+03  0.11838234972E+03  0.33496743124E+03  0.44032460538E+03  0.81818114144E+02 0.  0.
          5    1    5    5  501    0  0.16655785151E+02 -0.10251987338E+02  0.13134729076E+02  0.24023520376E+02  0.47000000000E+01 0. -1.
        -11    1    6    6    0    0 -0.85761981486E+02  0.14816386688E+00  0.10727024935E+03  0.13733916345E+03  0.00000000000E+00 0.  1.
         12    1    6    6    0    0 -0.16116714516E+03  0.11823418585E+03  0.22769718189E+03  0.30298544193E+03  0.00000000000E+00 0. -1.
         -5    1    3    3    0  503  0.73552230760E+02 -0.98285802859E+02  0.47519062293E+03  0.49081386269E+03  0.47000000000E+01 0.  1.
         11    1    4    4    0    0  0.50346496684E+02 -0.41246266829E+02  0.14772144334E+03  0.16142381818E+03  0.00000000000E+00 0. -1.
        -12    1    4    4    0    0  0.10637461405E+03  0.31401707306E+02  0.27082028973E+03  0.29265210586E+03  0.00000000000E+00 0.  1.
</event>
<event>
12    1  0.8113184E-002  0.1836501E+03  0.7818608E-02  0.1164406E+00
         21   -1    0    0  503  502  0.00000000000E+00  0.00000000000E+00  0.25815973972E+02  0.25815973972E+02  0.00000000000E+00 0.  1.
         21   -1    0    0  501  503 -0.00000000000E+00 -0.00000000000E+00 -0.13271283199E+04  0.13271283199E+04  0.00000000000E+00 0.  1.
          6    2    1    2  501    0  0.47888546748E+02 -0.39934283573E+02 -0.74110197051E+03  0.76351783348E+03  0.17274053212E+03 0.  0.
         24    2    3    3    0    0  0.39069392108E+02  0.41574965143E+02 -0.32165770240E+03  0.33611039419E+03  0.79067214705E+02 0.  0.
         -6    2    1    2    0  502 -0.47888546748E+02  0.39934283573E+02 -0.56021037539E+03  0.58942646036E+03  0.17233637911E+03 0.  0.
        -24    2    5    5    0    0  0.35194125012E+02 -0.56320042679E+01 -0.28464821135E+03  0.29798930902E+03  0.80639184985E+02 0.  0.
          5    1    3    3  501    0  0.88191546400E+01 -0.81509248716E+02 -0.41944426811E+03  0.42740743930E+03  0.47000000000E+01 0. -1.
        -13    1    4    4    0    0  0.60720749100E+02  0.40945801787E+02 -0.21088733807E+03  0.22324210493E+03  0.00000000000E+00 0.  1.
         14    1    4    4    0    0 -0.21651356992E+02  0.62916335570E+00 -0.11077036433E+03  0.11286828926E+03  0.00000000000E+00 0. -1.
         -5    1    5    5    0  502 -0.83082671761E+02  0.45566287840E+02 -0.27556216404E+03  0.29143715135E+03  0.47000000000E+01 0.  1.
         11    1    6    6    0    0  0.41432689675E+02  0.18425272568E+02 -0.25633836218E+03  0.26031810227E+03  0.00000000000E+00 0. -1.
        -12    1    6    6    0    0 -0.62385646629E+01 -0.24057276836E+02 -0.28309849172E+02  0.37671206749E+02  0.00000000000E+00 0.  1.
</event>
<event>
12    1  0.8113184E-002  0.1847347E+03  0.7818608E-02  0.1163397E+00
         21   -1    0    0  501  502  0.00000000000E+00  0.00000000000E+00  0.50418219047E+03  0.50418219047E+03  0.00000000000E+00 0. -1.
         21   -1    0    0  502  503 -0.00000000000E+00 -0.00000000000E+00 -0.67833663707E+02  0.67833663707E+02  0.00000000000E+00 0. -1.
         -6    2    1    2    0  503 -0.24848202306E+02 -0.63949609799E+02  0.23747720413E+03  0.30086931506E+03  0.17152240819E+03 0.  0.
        -24    2    3    3    0    0  0.20288619240E+02  0.84341997824E+01  0.17994167355E+03  0.19786846153E+03  0.79310518802E+02 0.  0.
          6    2    1    2  501    0  0.24848202306E+02  0.63949609799E+02  0.19887132264E+03  0.27114653912E+03  0.17106623559E+03 0.  0.
         24    2    5    5    0    0  0.34062383920E+02  0.10643894643E+03  0.14554543265E+03  0.20218288628E+03  0.84881984103E+02 0.  0.
          5    1    5    5  501    0 -0.92141816148E+01 -0.42489336627E+02  0.53325889983E+02  0.68963652835E+02  0.47000000000E+01 0. -1.
        -13    1    6    6    0    0  0.36570646824E+02  0.52338294519E+01  0.24249940399E+02  0.44191229777E+02  0.00000000000E+00 0.  1.
         14    1    6    6    0    0 -0.25082629038E+01  0.10120511697E+03  0.12129549225E+03  0.15799165651E+03  0.00000000000E+00 0. -1.
         -5    1    3    3    0  503 -0.45136821546E+02 -0.72383809582E+02  0.57535530584E+02  0.10300085353E+03  0.47000000000E+01 0.  1.
         13    1    4    4    0    0 -0.18599532384E+02 -0.77079094985E+01  0.94250999417E+01  0.22230316747E+02  0.00000000000E+00 0. -1.
        -14    1    4    4    0    0  0.38888151624E+02  0.16142109281E+02  0.17051657361E+03  0.17563814478E+03  0.00000000000E+00 0.  1.
</event>
<event>
12    1  0.8113184E-002  0.1784431E+03  0.7818608E-02  0.1170394E+00
         21   -1    0    0  503  502  0.00000000000E+00  0.00000000000E+00  0.91667752328E+02  0.91667752328E+02  0.00000000000E+00 0.  1.
         21   -1    0    0  501  503 -0.00000000000E+00 -0.00000000000E+00 -0.33943531648E+03  0.33943531648E+03  0.00000000000E+00 0.  1.
          6    2    1    2  501    0 -0.44149269534E+02 -0.22039394527E+02 -0.11439875614E+03  0.20832701348E+03  0.16696759036E+03 0.  0.
         24    2    3    3    0    0 -0.81010095277E+02 -0.28834368395E+02 -0.12267839493E+03  0.16965487154E+03  0.79616144820E+02 0.  0.
         -6    2    1    2    0  502  0.44149269534E+02  0.22039394527E+02 -0.13336880801E+03  0.22277605532E+03  0.17148480680E+03 0.  0.
        -24    2    5    5    0    0 -0.15385139644E+02  0.54321253335E+02 -0.11579552433E+03  0.15265206097E+03  0.81893511209E+02 0.  0.
          5    1    3    3  501    0  0.36860825743E+02  0.67949738676E+01  0.82796387915E+01  0.38672141948E+02  0.47000000000E+01 0. -1.
        -11    1    4    4    0    0 -0.50734297737E+00 -0.12668790019E+02 -0.72123974143E+02  0.73229934341E+02  0.00000000000E+00 0.  1.
         12    1    4    4    0    0 -0.80502752300E+02 -0.16165578376E+02 -0.50554420788E+02  0.96424937196E+02  0.00000000000E+00 0. -1.
         -5    1    5    5    0  502  0.59534409178E+02 -0.32281858808E+02 -0.17573283680E+02  0.70123994350E+02  0.47000000000E+01 0.  1.
         13    1    6    6    0    0  0.24450856170E+02  0.40970777230E+02 -0.93780626360E+02  0.10522003058E+03  0.00000000000E+00 0. -1.
        -14    1    6    6    0    0 -0.39835995814E+02  0.13350476105E+02 -0.22014897972E+02  0.47432030396E+02  0.00000000000E+00 0.  1.
</event>
<event>
12    1  0.8113184E-002  0.2332178E+03  0.7818608E-02  0.1124446E+00
         21   -1    0    0  503  502  0.00000000000E+00  0.00000000000E+00  0.16811491921E+03  0.16811491921E+03  0.00000000000E+00 0.  1.
         21   -1    0    0  501  503 -0.00000000000E+00 -0.00000000000E+00 -0.42004466116E+03  0.42004466116E+03  0.00000000000E+00 0.  1.
          6    2    1    2  501    0 -0.11815017883E+03  0.10400202616E+03 -0.26716498195E+03  0.35444465743E+03  0.17169158802E+03 0.  0.
         24    2    3    3    0    0 -0.10966993837E+03  0.11867533054E+02 -0.19980426203E+03  0.23990105924E+03  0.73908330900E+02 0.  0.
         -6    2    1    2    0  502  0.11815017883E+03 -0.10400202616E+03  0.15235240000E+02  0.23371492294E+03  0.17208912361E+03 0.  0.
        -24    2    5    5    0    0  0.91413876297E+02 -0.17278713539E+02 -0.40752806233E+02  0.12697920190E+03  0.76209420532E+02 0.  0.
          5    1    3    3  501    0 -0.84802404529E+01  0.92134493104E+02 -0.67360719920E+02  0.11454359819E+03  0.47000000000E+01 0. -1.
        -11    1    4    4    0    0 -0.41843079112E+02  0.23492011466E+02 -0.14245847903E+03  0.15032343835E+03  0.00000000000E+00 0.  1.
         12    1    4    4    0    0 -0.67826859260E+02 -0.11624478411E+02 -0.57345783003E+02  0.89577620886E+02  0.00000000000E+00 0. -1.
         -5    1    5    5    0  502  0.26736302528E+02 -0.86723312619E+02  0.55988046232E+02  0.10673572104E+03  0.47000000000E+01 0.  1.
         11    1    6    6    0    0  0.15355553800E+02 -0.10329218106E+02  0.21556988499E+02  0.28411081154E+02  0.00000000000E+00 0. -1.
        -12    1    6    6    0    0  0.76058322496E+02 -0.69494954328E+01 -0.62309794731E+02  0.98568120745E+02  0.00000000000E+00 0.  1.
</event>
<event>
12    1  0.8113184E-002  0.1996930E+03  0.7818608E-02  0.1150199E+00
         21   -1    0    0  503  502  0.00000000000E+00  0.00000000000E+00  0.14163784575E+03  0.14163784575E+03  0.00000000000E+00 0. -1.
         21   -1    0    0  501  503 -0.00000000000E+00 -0.00000000000E+00 -0.31603564992E+03  0.31603564992E+03  0.00000000000E+00 0. -1.
          6    2    1    2  501    0  0.91528779940E+02  0.45961925754E+02 -0.16443059137E+03  0.25867879358E+03  0.17142719356E+03 0.  0.
         24    2    3    3    0    0  0.74451562305E+02 -0.37112610551E+02 -0.82698415774E+02  0.14080068504E+03  0.77880831694E+02 0.  0.
         -6    2    1    2    0  502 -0.91528779940E+02 -0.45961925754E+02 -0.99672127938E+01  0.19899470209E+03  0.17032184227E+03 0.  0.
        -24    2    5    5    0    0 -0.52299201350E+02 -0.18165849716E+02  0.60068700338E+02  0.11391414728E+03  0.79391307034E+02 0.  0.
          5    1    3    3  501    0  0.17077217635E+02  0.83074536304E+02 -0.81732175595E+02  0.11787810853E+03  0.47000000000E+01 0. -1.
        -11    1    4    4    0    0  0.54725880856E+02 -0.44777969831E+02 -0.18337352663E+02  0.73049620945E+02  0.00000000000E+00 0.  1.
         12    1    4    4    0    0  0.19725681449E+02  0.76653592799E+01 -0.64361063111E+02  0.67751064097E+02  0.00000000000E+00 0. -1.
         -5    1    5    5    0  502 -0.39229578590E+02 -0.27796076038E+02 -0.70035913131E+02  0.85080554815E+02  0.47000000000E+01 0.  1.
         11    1    6    6    0    0 -0.67450214851E+02 -0.33300160617E+02  0.44053833804E+02  0.87173232436E+02  0.00000000000E+00 0. -1.
        -12    1    6    6    0    0  0.15151013501E+02  0.15134310901E+02  0.16014866534E+02  0.26740914844E+02  0.00000000000E+00 0.  1.
</event>
<event>
12    1  0.8113184E-002  0.2768026E+03  0.7818608E-02  0.1097468E+00
         21   -1    0    0  501  502  0.00000000000E+00  0.00000000000E+00  0.45433239058E+03  0.45433239058E+03  0.00000000000E+00 0.  1.
         21   -1    0    0  502  503 -0.00000000000E+00 -0.00000000000E+00 -0.55713476834E+03  0.55713476834E+03  0.00000000000E+00 0. -1.
         -6    2    1    2    0  503  0.19729213805E+03  0.89501647459E+02 -0.47376458333E+03  0.54870079572E+03  0.17229320990E+03 0.  0.
        -24    2    3    3    0    0  0.16169777153E+03  0.83256095211E+02 -0.47205777090E+03  0.51221834707E+03  0.80320291964E+02 0.  0.
          6    2    1    2  501    0 -0.19729213805E+03 -0.89501647459E+02  0.37096220556E+03  0.46276636320E+03  0.17206108310E+03 0.  0.
         24    2    5    5    0    0 -0.20512414266E+03 -0.41161690887E+02  0.32766553722E+03  0.39723176785E+03  0.81597637287E+02 0.  0.
          5    1    5    5  501    0  0.78320046092E+01 -0.48339956572E+02  0.43296668341E+02  0.65534595345E+02  0.47000000000E+01 0. -1.
        -11    1    6    6    0    0 -0.20799688911E+03 -0.27108651981E+02  0.31238523445E+03  0.37627399537E+03  0.00000000000E+00 0.  1.
         12    1    6    6    0    0  0.28727464464E+01 -0.14053038906E+02  0.15280302770E+02  0.20957772481E+02  0.00000000000E+00 0. -1.
         -5    1    3    3    0  503  0.35594366527E+02  0.62455522477E+01 -0.17068124305E+01  0.36482448657E+02  0.47000000000E+01 0.  1.
         11    1    4    4    0    0  0.62264955923E+02 -0.37333846679E+01 -0.20481704152E+03  0.21410484207E+03  0.00000000000E+00 0. -1.
        -12    1    4    4    0    0  0.99432815602E+02  0.86989479879E+02 -0.26724072937E+03  0.29811350500E+03  0.00000000000E+00 0.  1.
</event>
<event>
12    1  0.8113184E-002  0.2236673E+03  0.7818608E-02  0.1131458E+00
         21   -1    0    0  501  502  0.00000000000E+00  0.00000000000E+00  0.73136972386E+02  0.73136972386E+02  0.00000000000E+00 0.  1.
         21   -1    0    0  502  503 -0.00000000000E+00 -0.00000000000E+00 -0.94566255787E+03  0.94566255787E+03  0.00000000000E+00 0.  1.
         -6    2    1    2    0  503  0.84170465762E+02 -0.11599450846E+03 -0.70766511081E+03  0.74217043367E+03  0.17171968515E+03 0.  0.
        -24    2    3    3    0    0  0.96482029308E+02 -0.13987662770E+03 -0.53333800399E+03  0.56572225322E+03  0.81963335256E+02 0.  0.
          6    2    1    2  501    0 -0.84170465762E+02  0.11599450846E+03 -0.16486047467E+03  0.27662909658E+03  0.16972120570E+03 0.  0.
         24    2    5    5    0    0 -0.10837069611E+03  0.78423894188E+02 -0.66729431891E+02  0.16869859226E+03  0.78178532812E+02 0.  0.
          5    1    5    5  501    0  0.24200230352E+02  0.37570614268E+02 -0.98131042784E+02  0.10793050432E+03  0.47000000000E+01 0. -1.
        -13    1    6    6    0    0 -0.74942901415E+02  0.76727551398E+02 -0.16761651743E+02  0.10855647648E+03  0.00000000000E+00 0.  1.
         14    1    6    6    0    0 -0.33427794699E+02  0.16963427895E+01 -0.49967780148E+02  0.60142115778E+02  0.00000000000E+00 0. -1.
         -5    1    3    3    0  503 -0.12311563546E+02  0.23882119244E+02 -0.17432710681E+03  0.17644818046E+03  0.47000000000E+01 0.  1.
         11    1    4    4    0    0  0.83522687827E+02 -0.50449838914E+02 -0.25213525682E+03  0.27035793563E+03  0.00000000000E+00 0. -1.
        -12    1    4    4    0    0  0.12959341480E+02 -0.89426788786E+02 -0.28120274718E+03  0.29536431759E+03  0.00000000000E+00 0.  1.
</event>
<event>
12    1  0.8113184E-002  0.1862228E+03  0.7818608E-02  0.1162025E+00
         21   -1    0    0  503  502  0.00000000000E+00  0.00000000000E+00  0.17564364412E+02  0.17564364412E+02  0.00000000000E+00 0. -1.
         21   -1    0    0  501  503 -0.00000000000E+00 -0.00000000000E+00 -0.19986633027E+04  0.19986633027E+04  0.00000000000E+00 0. -1.
          6    2    1    2  501    0 -0.38179512333E+02  0.57091046283E+02 -0.11140493042E+04  0.11295064344E+04  0.17309497564E+03 0.  0.
         24    2    3    3    0    0  0.13660821542E+02 -0.34789688505E+01 -0.84071201767E+03  0.84474072523E+03  0.81187898977E+02 0.  0.
         -6    2    1    2    0  502  0.38179512333E+02 -0.57091046283E+02 -0.86704963411E+03  0.88672123267E+03  0.17257582021E+03 0.  0.
        -24    2    5    5    0    0 -0.80472516823E+01 -0.68655379917E+02 -0.78232469931E+03  0.78940190211E+03  0.79656188989E+02 0.  0.
          5    1    3    3  501    0 -0.51840333875E+02  0.60570015133E+02 -0.27333728649E+03  0.28476570919E+03  0.47000000000E+01 0. -1.
        -11    1    4    4    0    0 -0.15195208557E+02  0.30737014241E+02 -0.48744641170E+03  0.48865085970E+03  0.00000000000E+00 0.  1.
         12    1    4    4    0    0  0.28856030099E+02 -0.34215983091E+02 -0.35326560597E+03  0.35608986553E+03  0.00000000000E+00 0. -1.
         -5    1    5    5    0  502  0.46226764015E+02  0.11564333634E+02 -0.84724934797E+02  0.97319330557E+02  0.47000000000E+01 0.  1.
         13    1    6    6    0    0 -0.22828170587E+02  0.10345004154E+02 -0.19458181144E+03  0.19618926022E+03  0.00000000000E+00 0. -1.
        -14    1    6    6    0    0  0.14780918904E+02 -0.79000384071E+02 -0.58774288787E+03  0.59321264189E+03  0.00000000000E+00 0.  1.
</event>
<event>
12    1  0.8113184E-002  0.2208927E+03  0.7818608E-02  0.1133637E+00
         21   -1    0    0  501  502  0.00000000000E+00  0.00000000000E+00  0.53515237075E+02  0.53515237075E+02  0.00000000000E+00 0. -1.
         21   -1    0    0  502  503 -0.00000000000E+00 -0.00000000000E+00 -0.12791095383E+04  0.12791095383E+04  0.00000000000E+00 0. -1.
         -6    2    1    2    0  503  0.13052290858E+03  0.46057737057E+02 -0.97211871482E+03  0.99640539358E+03  0.16926714936E+03 0.  0.
        -24    2    3    3    0    0  0.14690508630E+03  0.76155330171E+02 -0.81005934658E+03  0.83069610087E+03  0.80493032750E+02 0.  0.
          6    2    1    2  501    0 -0.13052290858E+03 -0.46057737057E+02 -0.25347558643E+03  0.33621938182E+03  0.17215125612E+03 0.  0.
         24    2    5    5    0    0 -0.14315466227E+03 -0.12176555524E+02 -0.14087513033E+03  0.21786209063E+03  0.83525818476E+02 0.  0.
          5    1    5    5  501    0  0.12631753691E+02 -0.33881181533E+02 -0.11260045610E+03  0.11835729119E+03  0.47000000000E+01 0. -1.
        -11    1    6    6    0    0  0.98885474944E+01  0.27589758350E+01 -0.15918627910E+01  0.10388904964E+02  0.00000000000E+00 0.  1.
         12    1    6    6    0    0 -0.15304320977E+03 -0.14935531359E+02 -0.13928326754E+03  0.20747318566E+03  0.00000000000E+00 0. -1.
         -5    1    3    3    0  503 -0.16382177722E+02 -0.30097593114E+02 -0.16205936824E+03  0.16570929271E+03  0.47000000000E+01 0.  1.
         13    1    4    4    0    0  0.96931817190E+02  0.63024985432E+01 -0.47251665401E+03  0.48239764405E+03  0.00000000000E+00 0. -1.
        -14    1    4    4    0    0  0.49973269114E+02  0.69852831628E+02 -0.33754269257E+03  0.34829845682E+03  0.00000000000E+00 0.  1.
</event>
<event>
12    1  0.8113184E-002  0.2177024E+03  0.7818608E-02  0.1135729E+00
         21   -1    0    0  503  502  0.00000000000E+00  0.00000000000E+00  0.94016994086E+03  0.94016994086E+03  0.00000000000E+00 0.  1.
         21   -1    0    0  501  503 -0.00000000000E+00 -0.00000000000E+00 -0.54826654320E+02  0.54826654320E+02  0.00000000000E+00 0.  1.
          6    2    1    2  501    0 -0.10585003681E+03 -0.78496468693E+02  0.29852803710E+03  0.36910004680E+03  0.17248167940E+03 0.  0.
         24    2    3    3    0    0 -0.14065450770E+03 -0.64528407150E+02  0.27196384587E+03  0.32290259889E+03  0.79712916427E+02 0.  0.
         -6    2    1    2    0  502  0.10585003681E+03  0.78496468693E+02  0.58681524944E+03  0.62589654838E+03  0.17328712128E+03 0.  0.
        -24    2    5    5    0    0  0.13056635520E+03  0.40838077235E+02  0.53264920909E+03  0.55529130233E+03  0.76928075731E+02 0.  0.
          5    1    3    3  501    0  0.34804470898E+02 -0.13968061543E+02  0.26564191228E+02  0.46197447909E+02  0.47000000000E+01 0. -1.
        -11    1    4    4    0    0 -0.39988257046E+02 -0.19446353691E+02  0.21843425257E+02  0.49541463446E+02  0.00000000000E+00 0.  1.
         12    1    4    4    0    0 -0.10066625066E+03 -0.45082053459E+02  0.25012042061E+03  0.27336113545E+03  0.00000000000E+00 0. -1.
         -5    1    5    5    0  502 -0.24716318391E+02  0.37658391457E+02  0.54166040347E+02  0.70605246043E+02  0.47000000000E+01 0.  1.
         11    1    6    6    0    0  0.87506217106E+02  0.10816890019E+02  0.44051787243E+03  0.44925531613E+03  0.00000000000E+00 0. -1.
        -12    1    6    6    0    0  0.43060138091E+02  0.30021187216E+02  0.92131336670E+02  0.10603598621E+03  0.00000000000E+00 0.  1.
</event>
<event>
12    1  0.8113184E-002  0.2240834E+03  0.7818608E-02  0.1131021E+00
         21   -1    0    0  501  502  0.00000000000E+00  0.00000000000E+00  0.14368143393E+03  0.14368143393E+03  0.00000000000E+00 0. -1.
         21   -1    0    0  502  503 -0.00000000000E+00 -0.00000000000E+00 -0.76192230336E+03  0.76192230336E+03  0.00000000000E+00 0.  1.
         -6    2    1    2    0  503 -0.13650996609E+03 -0.45067716962E+02 -0.64302431906E+03  0.68095053083E+03  0.17189322434E+03 0.  0.
        -24    2    3    3    0    0 -0.15730188769E+03 -0.65611664503E+02 -0.57181790592E+03  0.60383502618E+03  0.92694373717E+02 0.  0.
          6    2    1    2  501    0  0.13650996609E+03  0.45067716962E+02  0.24783449626E+02  0.22465320646E+03  0.17084722369E+03 0.  0.
         24    2    5    5    0    0  0.11371524019E+03  0.13719054083E+02 -0.43876671204E+02  0.14566814214E+03  0.78579113398E+02 0.  0.
          5    1    5    5  501    0  0.22794725896E+02  0.31348662878E+02  0.68660120830E+02  0.78985064318E+02  0.47000000000E+01 0. -1.
        -11    1    6    6    0    0  0.40351628634E+02  0.43658075512E+02 -0.14801061459E+02  0.61264613858E+02  0.00000000000E+00 0.  1.
         12    1    6    6    0    0  0.73363611558E+02 -0.29939021428E+02 -0.29075609745E+02  0.84403528285E+02  0.00000000000E+00 0. -1.
         -5    1    3    3    0  503  0.20791921605E+02  0.20543947541E+02 -0.71206413139E+02  0.77115504646E+02  0.47000000000E+01 0.  1.
         13    1    4    4    0    0 -0.59765753967E+02 -0.62289224355E+02 -0.17420478583E+03  0.19442016414E+03  0.00000000000E+00 0. -1.
        -14    1    4    4    0    0 -0.97536133726E+02 -0.33224401482E+01 -0.39761312010E+03  0.40941486204E+03  0.00000000000E+00 0.  1.
</event>
<event>
12    1  0.8113184E-002  0.2120978E+03  0.7818608E-02  0.1140127E+00
         21   -1    0    0  503  502  0.00000000000E+00  0.00000000000E+00  0.33666218348E+03  0.33666218348E+03  0.00000000000E+00 0. -1.
         21   -1    0    0  501  503 -0.00000000000E+00 -0.00000000000E+00 -0.13956637932E+03  0.13956637932E+03  0.00000000000E+00 0. -1.
          6    2    1    2  501    0 -0.36954879181E+02 -0.11750523676E+03  0.46437190805E+02  0.21606802345E+03  0.17133544380E+03 0.  0.
         24    2    3    3    0    0 -0.64702530014E+02 -0.10515153014E+03  0.84138155458E+02  0.16742648842E+03  0.75558838917E+02 0.  0.
         -6    2    1    2    0  502  0.36954879181E+02  0.11750523676E+03  0.15065861335E+03  0.26016053936E+03  0.17266251678E+03 0.  0.
        -24    2    5    5    0    0 -0.39379320411E+02  0.81725713720E+02  0.54653775301E+02  0.13230865934E+03  0.79301469230E+02 0.  0.
          5    1    3    3  501    0  0.27747650833E+02 -0.12353706620E+02 -0.37700964653E+02  0.48641535027E+02  0.47000000000E+01 0. -1.
        -13    1    4    4    0    0 -0.25177093880E+02 -0.99773979138E+02  0.72489709818E+02  0.12587092992E+03  0.00000000000E+00 0.  1.
         14    1    4    4    0    0 -0.39525436134E+02 -0.53775510064E+01  0.11648445640E+02  0.41555558500E+02  0.00000000000E+00 0. -1.
         -5    1    5    5    0  502  0.76334199592E+02  0.35779523044E+02  0.96004838051E+02  0.12785188002E+03  0.47000000000E+01 0.  1.
         13    1    6    6    0    0 -0.50202253268E+02  0.15581282967E+02  0.32103195949E+02  0.61592676530E+02  0.00000000000E+00 0. -1.
        -14    1    6    6    0    0  0.10822932857E+02  0.66144430753E+02  0.22550579352E+02  0.70715982807E+02  0.00000000000E+00 0.  1.
</event>
<event>
12    1  0.8113184E-002  0.2382118E+03  0.7818608E-02  0.1121081E+00
         21   -1    0    0  503  502  0.00000000000E+00  0.00000000000E+00  0.38309363541E+02  0.38309363541E+02  0.00000000000E+00 0. -1.
         21   -1    0    0  501  503 -0.00000000000E+00 -0.00000000000E+00 -0.15021336729E+04  0.15021336729E+04  0.00000000000E+00 0. -1.
          6    2    1    2  501    0 -0.15940065711E+03  0.40724885618E+02 -0.83064096625E+03  0.86412341791E+03  0.17227240279E+03 0.  0.
         24    2    3    3    0    0 -0.32578216967E+02  0.57150180026E+02 -0.47798050038E+03  0.48896316440E+03  0.79322973349E+02 0.  0.
         -6    2    1    2    0  502  0.15940065711E+03 -0.40724885618E+02 -0.63318334315E+03  0.67631961858E+03  0.17152257762E+03 0.  0.
        -24    2    5    5    0    0  0.11649067761E+03 -0.72228021874E+01 -0.21444152308E+03  0.25402770792E+03  0.70161689878E+02 0.  0.
          5    1    3    3  501    0 -0.12682244015E+03 -0.16425294408E+02 -0.35266046587E+03  0.37516025350E+03  0.47000000000E+01 0. -1.
        -11    1    4    4    0    0  0.17612170491E+02  0.22280353351E+02 -0.58228889238E+02  0.64785849047E+02  0.00000000000E+00 0.  1.
         12    1    4    4    0    0 -0.50190387458E+02  0.34869826675E+02 -0.41975161114E+03  0.42417731535E+03  0.00000000000E+00 0. -1.
         -5    1    5    5    0  502  0.42909979503E+02 -0.33502083431E+02 -0.41874182007E+03  0.42229191067E+03  0.47000000000E+01 0.  1.
         11    1    6    6    0    0  0.64209387015E+02  0.29976122897E+02 -0.95974760068E+02  0.11930032647E+03  0.00000000000E+00 0. -1.
        -12    1    6    6    0    0  0.52281290593E+02 -0.37198925084E+02 -0.11846676301E+03  0.13472738145E+03  0.00000000000E+00 0.  1.
</event>
<event>
12    1  0.8113184E-002  0.1800190E+03  0.7818608E-02  0.1172670E+00
         21   -1    0    0  503  502  0.00000000000E+00  0.00000000000E+00  0.13503348078E+03  0.13503348078E+03  0.00000000000E+00 0.  1.
         21   -1    0    0  501  503 -0.00000000000E+00 -0.00000000000E+00 -0.23571894705E+03  0.23571894705E+03  0.00000000000E+00 0.  1.
          6    2    1    2  501    0 -0.37705219878E+02  0.30356826675E+02 -0.10739575100E+03  0.20962030935E+03  0.17338859890E+03 0.  0.
         24    2    3    3    0    0 -0.36258716448E+02  0.35974509641E+02 -0.14319252907E+03  0.17305324692E+03  0.82670829352E+02 0.  0.
         -6    2    1    2    0  502  0.37705219878E+02 -0.30356826675E+02  0.67102847343E+01  0.16113211849E+03  0.15354253858E+03 0.  0.
        -24    2    5    5    0    0  0.45843543173E+02 -0.57454293603E+02  0.41133273837E+02  0.11632656974E+03  0.80232775758E+02 0.  0.
          5    1    3    3  501    0 -0.14465034293E+01 -0.56176829664E+01  0.35796778074E+02  0.36567062427E+02  0.47000000000E+01 0. -1.
        -11    1    4    4    0    0 -0.31334231762E+02 -0.22265636960E+02 -0.63427779975E+02  0.74166541930E+02  0.00000000000E+00 0.  1.
         12    1    4    4    0    0 -0.49244846859E+01  0.58240146601E+02 -0.79764749099E+02  0.98886704993E+02  0.00000000000E+00 0. -1.
         -5    1    5    5    0  502 -0.81383232957E+01  0.27097466928E+02 -0.34422989103E+02  0.44805548749E+02  0.47000000000E+01 0.  1.
         11    1    6    6    0    0 -0.12568856684E+02  0.12411655763E+02  0.50582542025E+01  0.18374201824E+02  0.00000000000E+00 0. -1.
        -12    1    6    6    0    0  0.58412399857E+02 -0.69865949365E+02  0.36075019635E+02  0.97952367911E+02  0.00000000000E+00 0.  1.
</event>
<event>
12    1  0.8113184E-002  0.2519861E+03  0.7818608E-02  0.1112960E+00
         21   -1    0    0  501  502  0.00000000000E+00  0.00000000000E+00  0.25191400796E+03  0.25191400796E+03  0.00000000000E+00 0.  1.
         21   -1    0    0  502  503 -0.00000000000E+00 -0.00000000000E+00 -0.28616196896E+03  0.28616196896E+03  0.00000000000E+00 0. -1.
         -6    2    1    2    0  503  0.62108740393E+02 -0.16738175593E+03 -0.11759799380E+03  0.27807600692E+03  0.17782809009E+03 0.  0.
        -24    2    3    3    0    0  0.93795048915E+02 -0.12678817874E+03 -0.13581764838E+03  0.22324985924E+03  0.80754644251E+02 0.  0.
          6    2    1    2  501    0 -0.62108740393E+02  0.16738175593E+03  0.83350032804E+02  0.25999997001E+03  0.16964259071E+03 0.  0.
         24    2    5    5    0    0 -0.23922783639E+02  0.54399904240E+02 -0.21034797991E+02  0.10143973223E+03  0.79472683291E+02 0.  0.
          5    1    5    5  501    0 -0.38185956754E+02  0.11298185169E+03  0.10438483079E+03  0.15856023778E+03  0.47000000000E+01 0. -1.
        -11    1    6    6    0    0  0.21336744266E+02  0.21917552513E+01  0.12298242397E+02  0.24724627662E+02  0.00000000000E+00 0.  1.
         12    1    6    6    0    0 -0.45259527905E+02  0.52208148989E+02 -0.33333040388E+02  0.76715104566E+02  0.00000000000E+00 0. -1.
         -5    1    3    3    0  503 -0.31686308522E+02 -0.40593577186E+02  0.18219654577E+02  0.54826147680E+02  0.47000000000E+01 0.  1.
         11    1    4    4    0    0  0.64919176445E+02 -0.23715828821E+02 -0.41731613822E+02  0.80737027436E+02  0.00000000000E+00 0. -1.
        -12    1    4    4    0    0  0.28875872470E+02 -0.10307234992E+03 -0.94086034559E+02  0.14251283180E+03  0.00000000000E+00 0.  1.
</event>
<event>
12    1  0.8113184E-002  0.3060325E+03  0.7818608E-02  0.1082363E+00
         21   -1    0    0  503  502  0.00000000000E+00  0.00000000000E+00  0.61239221935E+03  0.61239221935E+03  0.00000000000E+00 0. -1.
         21   -1    0    0  501  503 -0.00000000000E+00 -0.00000000000E+00 -0.27535165356E+03  0.27535165356E+03  0.00000000000E+00 0.  1.
          6    2    1    2  501    0  0.23780165097E+03 -0.85262236278E+02 -0.12780846167E+03  0.33164873101E+03  0.17273275244E+03 0.  0.
         24    2    3    3    0    0  0.13800072726E+03 -0.80137919544E+02 -0.14514671948E+03  0.23011455853E+03  0.80117744598E+02 0.  0.
         -6    2    1    2    0  502 -0.23780165097E+03  0.85262236278E+02  0.46484902746E+03  0.55609514191E+03  0.17128314098E+03 0.  0.
        -24    2    5    5    0    0 -0.18629594379E+03  0.86702914573E+02  0.24139402276E+03  0.32672831224E+03  0.79099568443E+02 0.  0.
          5    1    3    3  501    0  0.99800923714E+02 -0.51243167337E+01  0.17338257813E+02  0.10153417247E+03  0.47000000000E+01 0. -1.
        -13    1    4    4    0    0  0.12132476466E+03 -0.96274613453E+02 -0.12027285093E+03  0.19609706369E+03  0.00000000000E+00 0.  1.
         14    1    4    4    0    0  0.16675962598E+02  0.16136693909E+02 -0.24873868553E+02  0.34017494847E+02  0.00000000000E+00 0. -1.
         -5    1    5    5    0  502 -0.51505707187E+02 -0.14406782955E+01  0.22345500470E+03  0.22936682967E+03  0.47000000000E+01 0.  1.
         11    1    6    6    0    0 -0.17127849532E+03  0.46932315351E+02  0.19126475857E+03  0.26100033152E+03  0.00000000000E+00 0. -1.
        -12    1    6    6    0    0 -0.15017448464E+02  0.39770599222E+02  0.50129264192E+02  0.65727980718E+02  0.00000000000E+00 0.  1.
</event>
<event>
12    1  0.8113184E-002  0.1806278E+03  0.7818608E-02  0.1167497E+00
         21   -1    0    0  501  502  0.00000000000E+00  0.00000000000E+00  0.61764177564E+03  0.61764177564E+03  0.00000000000E+00 0. -1.
         21   -1    0    0  502  503 -0.00000000000E+00 -0.00000000000E+00 -0.65625240300E+02  0.65625240300E+02  0.00000000000E+00 0. -1.
         -6    2    1    2    0  503  0.49516981484E+02 -0.18090146981E+02  0.12224404497E+03  0.21707950860E+03  0.17146638636E+03 0.  0.
        -24    2    3    3    0    0 -0.30156839334E+02  0.23455555497E+02  0.47607403409E+02  0.10017492622E+03  0.79428917541E+02 0.  0.
          6    2    1    2  501    0 -0.49516981484E+02  0.18090146981E+02  0.42977249037E+03  0.46618750734E+03  0.17276346155E+03 0.  0.
         24    2    5    5    0    0 -0.35816440219E+02 -0.44008564383E+02  0.35338391342E+03  0.36668243474E+03  0.79726071992E+02 0.  0.
          5    1    5    5  501    0 -0.13700541265E+02  0.62098711364E+02  0.76388576951E+02  0.99505072597E+02  0.47000000000E+01 0. -1.
        -11    1    6    6    0    0 -0.16341758396E+02 -0.29505902382E+02  0.39842699034E+02  0.52202413825E+02  0.00000000000E+00 0.  1.
         12    1    6    6    0    0 -0.19474681824E+02 -0.14502662001E+02  0.31354121438E+03  0.31448002091E+03  0.00000000000E+00 0. -1.
         -5    1    3    3    0  503  0.79673820818E+02 -0.41545702478E+02  0.74636641565E+02  0.11690458238E+03  0.47000000000E+01 0.  1.
         13    1    4    4    0    0 -0.38438734578E+02 -0.39621991595E+01 -0.62795471077E+01  0.39149304592E+02  0.00000000000E+00 0. -1.
        -14    1    4    4    0    0  0.82818952439E+01  0.27417754657E+02  0.53886950517E+02  0.61025621629E+02  0.00000000000E+00 0.  1.
</event>
<event>
12    1  0.8113184E-002  0.1775054E+03  0.7818608E-02  0.1171217E+00
         21   -1    0    0  503  502  0.00000000000E+00  0.00000000000E+00  0.22680858438E+03  0.22680858438E+03  0.00000000000E+00 0.  1.
         21   -1    0    0  501  503 -0.00000000000E+00 -0.00000000000E+00 -0.25413634852E+03  0.25413634852E+03  0.00000000000E+00 0.  1.
          6    2    1    2  501    0  0.10994959396E+02  0.20524696781E+02 -0.17762204016E+03  0.24835828322E+03  0.17201771824E+03 0.  0.
         24    2    3    3    0    0 -0.60179178527E+01  0.79404405633E+02 -0.11203475933E+03  0.15846924322E+03  0.78863418512E+02 0.  0.
         -6    2    1    2    0  502 -0.10994959396E+02 -0.20524696781E+02  0.15029427602E+03  0.23258664968E+03  0.17597166787E+03 0.  0.
        -24    2    5    5    0    0 -0.65765720511E+02  0.19557179321E+02  0.70336984975E+02  0.12760259633E+03  0.81409568716E+02 0.  0.
          5    1    3    3  501    0  0.17012877248E+02 -0.58879708852E+02 -0.65587280826E+02  0.89889040004E+02  0.47000000000E+01 0. -1.
        -11    1    4    4    0    0  0.32043139913E+02  0.12827199580E+02 -0.44234250788E+02  0.56106762581E+02  0.00000000000E+00 0.  1.
         12    1    4    4    0    0 -0.38061057765E+02  0.66577206053E+02 -0.67800508542E+02  0.10236248064E+03  0.00000000000E+00 0. -1.
         -5    1    5    5    0  502  0.54770761115E+02 -0.40081876102E+02  0.79957291044E+02  0.10498405334E+03  0.47000000000E+01 0.  1.
         13    1    6    6    0    0 -0.10803600275E+02  0.43756287817E+02  0.20281278632E+02  0.49423281613E+02  0.00000000000E+00 0. -1.
        -14    1    6    6    0    0 -0.54962120236E+02 -0.24199108496E+02  0.50055706343E+02  0.78179314722E+02  0.00000000000E+00 0.  1.
</event>
<event>
12    1  0.8113184E-002  0.2373215E+03  0.7818608E-02  0.1122696E+00
         21   -1    0    0  501  502  0.00000000000E+00  0.00000000000E+00  0.76749403224E+02  0.76749403224E+02  0.00000000000E+00 0.  1.
         21   -1    0    0  502  503 -0.00000000000E+00 -0.00000000000E+00 -0.80952201132E+03  0.80952201132E+03  0.00000000000E+00 0. -1.
         -6    2    1    2    0  503 -0.16190371764E+03  0.17277653284E+02 -0.51411664530E+03  0.56357661782E+03  0.16368062834E+03 0.  0.
        -24    2    3    3    0    0 -0.14653474961E+03 -0.14715955265E+02 -0.27277678941E+03  0.31959544600E+03  0.77750113030E+02 0.  0.
          6    2    1    2  501    0  0.16190371764E+03 -0.17277653284E+02 -0.21865596280E+03  0.32269479672E+03  0.17265622108E+03 0.  0.
         24    2    5    5    0    0  0.62076130326E+02  0.16502512178E+02 -0.18509844423E+03  0.21199319864E+03  0.80956181641E+02 0.  0.
          5    1    5    5  501    0  0.99827587309E+02 -0.33780165462E+02 -0.33557518561E+02  0.11070159809E+03  0.47000000000E+01 0. -1.
        -13    1    6    6    0    0  0.15789809992E+02 -0.22572922242E+02 -0.14861891788E+02  0.31300650883E+02  0.00000000000E+00 0.  1.
         14    1    6    6    0    0  0.46286320334E+02  0.39075434420E+02 -0.17023655245E+03  0.18069254775E+03  0.00000000000E+00 0. -1.
         -5    1    3    3    0  503 -0.15368968028E+02  0.31993608549E+02 -0.24133985589E+03  0.24398117183E+03  0.47000000000E+01 0.  1.
         11    1    4    4    0    0 -0.11188437327E+03 -0.80910217512E+01 -0.25802991031E+03  0.28135922275E+03  0.00000000000E+00 0. -1.
        -12    1    4    4    0    0 -0.34650376340E+02 -0.66249335135E+01 -0.14746879107E+02  0.38236223244E+02  0.00000000000E+00 0.  1.
</event>
<event>
12    1  0.8113184E-002  0.3985662E+03  0.7818608E-02  0.1044321E+00
         21   -1    0    0  503  502  0.00000000000E+00  0.00000000000E+00  0.25056542967E+04  0.25056542967E+04  0.00000000000E+00 0.  1.
         21   -1    0    0  501  503 -0.00000000000E+00 -0.00000000000E+00 -0.11636781585E+03  0.11636781585E+03  0.00000000000E+00 0. -1.
          6    2    1    2  501    0  0.11184075241E+03  0.34186614678E+03  0.30987596304E+03  0.50485454137E+03  0.17168045683E+03 0.  0.
         24    2    3    3    0    0 -0.52232233984E+01  0.17616506121E+03  0.12400584758E+03  0.22966258289E+03  0.79410584252E+02 0.  0.
         -6    2    1    2    0  502 -0.11184075241E+03 -0.34186614678E+03  0.20794105179E+04  0.21171675712E+04  0.17049811331E+03 0.  0.
        -24    2    5    5    0    0 -0.74804758578E+02 -0.19437394733E+03  0.86208771589E+03  0.89037398307E+03  0.78699533262E+02 0.  0.
          5    1    3    3  501    0  0.11706397581E+03  0.16570108558E+03  0.18587011546E+03  0.27519195849E+03  0.47000000000E+01 0. -1.
        -11    1    4    4    0    0 -0.14822394182E+02  0.49288966109E+02  0.79809453206E+02  0.94966596077E+02  0.00000000000E+00 0.  1.
         12    1    4    4    0    0  0.95991707832E+01  0.12687609510E+03  0.44196394374E+02  0.13469598681E+03  0.00000000000E+00 0. -1.
         -5    1    5    5    0  502 -0.37035993833E+02 -0.14749219946E+03  0.12173228020E+04  0.12267935882E+04  0.47000000000E+01 0.  1.
         11    1    6    6    0    0 -0.73544761914E+02 -0.85461651408E+02  0.48004126259E+03  0.49310459302E+03  0.00000000000E+00 0. -1.
        -12    1    6    6    0    0 -0.12599966640E+01 -0.10891229592E+03  0.38204645330E+03  0.39726939005E+03  0.00000000000E+00 0.  1.
</event>
<event>
12    1  0.8113184E-002  0.2461907E+03  0.7818608E-02  0.1115861E+00
         21   -1    0    0  501  502  0.00000000000E+00  0.00000000000E+00  0.94794980520E+02  0.94794980520E+02  0.00000000000E+00 0. -1.
         21   -1    0    0  502  503 -0.00000000000E+00 -0.00000000000E+00 -0.66038147102E+03  0.66038147102E+03  0.00000000000E+00 0.  1.
         -6    2    1    2    0  503 -0.21217596891E+02 -0.17555127443E+03 -0.35369297853E+03  0.43093919310E+03  0.17129339951E+03 0.  0.
        -24    2    3    3    0    0  0.33345939118E+02 -0.10372896591E+03 -0.11872147765E+03  0.17920655777E+03  0.78412697114E+02 0.  0.
          6    2    1    2  501    0  0.21217596891E+02  0.17555127443E+03 -0.21189351197E+03  0.32423725844E+03  0.17018373299E+03 0.  0.
         24    2    5    5    0    0 -0.36930217658E+02  0.49474478678E+02 -0.62383269451E+02  0.12014921523E+03  0.82052401527E+02 0.  0.
          5    1    5    5  501    0  0.58147814549E+02  0.12607679575E+03 -0.14951024252E+03  0.20408804321E+03  0.47000000000E+01 0. -1.
        -11    1    6    6    0    0 -0.11809694938E+02  0.41591117815E+02 -0.78256727675E+02  0.89405846576E+02  0.00000000000E+00 0.  1.
         12    1    6    6    0    0 -0.25120522720E+02  0.78833608635E+01  0.15873458224E+02  0.30743368654E+02  0.00000000000E+00 0. -1.
         -5    1    3    3    0  503 -0.54563536009E+02 -0.71822308523E+02 -0.23497150088E+03  0.25173263533E+03  0.47000000000E+01 0.  1.
         13    1    4    4    0    0 -0.21543897053E+02 -0.55025964039E+02 -0.38727269010E+02  0.70652654470E+02  0.00000000000E+00 0. -1.
        -14    1    4    4    0    0  0.54889836171E+02 -0.48703001867E+02 -0.79994208640E+02  0.10855390330E+03  0.00000000000E+00 0.  1.
</event>
<event>
12    1  0.8113184E-002  0.1832021E+03  0.7818608E-02  0.1164782E+00
         21   -1    0    0  501  502  0.00000000000E+00  0.00000000000E+00  0.10024173721E+03  0.10024173721E+03  0.00000000000E+00 0.  1.
         21   -1    0    0  502  503 -0.00000000000E+00 -0.00000000000E+00 -0.36469785923E+03  0.36469785923E+03  0.00000000000E+00 0. -1.
         -6    2    1    2    0  503  0.55792715730E+02 -0.40149798207E+02 -0.19918813806E+03  0.27062691453E+03  0.16981807648E+03 0.  0.
        -24    2    3    3    0    0  0.52228568766E+02 -0.57574824424E+02 -0.21847831266E+03  0.24397104241E+03  0.75805096324E+02 0.  0.
          6    2    1    2  501    0 -0.55792715730E+02  0.40149798207E+02 -0.65267983955E+02  0.19431268191E+03  0.16962510190E+03 0.  0.
         24    2    5    5    0    0 -0.36996299935E+02  0.50794168128E+02  0.22066426040E+02  0.10422385337E+03  0.80168015623E+02 0.  0.
          5    1    5    5  501    0 -0.18796415795E+02 -0.10644369921E+02 -0.87334409994E+02  0.90088828535E+02  0.47000000000E+01 0. -1.
        -13    1    6    6    0    0 -0.34244044874E+02 -0.95864293534E+01 -0.83958245838E+01  0.36538255398E+02  0.00000000000E+00 0.  1.
         14    1    6    6    0    0 -0.27522550607E+01  0.60380597481E+02  0.30462250623E+02  0.67685597974E+02  0.00000000000E+00 0. -1.
         -5    1    3    3    0  503  0.35641469635E+01  0.17425026217E+02  0.19290174601E+02  0.26655872118E+02  0.47000000000E+01 0.  1.
         11    1    4    4    0    0  0.16033628184E+02  0.34758485910E+01 -0.12765808999E+03  0.12870799003E+03  0.00000000000E+00 0. -1.
        -12    1    4    4    0    0  0.36194940582E+02 -0.61050673015E+02 -0.90820222672E+02  0.11526305239E+03  0.00000000000E+00 0.  1.
</event>
<event>
12    1  0.8113184E-002  0.1910001E+03  0.7818608E-02  0.1157807E+00
         21   -1    0    0  503  502  0.00000000000E+00  0.00000000000E+00  0.58806024172E+03  0.58806024172E+03  0.00000000000E+00 0. -1.
         21   -1    0    0  501  503 -0.00000000000E+00 -0.00000000000E+00 -0.16137152949E+03  0.16137152949E+03  0.00000000000E+00 0. -1.
          6    2    1    2  501    0  0.78382101286E+02 -0.24569934929E+02 -0.81406386860E+02  0.20662272046E+03  0.17122649703E+03 0.  0.
         24    2    3    3    0    0 -0.22346275983E+02 -0.26387461401E+02 -0.23281772776E+02  0.90217951864E+02  0.80009897671E+02 0.  0.
         -6    2    1    2    0  502 -0.78382101286E+02  0.24569934929E+02  0.50809509909E+03  0.54280905075E+03  0.17243433636E+03 0.  0.
        -24    2    5    5    0    0 -0.34795737739E+02  0.19083983074E+02  0.48468162786E+03  0.49280757687E+03  0.79800286115E+02 0.  0.
          5    1    3    3  501    0  0.10072837727E+03  0.18175264717E+01 -0.58124614084E+02  0.11640476860E+03  0.47000000000E+01 0. -1.
        -11    1    4    4    0    0 -0.64564721255E+01  0.27551580787E+02 -0.18446927933E+02  0.33779650477E+02  0.00000000000E+00 0.  1.
         12    1    4    4    0    0 -0.15889803857E+02 -0.53939042188E+02 -0.48348448434E+01  0.56438301387E+02  0.00000000000E+00 0. -1.
         -5    1    5    5    0  502 -0.43586363547E+02  0.54859518547E+01  0.23413471229E+02  0.50001473878E+02  0.47000000000E+01 0.  1.
         13    1    6    6    0    0 -0.47404370464E+02 -0.16843294996E+02  0.24393126292E+03  0.24906491515E+03  0.00000000000E+00 0. -1.
        -14    1    6    6    0    0  0.12608632725E+02  0.35927278071E+02  0.24075036494E+03  0.24374266173E+03  0.00000000000E+00 0.  1.
</event>
<event>
12    1  0.8113184E-002  0.1755543E+03  0.7818608E-02  0.1172462E+00
         21   -1    0    0  503  502  0.00000000000E+00  0.00000000000E+00  0.98395457971E+03  0.98395457971E+03  0.00000000000E+00 0. -1.
         21   -1    0    0  501  503 -0.00000000000E+00 -0.00000000000E+00 -0.16066147053E+03  0.16066147053E+03  0.00000000000E+00 0. -1.
          6    2    1    2  501    0 -0.28135440076E+02  0.23770425671E+02 -0.10251406276E+03  0.20231129862E+03  0.17048194146E+03 0.  0.
         24    2    3    3    0    0 -0.25173321941E+02  0.21726145125E+02  0.12208402125E+02  0.87436204824E+02  0.79939497823E+02 0.  0.
         -6    2    1    2    0  502  0.28135440076E+02 -0.23770425671E+02  0.92580717194E+03  0.94230475162E+03  0.17164699000E+03 0.  0.
        -24    2    5    5    0    0 -0.42658785787E+01 -0.66318884633E+02  0.38452606281E+03  0.39836767261E+03  0.80125635252E+02 0.  0.
          5    1    3    3  501    0 -0.29621181352E+01  0.20442805461E+01 -0.11472246488E+03  0.11487509380E+03  0.47000000000E+01 0. -1.
        -11    1    4    4    0    0  0.46576848084E+01 -0.26160327285E+02 -0.76074566573E+01  0.27639286319E+02  0.00000000000E+00 0.  1.
         12    1    4    4    0    0 -0.29831006749E+02  0.47886472410E+02  0.19815858782E+02  0.59796918506E+02  0.00000000000E+00 0. -1.
         -5    1    5    5    0  502  0.32401318654E+02  0.42548458962E+02  0.54128110913E+03  0.54393707901E+03  0.47000000000E+01 0.  1.
         11    1    6    6    0    0 -0.10053498307E+02 -0.37574678612E+02  0.35366885955E+03  0.35580133715E+03  0.00000000000E+00 0. -1.
        -12    1    6    6    0    0  0.57876197287E+01 -0.28744206021E+02  0.30857203258E+02  0.42566335464E+02  0.00000000000E+00 0.  1.
</event>
<event>
12    1  0.8113184E-002  0.3000776E+03  0.7818608E-02  0.1085225E+00
         21   -1    0    0  501  502  0.00000000000E+00  0.00000000000E+00  0.48730893463E+02  0.48730893463E+02  0.00000000000E+00 0. -1.
         21   -1    0    0  502  503 -0.00000000000E+00 -0.00000000000E+00 -0.20325010632E+04  0.20325010632E+04  0.00000000000E+00 0. -1.
         -6    2    1    2    0  503  0.22070497883E+03  0.10656699400E+03 -0.13067982693E+04  0.13408088191E+04  0.17314549047E+03 0.  0.
        -24    2    3    3    0    0  0.74538978501E+02 -0.68676861287E+01 -0.38423838201E+03  0.39986739588E+03  0.81557192526E+02 0.  0.
          6    2    1    2  501    0 -0.22070497883E+03 -0.10656699400E+03 -0.67697190048E+03  0.74042313760E+03  0.17282435233E+03 0.  0.
         24    2    5    5    0    0 -0.19655192156E+03 -0.10381532553E+03 -0.41359670389E+03  0.47588670148E+03  0.77431514838E+02 0.  0.
          5    1    5    5  501    0 -0.24153057267E+02 -0.27516684673E+01 -0.26337519659E+03  0.26453643612E+03  0.47000000000E+01 0. -1.
        -13    1    6    6    0    0 -0.11387894821E+03 -0.10159144224E+03 -0.26251225674E+03  0.30364769210E+03  0.00000000000E+00 0.  1.
         14    1    6    6    0    0 -0.82672973351E+02 -0.22238832972E+01 -0.15108444715E+03  0.17223900938E+03  0.00000000000E+00 0. -1.
         -5    1    3    3    0  503  0.14616600033E+03  0.11343468013E+03 -0.92255988730E+03  0.94094142324E+03  0.47000000000E+01 0.  1.
         11    1    4    4    0    0  0.56442121142E+01  0.12651211886E+02 -0.22316506263E+03  0.22359462308E+03  0.00000000000E+00 0. -1.
        -12    1    4    4    0    0  0.68894766386E+02 -0.19518898014E+02 -0.16107331938E+03  0.17627277280E+03  0.00000000000E+00 0.  1.
</event>
<event>
12    1  0.8113184E-002  0.1730264E+03  0.7818608E-02  0.1174943E+00
         21   -1    0    0  503  502  0.00000000000E+00  0.00000000000E+00  0.33581256499E+03  0.33581256499E+03  0.00000000000E+00 0.  1.
         21   -1    0    0  501  503 -0.00000000000E+00 -0.00000000000E+00 -0.17118236278E+03  0.17118236278E+03  0.00000000000E+00 0.  1.
          6    2    1    2  501    0 -0.12249835952E+01  0.30029069311E+01 -0.93525705484E+02  0.19668554283E+03  0.17299603215E+03 0.  0.
         24    2    3    3    0    0  0.64971864633E+02  0.17285668075E+02 -0.69129071781E+02  0.12455159994E+03  0.78829784774E+02 0.  0.
         -6    2    1    2    0  502  0.12249835952E+01 -0.30029069311E+01  0.25815590770E+03  0.31030938493E+03  0.17215377912E+03 0.  0.
        -24    2    5    5    0    0 -0.48595165577E+02 -0.15764618182E+02  0.77844560452E+02  0.12274824695E+03  0.79983393481E+02 0.  0.
          5    1    3    3  501    0 -0.66196848228E+02 -0.14282761144E+02 -0.24396633703E+02  0.72133942893E+02  0.47000000000E+01 0. -1.
        -13    1    4    4    0    0 -0.42782443072E+01 -0.16900518385E+02 -0.37009102517E+02  0.40909712357E+02  0.00000000000E+00 0.  1.
         14    1    4    4    0    0  0.69250108940E+02  0.34186186460E+02 -0.32119969264E+02  0.83641887583E+02  0.00000000000E+00 0. -1.
         -5    1    5    5    0  502  0.49820149173E+02  0.12761711251E+02  0.18031134724E+03  0.18756113799E+03  0.47000000000E+01 0.  1.
         11    1    6    6    0    0 -0.33137006224E+02 -0.14809895949E+02 -0.66034942157E+01  0.36891738037E+02  0.00000000000E+00 0. -1.
        -12    1    6    6    0    0 -0.15458159353E+02 -0.95472223336E+00  0.84448054668E+02  0.85856508910E+02  0.00000000000E+00 0.  1.
</event>
<event>
12    1  0.8113184E-002  0.2237534E+03  0.7818608E-02  0.1131143E+00
         21   -1    0    0  501  502  0.00000000000E+00  0.00000000000E+00  0.34976775781E+03  0.34976775781E+03  0.00000000000E+00 0.  1.
         21   -1    0    0  502  503 -0.00000000000E+00 -0.00000000000E+00 -0.19078420092E+03  0.19078420092E+03  0.00000000000E+00 0.  1.
         -6    2    1    2    0  503  0.11773689372E+03 -0.81503496398E+02 -0.55691332502E+02  0.23057993493E+03  0.17193250364E+03 0.  0.
        -24    2    3    3    0    0  0.65645668837E+02 -0.10030669603E+03  0.14693032352E+02  0.14089657615E+03  0.72561510921E+02 0.  0.
          6    2    1    2  501    0 -0.11773689372E+03  0.81503496398E+02  0.21467488939E+03  0.30997202380E+03  0.17173395512E+03 0.  0.
         24    2    5    5    0    0 -0.22058829105E+02  0.70065455152E+02  0.17341320049E+03  0.20504472609E+03  0.81089096954E+02 0.  0.
          5    1    5    5  501    0 -0.95678064612E+02  0.11438041246E+02  0.41261688898E+02  0.10492729772E+03  0.47000000000E+01 0. -1.
        -11    1    6    6    0    0 -0.41714006690E+02  0.77472369550E+02  0.14667967624E+03  0.17104664223E+03  0.00000000000E+00 0.  1.
         12    1    6    6    0    0  0.19655177585E+02 -0.74069143981E+01  0.26733524249E+02  0.33998083851E+02  0.00000000000E+00 0. -1.
         -5    1    3    3    0  503  0.52091224880E+02  0.18803199627E+02 -0.70384364854E+02  0.89683358778E+02  0.47000000000E+01 0.  1.
         11    1    4    4    0    0  0.31130550820E+01 -0.91312550032E+01 -0.22312525415E+02  0.24308840373E+02  0.00000000000E+00 0. -1.
        -12    1    4    4    0    0  0.62532613755E+02 -0.91175441022E+02  0.37005557767E+02  0.11658773578E+03  0.00000000000E+00 0.  1.
</event>
<event>
12    1  0.8113184E-002  0.2208525E+03  0.7818608E-02  0.1133658E+00
         21   -1    0    0  501  502  0.00000000000E+00  0.00000000000E+00  0.27503600199E+03  0.27503600199E+03  0.00000000000E+00 0.  1.
         21   -1    0    0  502  503 -0.00000000000E+00 -0.00000000000E+00 -0.25829229906E+03  0.25829229906E+03  0.00000000000E+00 0.  1.
         -6    2    1    2    0  503  0.35611984222E+02 -0.13343546181E+03  0.15929327411E+03  0.27230529242E+03  0.17234439129E+03 0.  0.
        -24    2    3    3    0    0 -0.12847747879E+02 -0.14947666229E+02  0.34597636359E+02  0.93535061638E+02  0.84636363123E+02 0.  0.
          6    2    1    2  501    0 -0.35611984222E+02  0.13343546181E+03 -0.14254957118E+03  0.26102300863E+03  0.16952697397E+03 0.  0.
         24    2    5    5    0    0 -0.20895138492E+02  0.23907220754E+01 -0.82362788329E+02  0.11599250084E+03  0.78919636241E+02 0.  0.
          5    1    5    5  501    0 -0.14716845730E+02  0.13104473974E+03 -0.60186782848E+02  0.14503050779E+03  0.47000000000E+01 0. -1.
        -13    1    6    6    0    0  0.24968890811E+02  0.19012369827E+02 -0.21733287438E+02  0.38173963609E+02  0.00000000000E+00 0.  1.
         14    1    6    6    0    0 -0.45864029304E+02 -0.16621647752E+02 -0.60629500891E+02  0.77818537228E+02  0.00000000000E+00 0. -1.
         -5    1    3    3    0  503  0.48459732102E+02 -0.11848779558E+03  0.12469563775E+03  0.17877023078E+03  0.47000000000E+01 0.  1.
         11    1    4    4    0    0  0.97513476872E+01  0.15148759065E+02 -0.20193917315E+02  0.27062298118E+02  0.00000000000E+00 0. -1.
        -12    1    4    4    0    0 -0.22599095567E+02 -0.30096425294E+02  0.54791553674E+02  0.66472763519E+02  0.00000000000E+00 0.  1.
</event>
<event>
12    1  0.8113184E-002  0.1835066E+03  0.7818608E-02  0.1164525E+00
         21   -1    0    0  503  502  0.00000000000E+00  0.00000000000E+00  0.25343700314E+03  0.25343700314E+03  0.00000000000E+00 0. -1.
         21   -1    0    0  501  503 -0.00000000000E+00 -0.00000000000E+00 -0.13715602601E+03  0.13715602601E+03  0.00000000000E+00 0. -1.
          6    2    1    2  501    0  0.41459101712E+02  0.48256921844E+02  0.93503557580E+02  0.20567826802E+03  0.17179361757E+03 0.  0.
         24    2    3    3    0    0  0.73874323078E+01  0.36725503318E+02 -0.17108058184E+02  0.89270056066E+02  0.79203033434E+02 0.  0.
         -6    2    1    2    0  502 -0.41459101712E+02 -0.48256921844E+02  0.22777419549E+02  0.18491476113E+03  0.17212515918E+03 0.  0.
        -24    2    5    5    0    0 -0.68683334075E+00 -0.90463499040E+02  0.37641945660E+02  0.12419559477E+03  0.76311947225E+02 0.  0.
          5    1    3    3  501    0  0.34071669405E+02  0.11531418526E+02  0.11061161576E+03  0.11640821196E+03  0.47000000000E+01 0. -1.
        -11    1    4    4    0    0  0.35088839444E+02 -0.65975355095E+01 -0.23933300023E+01  0.35783825352E+02  0.00000000000E+00 0.  1.
         12    1    4    4    0    0 -0.27701407136E+02  0.43323038827E+02 -0.14714728181E+02  0.53486230714E+02  0.00000000000E+00 0. -1.
         -5    1    5    5    0  502 -0.40772268372E+02  0.42206577196E+02 -0.14864526111E+02  0.60719166359E+02  0.47000000000E+01 0.  1.
         11    1    6    6    0    0 -0.26969769813E+02 -0.27581367668E+02 -0.11406677541E+02  0.40227013545E+02  0.00000000000E+00 0. -1.
        -12    1    6    6    0    0  0.26282936472E+02 -0.62882131372E+02  0.49048623201E+02  0.83968581228E+02  0.00000000000E+00 0.  1.
</event>
<event>
12    1  0.8113184E-002  0.2309677E+03  0.7818608E-02  0.1126049E+00
         21   -1    0    0  503  502  0.00000000000E+00  0.00000000000E+00  0.91055678023E+03  0.91055678023E+03  0.00000000000E+00 0.  1.
         21   -1    0    0  501  503 -0.00000000000E+00 -0.00000000000E+00 -0.97265250419E+02  0.97265250419E+02  0.00000000000E+00 0.  1.
          6    2    1    2  501    0  0.13173259449E+03  0.80874733898E+02  0.88616493857E+02  0.24738428231E+03  0.17161556199E+03 0.  0.
         24    2    3    3    0    0  0.48253515784E+02  0.63547641958E+02 -0.16099976949E+02  0.11226724432E+03  0.77317658433E+02 0.  0.
         -6    2    1    2    0  502 -0.13173259449E+03 -0.80874733898E+02  0.72467503596E+03  0.76043774834E+03  0.17093116254E+03 0.  0.
        -24    2    5    5    0    0 -0.87115364690E+02 -0.84881120757E+02  0.68579998052E+03  0.70093893939E+03  0.78739393250E+02 0.  0.
          5    1    3    3  501    0  0.83479078710E+02  0.17327091941E+02  0.10471647081E+03  0.13511703799E+03  0.47000000000E+01 0. -1.
        -11    1    4    4    0    0  0.89011981424E+01  0.39469103185E+01 -0.36672456874E+02  0.37943095849E+02  0.00000000000E+00 0.  1.
         12    1    4    4    0    0  0.39352317641E+02  0.59600731639E+02  0.20572479925E+02  0.74324148471E+02  0.00000000000E+00 0. -1.
         -5    1    5    5    0  502 -0.44617229804E+02  0.40063868589E+01  0.38875055437E+02  0.59498808948E+02  0.47000000000E+01 0.  1.
         11    1    6    6    0    0 -0.25200524119E+02 -0.10607130863E+01  0.43856701274E+02  0.50592507101E+02  0.00000000000E+00 0. -1.
        -12    1    6    6    0    0 -0.61914840570E+02 -0.83820407671E+02  0.64194327924E+03  0.65034643229E+03  0.00000000000E+00 0.  1.
</event>
<event>
12    1  0.8113184E-002  0.1899475E+03  0.7818608E-02  0.1158583E+00
         21   -1    0    0  501  502  0.00000000000E+00  0.00000000000E+00  0.21393380134E+03  0.21393380134E+03  0.00000000000E+00 0.  1.
         21   -1    0    0  502  503 -0.00000000000E+00 -0.00000000000E+00 -0.28577076807E+03  0.28577076807E+03  0.00000000000E+00 0.  1.
         -6    2    1    2    0  503  0.49378427458E+02  0.62980415444E+02 -0.19608738785E+03  0.27300240984E+03  0.17226517429E+03 0.  0.
        -24    2    3    3    0    0 -0.23297761390E+02  0.11232432315E+02 -0.15199812271E+03  0.17337492626E+03  0.79287341525E+02 0.  0.
          6    2    1    2  501    0 -0.49378427458E+02 -0.62980415444E+02  0.12425042112E+03  0.22670215957E+03  0.17190386900E+03 0.  0.
         24    2    5    5    0    0 -0.72616700116E+02 -0.35573321671E+02  0.14300202416E+03  0.18589923417E+03  0.87007470941E+02 0.  0.
          5    1    5    5  501    0  0.23238272658E+02 -0.27407093774E+02 -0.18751603039E+02  0.40802925407E+02  0.47000000000E+01 0. -1.
        -11    1    6    6    0    0 -0.47200770797E+02 -0.63395437912E+02  0.11212139516E+03  0.13717908574E+03  0.00000000000E+00 0.  1.
         12    1    6    6    0    0 -0.25415929319E+02  0.27822116241E+02  0.30880628999E+02  0.48720148426E+02  0.00000000000E+00 0. -1.
         -5    1    3    3    0  503  0.72676188849E+02  0.51747983129E+02 -0.44089265142E+02  0.99627483579E+02  0.47000000000E+01 0.  1.
         13    1    4    4    0    0  0.81913894299E+01  0.14115193087E+01  0.70765294756E+01  0.10916433345E+02  0.00000000000E+00 0. -1.
        -14    1    4    4    0    0 -0.31489150820E+02  0.98209130061E+01 -0.15907465219E+03  0.16245849292E+03  0.00000000000E+00 0.  1.
</event>
<event>
12    1  0.8113184E-002  0.1911697E+03  0.7818608E-02  0.1157575E+00
         21   -1    0    0  501  502  0.00000000000E+00  0.00000000000E+00  0.18068168452E+03  0.18068168452E+03  0.00000000000E+00 0. -1.
         21   -1    0    0  502  503 -0.00000000000E+00 -0.00000000000E+00 -0.22668280906E+03  0.22668280906E+03  0.00000000000E+00 0. -1.
         -6    2    1    2    0  503  0.81282246015E+02 -0.58251389788E+01  0.44941670751E+02  0.19566554839E+03  0.17211774254E+03 0.  0.
        -24    2    3    3    0    0  0.11495066193E+03  0.52929039351E+01  0.69972062669E+01  0.14352108087E+03  0.85484912397E+02 0.  0.
          6    2    1    2  501    0 -0.81282246015E+02  0.58251389788E+01 -0.90942795283E+02  0.21169894519E+03  0.17293095622E+03 0.  0.
         24    2    5    5    0    0 -0.64638753173E+02  0.42408837886E+02 -0.11997769258E+03  0.16189444599E+03  0.76409992697E+02 0.  0.
          5    1    5    5  501    0 -0.16643492842E+02 -0.36583698907E+02  0.29034897294E+02  0.49804499200E+02  0.47000000000E+01 0. -1.
        -11    1    6    6    0    0 -0.91968664591E+01  0.48654469802E+02 -0.36611108677E+02  0.61580947240E+02  0.00000000000E+00 0.  1.
         12    1    6    6    0    0 -0.55441886714E+02 -0.62456319163E+01 -0.83366583900E+02  0.10031349875E+03  0.00000000000E+00 0. -1.
         -5    1    3    3    0  503 -0.33668415914E+02 -0.11118042914E+02  0.37944464484E+02  0.52144467524E+02  0.47000000000E+01 0.  1.
         13    1    4    4    0    0  0.71543565704E+02  0.35812696414E+02 -0.22102195375E+02  0.83003241253E+02  0.00000000000E+00 0. -1.
        -14    1    4    4    0    0  0.43407096224E+02 -0.30519792479E+02  0.29099401642E+02  0.60517839613E+02  0.00000000000E+00 0.  1.
</event>
<event>
12    1  0.8113184E-002  0.1790343E+03  0.7818608E-02  0.1168868E+00
         21   -1    0    0  503  502  0.00000000000E+00  0.00000000000E+00  0.94184270779E+02  0.94184270779E+02  0.00000000000E+00 0.  1.
         21   -1    0    0  501  503 -0.00000000000E+00 -0.00000000000E+00 -0.53766112417E+03  0.53766112417E+03  0.00000000000E+00 0. -1.
          6    2    1    2  501    0 -0.48054177303E+02  0.88601271279E+01 -0.41381602218E+03  0.45088465386E+03  0.17223694454E+03 0.  0.
         24    2    3    3    0    0 -0.64762892258E+02 -0.35680453753E+02 -0.16615891567E+03  0.19865623178E+03  0.79926129481E+02 0.  0.
         -6    2    1    2    0  502  0.48054177303E+02 -0.88601271279E+01 -0.29660831208E+02  0.18096074109E+03  0.17169542538E+03 0.  0.
        -24    2    5    5    0    0  0.40246917624E+02 -0.42057745658E+02  0.37132845532E+02  0.10581740850E+03  0.80186079694E+02 0.  0.
          5    1    3    3  501    0  0.16708714955E+02  0.44540580881E+02 -0.24765710651E+03  0.25222842208E+03  0.47000000000E+01 0. -1.
        -11    1    4    4    0    0 -0.17226523293E+02 -0.16734428949E+02  0.80124911424E+00  0.24029902563E+02  0.00000000000E+00 0.  1.
         12    1    4    4    0    0 -0.47536368965E+02 -0.18946024804E+02 -0.16696016479E+03  0.17462632922E+03  0.00000000000E+00 0. -1.
         -5    1    5    5    0  502  0.78072596783E+01  0.33197618530E+02 -0.66793676740E+02  0.75143332586E+02  0.47000000000E+01 0.  1.
         13    1    6    6    0    0 -0.19492117963E+02 -0.17550847777E+02  0.31516435094E+02  0.41003177943E+02  0.00000000000E+00 0. -1.
        -14    1    6    6    0    0  0.59739035588E+02 -0.24506897881E+02  0.56164104378E+01  0.64814230559E+02  0.00000000000E+00 0.  1.
</event>
<event>
12    1  0.8113184E-002  0.2081870E+03  0.7818608E-02  0.1143466E+00
         21   -1    0    0  501  502  0.00000000000E+00  0.00000000000E+00  0.53058764843E+03  0.53058764843E+03  0.00000000000E+00 0. -1.
         21   -1    0    0  502  503 -0.00000000000E+00 -0.00000000000E+00 -0.81616715644E+02  0.81616715644E+02  0.00000000000E+00 0. -1.
         -6    2    1    2    0  503  0.16617912547E+02 -0.11272860073E+03  0.25388393113E+03  0.32689617649E+03  0.17152308089E+03 0.  0.
        -24    2    3    3    0    0  0.33603165378E+02  0.58475456186E+01  0.11907426723E+03  0.14649513221E+03  0.78222606274E+02 0.  0.
          6    2    1    2  501    0 -0.16617912547E+02  0.11272860073E+03  0.19508700166E+03  0.28530818758E+03  0.17423527555E+03 0.  0.
         24    2    5    5    0    0 -0.28480857867E+02  0.13681715652E+03  0.20048325249E+03  0.25751974548E+03  0.81196004818E+02 0.  0.
          5    1    5    5  501    0  0.11862945320E+02 -0.24088555787E+02 -0.53962508348E+01  0.27788442105E+02  0.47000000000E+01 0. -1.
        -13    1    6    6    0    0 -0.84538720016E+01 -0.94296643940E+01  0.81064397285E+01  0.15036651471E+02  0.00000000000E+00 0.  1.
         14    1    6    6    0    0 -0.20026985866E+02  0.14624682091E+03  0.19237681276E+03  0.24248309400E+03  0.00000000000E+00 0. -1.
         -5    1    3    3    0  503 -0.16985252830E+02 -0.11857614635E+03  0.13480966390E+03  0.18040104428E+03  0.47000000000E+01 0.  1.
         13    1    4    4    0    0 -0.16074375791E+02  0.49830816294E+00  0.83810562768E+02  0.85339582256E+02  0.00000000000E+00 0. -1.
        -14    1    4    4    0    0  0.49677541169E+02  0.53492374557E+01  0.35263704458E+02  0.61155549953E+02  0.00000000000E+00 0.  1.
</event>
<event>
12    1  0.8113184E-002  0.1888439E+03  0.7818608E-02  0.1159589E+00
         21   -1    0    0  501  502  0.00000000000E+00  0.00000000000E+00  0.88814975695E+03  0.88814975695E+03  0.00000000000E+00 0.  1.
         21   -1    0    0  502  503 -0.00000000000E+00 -0.00000000000E+00 -0.41766285696E+02  0.41766285696E+02  0.00000000000E+00 0.  1.
         -6    2    1    2    0  503  0.91716226634E+01  0.78680649190E+02  0.32931698550E+03  0.37944373634E+03  0.17103540244E+03 0.  0.
        -24    2    3    3    0    0  0.29051927954E+02 -0.19657102018E+02  0.15814693654E+03  0.18098261794E+03  0.80708353250E+02 0.  0.
          6    2    1    2  501    0 -0.91716226634E+01 -0.78680649190E+02  0.51706648576E+03  0.55047230631E+03  0.17142708685E+03 0.  0.
         24    2    5    5    0    0 -0.22117891300E+02 -0.85842818208E+02  0.20078637797E+03  0.23381144811E+03  0.80588045863E+02 0.  0.
          5    1    5    5  501    0  0.12946268637E+02  0.71621690178E+01  0.31628010778E+03  0.31666085820E+03  0.47000000000E+01 0. -1.
        -11    1    6    6    0    0  0.10716575836E+01 -0.42183309011E+02  0.17092518385E+03  0.17605680470E+03  0.00000000000E+00 0.  1.
         12    1    6    6    0    0 -0.23189548884E+02 -0.43659509197E+02  0.29861194124E+02  0.57754643409E+02  0.00000000000E+00 0. -1.
         -5    1    3    3    0  503 -0.19880305291E+02  0.98337751208E+02  0.17117004897E+03  0.19846111839E+03  0.47000000000E+01 0.  1.
         11    1    4    4    0    0  0.54121555327E+02 -0.17152372429E+02  0.13623824630E+03  0.14759473699E+03  0.00000000000E+00 0. -1.
        -12    1    4    4    0    0 -0.25069627373E+02 -0.25047295893E+01  0.21908690232E+02  0.33387880954E+02  0.00000000000E+00 0.  1.
</event>
<event>
12    1  0.8113184E-002  0.1795862E+03  0.7818608E-02  0.1168816E+00
         21   -1    0    0  501  502  0.00000000000E+00  0.00000000000E+00  0.63927657536E+03  0.63927657536E+03  0.00000000000E+00 0. -1.
         21   -1    0    0  502  503 -0.00000000000E+00 -0.00000000000E+00 -0.53305265809E+02  0.53305265809E+02  0.00000000000E+00 0.  1.
         -6    2    1    2    0  503 -0.39381009066E+02  0.45834618276E+02  0.20162404944E+03  0.26834837245E+03  0.16645394431E+03 0.  0.
        -24    2    3    3    0    0  0.39558051503E+02  0.35724407148E+02  0.11551226651E+03  0.15099880572E+03  0.81341766081E+02 0.  0.
          6    2    1    2  501    0  0.39381009066E+02 -0.45834618276E+02  0.38434726012E+03  0.42423346873E+03  0.16911399563E+03 0.  0.
         24    2    5    5    0    0  0.20646359155E+01  0.24547991020E+02  0.27254427745E+03  0.28687182805E+03  0.86070877605E+02 0.  0.
          5    1    5    5  501    0  0.37316373151E+02 -0.70382609296E+02  0.11180298267E+03  0.13736164068E+03  0.47000000000E+01 0. -1.
        -13    1    6    6    0    0  0.37343780259E+02  0.31308952876E+02  0.10851048034E+03  0.11895096804E+03  0.00000000000E+00 0.  1.
         14    1    6    6    0    0 -0.35279144344E+02 -0.67609618554E+01  0.16403379711E+03  0.16792086001E+03  0.00000000000E+00 0. -1.
         -5    1    3    3    0  503 -0.78939060569E+02  0.10110211128E+02  0.86111782927E+02  0.11734956673E+03  0.47000000000E+01 0.  1.
         11    1    4    4    0    0  0.30532527199E+02  0.26337656196E+02  0.12723871605E+03  0.13347508462E+03  0.00000000000E+00 0. -1.
        -12    1    4    4    0    0  0.90255243033E+01  0.93867509519E+01 -0.11726449542E+02  0.17523721101E+02  0.00000000000E+00 0.  1.
</event>
<event>
12    1  0.8113184E-002  0.2404401E+03  0.7818608E-02  0.1119652E+00
         21   -1    0    0  503  502  0.00000000000E+00  0.00000000000E+00  0.63948789465E+03  0.63948789465E+03  0.00000000000E+00 0.  1.
         21   -1    0    0  501  503 -0.00000000000E+00 -0.00000000000E+00 -0.64521988237E+03  0.64521988237E+03  0.00000000000E+00 0.  1.
          6    2    1    2  501    0  0.16523936031E+03 -0.24256917443E+02 -0.59870676298E+03  0.64518311633E+03  0.17297115746E+03 0.  0.
         24    2    3    3    0    0  0.11017842882E+03  0.43486581336E+02 -0.45896037322E+03  0.48034370582E+03  0.77814411289E+02 0.  0.
         -6    2    1    2    0  502 -0.16523936031E+03  0.24256917443E+02  0.59297477526E+03  0.63952466069E+03  0.17169817498E+03 0.  0.
        -24    2    5    5    0    0 -0.18850373046E+03  0.74721863434E+01  0.55558300055E+03  0.59216230293E+03  0.79963945305E+02 0.  0.
          5    1    3    3  501    0  0.55060931499E+02 -0.67743498779E+02 -0.13974638976E+03  0.16483941051E+03  0.47000000000E+01 0. -1.
        -11    1    4    4    0    0  0.41156139364E+02  0.32640421843E+02 -0.32539391425E+03  0.32960646895E+03  0.00000000000E+00 0.  1.
         12    1    4    4    0    0  0.69022289451E+02  0.10846159493E+02 -0.13356645897E+03  0.15073723687E+03  0.00000000000E+00 0. -1.
         -5    1    5    5    0  502  0.23264370143E+02  0.16784731099E+02  0.37391774710E+02  0.47362357756E+02  0.47000000000E+01 0.  1.
         13    1    6    6    0    0 -0.38437681008E+02  0.21552370268E+02  0.61906471970E+02  0.75989283831E+02  0.00000000000E+00 0. -1.
        -14    1    6    6    0    0 -0.15006604945E+03 -0.14080183925E+02  0.49367652858E+03  0.51617301910E+03  0.00000000000E+00 0.  1.
</event>
<event>
12    1  0.8113184E-002  0.1897438E+03  0.7818608E-02  0.1159588E+00
         21   -1    0    0  503  502  0.00000000000E+00  0.00000000000E+00  0.18788667938E+02  0.18788667938E+02  0.00000000000E+00 0. -1.
         21   -1    0    0  501  503 -0.00000000000E+00 -0.00000000000E+00 -0.20998864524E+04  0.20998864524E+04  0.00000000000E+00 0. -1.
          6    2    1    2  501    0 -0.52923427581E+02  0.44464233466E+02 -0.13761021997E+04  0.13885919097E+04  0.17248846501E+03 0.  0.
         24    2    3    3    0    0 -0.89240948297E+02  0.15317972623E+02 -0.65229794769E+03  0.66327601164E+03  0.79018149252E+02 0.  0.
         -6    2    1    2    0  502  0.52923427581E+02 -0.44464233466E+02 -0.70499558480E+03  0.73008321062E+03  0.17670529874E+03 0.  0.
        -24    2    5    5    0    0  0.13840972116E+02 -0.73350695065E+02 -0.63765143891E+03  0.64690154213E+03  0.79437715739E+02 0.  0.
          5    1    3    3  501    0  0.36317520716E+02  0.29146260843E+02 -0.72380425197E+03  0.72531589808E+03  0.47000000000E+01 0. -1.
        -11    1    4    4    0    0 -0.91066599103E+02  0.36873683895E+02 -0.55146539224E+03  0.56014897382E+03  0.00000000000E+00 0.  1.
         12    1    4    4    0    0  0.18256508057E+01 -0.21555711272E+02 -0.10083255545E+03  0.10312703781E+03  0.00000000000E+00 0. -1.
         -5    1    5    5    0  502  0.39082455465E+02  0.28886461599E+02 -0.67344145885E+02  0.83181668496E+02  0.47000000000E+01 0.  1.
         11    1    6    6    0    0  0.14144258085E+01 -0.69114485318E+02 -0.26033831148E+03  0.26936007333E+03  0.00000000000E+00 0. -1.
        -12    1    6    6    0    0  0.12426546307E+02 -0.42362097478E+01 -0.37731312743E+03  0.37754146880E+03  0.00000000000E+00 0.  1.
</event>
<event>
12    1  0.8113184E-002  0.1875020E+03  0.7818608E-02  0.1161146E+00
         21   -1    0    0  503  502  0.00000000000E+00  0.00000000000E+00  0.44432095661E+03  0.44432095661E+03  0.00000000000E+00 0. -1.
         21   -1    0    0  501  503 -0.00000000000E+00 -0.00000000000E+00 -0.17943496696E+03  0.17943496696E+03  0.00000000000E+00 0. -1.
          6    2    1    2  501    0 -0.68513496058E+02 -0.19132010102E+02 -0.10133755443E+03  0.21313443182E+03  0.17348444639E+03 0.  0.
         24    2    3    3    0    0 -0.63103237401E+02 -0.64142905100E+02 -0.11390847682E+03  0.16585473579E+03  0.80226687873E+02 0.  0.
         -6    2    1    2    0  502  0.68513496058E+02  0.19132010102E+02  0.36622354407E+03  0.41062149175E+03  0.17155230195E+03 0.  0.
        -24    2    5    5    0    0 -0.16267228864E+02  0.30980308255E+02  0.11355191455E+03  0.14380096059E+03  0.80995535266E+02 0.  0.
          5    1    3    3  501    0 -0.54102586576E+01  0.45010894999E+02  0.12570922390E+02  0.47279696034E+02  0.47000000000E+01 0. -1.
        -11    1    4    4    0    0 -0.37319041522E+02 -0.59120791672E+02 -0.26805170403E+02  0.74876538571E+02  0.00000000000E+00 0.  1.
         12    1    4    4    0    0 -0.25784195879E+02 -0.50221134281E+01 -0.87103306413E+02  0.90978197215E+02  0.00000000000E+00 0. -1.
         -5    1    5    5    0  502  0.84780724922E+02 -0.11848298153E+02  0.25267162951E+03  0.26682053116E+03  0.47000000000E+01 0.  1.
         13    1    6    6    0    0  0.98784366766E+00  0.38002571082E+02  0.11856385449E+03  0.12450927209E+03  0.00000000000E+00 0. -1.
        -14    1    6    6    0    0 -0.17255072532E+02 -0.70222628266E+01 -0.50119399379E+01  0.19291688501E+02  0.00000000000E+00 0.  1.
</event>
<event>
12    1  0.8113184E-002  0.2173129E+03  0.7818608E-02  0.1136841E+00
         21   -1    0    0  501  502  0.00000000000E+00  0.00000000000E+00  0.31870193356E+03  0.31870193356E+03  0.00000000000E+00 0.  1.
         21   -1    0    0  502  503 -0.00000000000E+00 -0.00000000000E+00 -0.14591362868E+03  0.14591362868E+03  0.00000000000E+00 0.  1.
         -6    2    1    2    0  503 -0.68940537515E+02  0.10769378244E+03  0.67631864051E+02  0.22759384366E+03  0.17571038713E+03 0.  0.
        -24    2    3    3    0    0  0.78251499584E+00  0.12158087819E+03  0.52494670355E+02  0.15475580337E+03  0.80069632128E+02 0.  0.
          6    2    1    2  501    0  0.68940537515E+02 -0.10769378244E+03  0.10515644082E+03  0.23702171858E+03  0.16961918979E+03 0.  0.
         24    2    5    5    0    0  0.37468286377E+02 -0.81769310014E+02  0.13991928127E+03  0.18323393244E+03  0.76858156253E+02 0.  0.
          5    1    5    5  501    0  0.31472251137E+02 -0.25924472423E+02 -0.34762840449E+02  0.53787786143E+02  0.47000000000E+01 0. -1.
        -11    1    6    6    0    0  0.38096037744E+02 -0.52536960617E+01  0.27635222775E+02  0.47356255679E+02  0.00000000000E+00 0.  1.
         12    1    6    6    0    0 -0.62775136701E+00 -0.76515613952E+02  0.11228405849E+03  0.13587767676E+03  0.00000000000E+00 0. -1.
         -5    1    3    3    0  503 -0.69723052510E+02 -0.13887095755E+02  0.15137193696E+02  0.72838040287E+02  0.47000000000E+01 0.  1.
         11    1    4    4    0    0 -0.38105708901E+02  0.80098053911E+02  0.30747109686E+02  0.93878261835E+02  0.00000000000E+00 0. -1.
        -12    1    4    4    0    0  0.38888223897E+02  0.41482824281E+02  0.21747560669E+02  0.60877541534E+02  0.00000000000E+00 0.  1.
</event>
<event>
12    1  0.8113184E-002  0.2245530E+03  0.7818608E-02  0.1130597E+00
         21   -1    0    0  501  502  0.00000000000E+00  0.00000000000E+00  0.41632769788E+03  0.41632769788E+03  0.00000000000E+00 0.  1.
         21   -1    0    0  502  503 -0.00000000000E+00 -0.00000000000E+00 -0.14938794185E+03  0.14938794185E+03  0.00000000000E+00 0.  1.
         -6    2    1    2    0  503 -0.87189483256E+02 -0.11672967307E+03  0.10092965642E+02  0.22477970867E+03  0.17086903437E+03 0.  0.
        -24    2    3    3    0    0  0.55313082054E+01 -0.18530159656E+02 -0.27589481553E+02  0.84485922523E+02  0.77477283283E+02 0.  0.
          6    2    1    2  501    0  0.87189483256E+02  0.11672967307E+03  0.25684679038E+03  0.34093593107E+03  0.17040895750E+03 0.  0.
         24    2    5    5    0    0  0.26382850321E+01  0.45852078700E+02  0.19115576405E+03  0.21244492186E+03  0.80516737567E+02 0.  0.
          5    1    5    5  501    0  0.84551198224E+02  0.70877594370E+02  0.65691026337E+02  0.12849100920E+03  0.47000000000E+01 0. -1.
        -13    1    6    6    0    0  0.20553324198E+02  0.66979117906E+01  0.15418354288E+03  0.15569157348E+03  0.00000000000E+00 0.  1.
         14    1    6    6    0    0 -0.17915039166E+02  0.39154166910E+02  0.36972221168E+02  0.56753348384E+02  0.00000000000E+00 0. -1.
         -5    1    3    3    0  503 -0.92720791462E+02 -0.98199513415E+02  0.37682447194E+02  0.14029378614E+03  0.47000000000E+01 0.  1.
         11    1    4    4    0    0 -0.92527659203E+01 -0.46557883175E+02 -0.11034213772E+02  0.48734013138E+02  0.00000000000E+00 0. -1.
        -12    1    4    4    0    0  0.14784074126E+02  0.28027723519E+02 -0.16555267780E+02  0.35751909386E+02  0.00000000000E+00 0.  1.
</event>
<event>
12    1  0.8113184E-002  0.2592688E+03  0.7818608E-02  0.1108695E+00
         21   -1    0    0  503  502  0.00000000000E+00  0.00000000000E+00  0.43337235784E+04  0.43337235784E+04  0.00000000000E+00 0. -1.
         21   -1    0    0  501  503 -0.00000000000E+00 -0.00000000000E+00 -0.62267452704E+02  0.62267452704E+02  0.00000000000E+00 0. -1.
          6    2    1    2  501    0  0.15955818793E+03  0.11161957233E+03  0.22969598804E+03  0.34638209767E+03  0.17117992406E+03 0.  0.
         24    2    3    3    0    0  0.18425466838E+03  0.76931563157E+02  0.17712313144E+03  0.27856492155E+03  0.79734331333E+02 0.  0.
         -6    2    1    2    0  502 -0.15955818793E+03 -0.11161957233E+03  0.40417601376E+04  0.40496089334E+04  0.15996799407E+03 0.  0.
        -24    2    5    5    0    0 -0.82160659563E+02 -0.58285375833E+02  0.13457710565E+04  0.13519777263E+04  0.81218698075E+02 0.  0.
          5    1    3    3  501    0 -0.24696480448E+02  0.34688009169E+02  0.52572856593E+02  0.67817176120E+02  0.47000000000E+01 0. -1.
        -11    1    4    4    0    0  0.59968277773E+02  0.78218299547E+01  0.13846348155E+02  0.62041088966E+02  0.00000000000E+00 0.  1.
         12    1    4    4    0    0  0.12428639061E+03  0.69109733203E+02  0.16327678329E+03  0.21652383258E+03  0.00000000000E+00 0. -1.
         -5    1    5    5    0  502 -0.77397528372E+02 -0.53334196493E+02  0.26959890811E+04  0.26976312071E+04  0.47000000000E+01 0.  1.
         11    1    6    6    0    0 -0.86034456833E+02 -0.64354949723E+02  0.13329506013E+04  0.13372736417E+04  0.00000000000E+00 0. -1.
        -12    1    6    6    0    0  0.38737972696E+01  0.60695738900E+01  0.12820455236E+02  0.14704084635E+02  0.00000000000E+00 0.  1.
</event>
<event>
12    1  0.8113184E-002  0.1765950E+03  0.7818608E-02  0.1171354E+00
         21   -1    0    0  501  502  0.00000000000E+00  0.00000000000E+00  0.44900879599E+03  0.44900879599E+03  0.00000000000E+00 0.  1.
         21   -1    0    0  502  503 -0.00000000000E+00 -0.00000000000E+00 -0.72200370789E+02  0.72200370789E+02  0.00000000000E+00 0.  1.
         -6    2    1    2    0  503 -0.31819430247E+02  0.14541798118E+02  0.24182673816E+03  0.29893490909E+03  0.17221489061E+03 0.  0.
        -24    2    3    3    0    0 -0.82090718265E+02 -0.44812890187E+01  0.20286663094E+03  0.23238372429E+03  0.78027926981E+02 0.  0.
          6    2    1    2  501    0  0.31819430247E+02 -0.14541798118E+02  0.13498168703E+03  0.22227425769E+03  0.17309491547E+03 0.  0.
         24    2    5    5    0    0  0.33538909137E+02  0.35799302528E+01  0.16364532739E+00  0.86151709900E+02  0.79274308651E+02 0.  0.
          5    1    5    5  501    0 -0.17194788891E+01 -0.18121728371E+02  0.13481804171E+03  0.13612254779E+03  0.47000000000E+01 0. -1.
        -11    1    6    6    0    0 -0.18824543366E+02  0.22909649780E+01 -0.22201057063E+02  0.29197583601E+02  0.00000000000E+00 0.  1.
         12    1    6    6    0    0  0.52363452502E+02  0.12889652748E+01  0.22364702390E+02  0.56954126298E+02  0.00000000000E+00 0. -1.
         -5    1    3    3    0  503  0.50271288018E+02  0.19023087137E+02  0.38960107225E+02  0.66551184799E+02  0.47000000000E+01 0.  1.
         13    1    4    4    0    0 -0.61234744431E+02 -0.33289192231E+02  0.88710840374E+02  0.11281612227E+03  0.00000000000E+00 0. -1.
        -14    1    4    4    0    0 -0.20855973834E+02  0.28807903212E+02  0.11415579056E+03  0.11956760201E+03  0.00000000000E+00 0.  1.
</event>
<event>
12    1  0.8113184E-002  0.2130258E+03  0.7818608E-02  0.1139214E+00
         21   -1    0    0  503  502  0.00000000000E+00  0.00000000000E+00  0.66878160836E+03  0.66878160836E+03  0.00000000000E+00 0. -1.
         21   -1    0    0  501  503 -0.00000000000E+00 -0.00000000000E+00 -0.11129572789E+03  0.11129572789E+03  0.00000000000E+00 0. -1.
          6    2    1    2  501    0  0.73762638313E+02  0.10387320896E+03  0.35007388679E+02  0.21588312427E+03  0.17073205830E+03 0.  0.
         24    2    3    3    0    0  0.94760044417E+02  0.12558975047E+03  0.17726194147E+02  0.18076576500E+03  0.87234124026E+02 0.  0.
         -6    2    1    2    0  502 -0.73762638313E+02 -0.10387320896E+03  0.52247849179E+03  0.56419421197E+03  0.17058946065E+03 0.  0.
        -24    2    5    5    0    0 -0.26356225277E+01 -0.11308550633E+03  0.29820268275E+03  0.32868275298E+03  0.79449567995E+02 0.  0.
          5    1    3    3  501    0 -0.20997406104E+02 -0.21716541507E+02  0.17281194532E+02  0.35117359277E+02  0.47000000000E+01 0. -1.
        -13    1    4    4    0    0  0.13500183896E+02 -0.63229579101E+01 -0.16354227079E+02  0.22129064719E+02  0.00000000000E+00 0.  1.
         14    1    4    4    0    0  0.81259860521E+02  0.13191270838E+03  0.34080421226E+02  0.15863670028E+03  0.00000000000E+00 0. -1.
         -5    1    5    5    0  502 -0.71127015786E+02  0.92122973724E+01  0.22427580904E+03  0.23551145899E+03  0.47000000000E+01 0. -1.
         11    1    6    6    0    0 -0.19147941030E+01 -0.34249074508E+02  0.20401753010E+02  0.39911114580E+02  0.00000000000E+00 0. -1.
        -12    1    6    6    0    0 -0.72082842462E+00 -0.78836431826E+02  0.27780092974E+03  0.28877163840E+03  0.00000000000E+00 0.  1.
</event>
<event>
12    1  0.8113184E-002  0.1986226E+03  0.7818608E-02  0.1150949E+00
         21   -1    0    0  503  502  0.00000000000E+00  0.00000000000E+00  0.59312716377E+02  0.59312716377E+02  0.00000000000E+00 0.  1.
         21   -1    0    0  501  503 -0.00000000000E+00 -0.00000000000E+00 -0.74105615011E+03  0.74105615011E+03  0.00000000000E+00 0. -1.
          6    2    1    2  501    0 -0.57693629508E+02  0.81978030296E+02 -0.46967926203E+03  0.50995051910E+03  0.17147002774E+03 0.  0.
         24    2    3    3    0    0 -0.83505614176E+02  0.67830618619E+02 -0.45904918964E+03  0.47830409357E+03  0.80464072704E+02 0.  0.
         -6    2    1    2    0  502  0.57693629508E+02 -0.81978030296E+02 -0.21206417171E+03  0.29041834739E+03  0.17123857989E+03 0.  0.
        -24    2    5    5    0    0  0.77764728508E+02  0.38794090536E+00 -0.99884730468E+02  0.14972961556E+03  0.79965585707E+02 0.  0.
          5    1    3    3  501    0  0.25811984667E+02  0.14147411678E+02 -0.10630072385E+02  0.31646425526E+02  0.47000000000E+01 0. -1.
        -11    1    4    4    0    0 -0.25626418337E+02 -0.93515669227E+01 -0.40847196538E+02  0.49118821094E+02  0.00000000000E+00 0.  1.
         12    1    4    4    0    0 -0.57879195839E+02  0.77182185541E+02 -0.41820199310E+03  0.42918527248E+03  0.00000000000E+00 0. -1.
         -5    1    5    5    0  502 -0.20071098999E+02 -0.82365971202E+02 -0.11217944124E+03  0.14068873183E+03  0.47000000000E+01 0.  1.
         11    1    6    6    0    0  0.22473596880E+02  0.28998859821E+02 -0.73433460434E+02  0.82088181482E+02  0.00000000000E+00 0. -1.
        -12    1    6    6    0    0  0.55291131628E+02 -0.28610918916E+02 -0.26451270034E+02  0.67641434080E+02  0.00000000000E+00 0.  1.
</event>
<event>
12    1  0.8113184E-002  0.1765517E+03  0.7818608E-02  0.1175081E+00
         21   -1    0    0  501  502  0.00000000000E+00  0.00000000000E+00  0.89965984194E+03  0.89965984194E+03  0.00000000000E+00 0. -1.
         21   -1    0    0  502  503 -0.00000000000E+00 -0.00000000000E+00 -0.10119673645E+03  0.10119673645E+03  0.00000000000E+00 0. -1.
         -6    2    1    2    0  503 -0.39166226654E+02 -0.15513024774E+02 -0.20693132824E+02  0.16289033277E+03  0.15598207434E+03 0.  0.
        -24    2    3    3    0    0 -0.39583666820E+02  0.57637636348E+02 -0.64982830788E+01  0.88225901892E+02  0.53409908060E+02 0.  0.
          6    2    1    2  501    0  0.39166226654E+02  0.15513024774E+02  0.81915623831E+03  0.83796624562E+03  0.17145214723E+03 0.  0.
         24    2    5    5    0    0 -0.12748198905E+02 -0.48200110030E+02  0.59029409550E+03  0.59474938449E+03  0.52857771288E+02 0.  0.
          5    1    5    5  501    0  0.51914425559E+02  0.63713134804E+02  0.22886214281E+03  0.24321686114E+03  0.47000000000E+01 0. -1.
        -11    1    6    6    0    0  0.72778404937E+01 -0.48186040151E+02  0.31715821342E+03  0.32088034182E+03  0.00000000000E+00 0.  1.
         12    1    6    6    0    0 -0.20026039399E+02 -0.14069878818E-01  0.27313588208E+03  0.27386904266E+03  0.00000000000E+00 0. -1.
         -5    1    3    3    0  503  0.41744016614E+00 -0.73150661122E+02 -0.14194849745E+02  0.74664430877E+02  0.47000000000E+01 0.  1.
         13    1    4    4    0    0 -0.10915730888E+02 -0.50034766332E+01 -0.14552735702E+02  0.18867169254E+02  0.00000000000E+00 0. -1.
        -14    1    4    4    0    0 -0.28667935932E+02  0.62641112981E+02  0.80544526229E+01  0.69358732638E+02  0.00000000000E+00 0.  1.
</event>
<event>
12    1  0.8113184E-002  0.2092395E+03  0.7818608E-02  0.1142577E+00
         21   -1    0    0  501  502  0.00000000000E+00  0.00000000000E+00  0.16915779614E+03  0.16915779614E+03  0.00000000000E+00 0.  1.
         21   -1    0    0  502  503 -0.00000000000E+00 -0.00000000000E+00 -0.86200200607E+03  0.86200200607E+03  0.00000000000E+00 0.  1.
         -6    2    1    2    0  503 -0.11690865603E+03 -0.11991326907E+02 -0.77810207509E+03  0.80521716256E+03  0.17064704468E+03 0.  0.
        -24    2    3    3    0    0 -0.14404832491E+03 -0.19274595316E+02 -0.73413618413E+03  0.75282730483E+03  0.81679765658E+02 0.  0.
          6    2    1    2  501    0  0.11690865603E+03  0.11991326907E+02  0.85257865149E+02  0.22594263965E+03  0.17311772603E+03 0.  0.
         24    2    5    5    0    0  0.15511724249E+02 -0.43592301603E+02  0.56913549495E+02  0.10679412827E+03  0.77620431393E+02 0.  0.
          5    1    5    5  501    0  0.10139693178E+03  0.55583628510E+02  0.28344315655E+02  0.11914851137E+03  0.47000000000E+01 0. -1.
        -11    1    6    6    0    0  0.44886353971E+02 -0.12542144717E+02  0.21681646948E+02  0.51402178760E+02  0.00000000000E+00 0.  1.
         12    1    6    6    0    0 -0.29374629722E+02 -0.31050156887E+02  0.35231902547E+02  0.55391949515E+02  0.00000000000E+00 0. -1.
         -5    1    3    3    0  503  0.27139668880E+02  0.72832684093E+01 -0.43965890957E+02  0.52389857733E+02  0.47000000000E+01 0.  1.
         11    1    4    4    0    0 -0.42186342172E+02 -0.44899532128E+02 -0.26112864129E+03  0.26829801108E+03  0.00000000000E+00 0. -1.
        -12    1    4    4    0    0 -0.10186198273E+03  0.25624936812E+02 -0.47300754284E+03  0.48452929375E+03  0.00000000000E+00 0.  1.
</event>
<event>
12    1  0.8113184E-002  0.1737227E+03  0.7818608E-02  0.1174072E+00
         21   -1    0    0  503  502  0.00000000000E+00  0.00000000000E+00  0.28787917339E+02  0.28787917339E+02  0.00000000000E+00 0.  1.
         21   -1    0    0  501  503 -0.00000000000E+00 -0.00000000000E+00 -0.21629390279E+04  0.21629390279E+04  0.00000000000E+00 0.  1.
          6    2    1    2  501    0  0.73881913944E+01 -0.16187868601E+02 -0.18538784775E+04  0.18619811104E+04  0.17260247267E+03 0.  0.
         24    2    3    3    0    0 -0.20336183182E+02 -0.36995228394E+02 -0.54897342386E+03  0.55660726500E+03  0.81594240435E+02 0.  0.
         -6    2    1    2    0  502 -0.73881913944E+01  0.16187868601E+02 -0.28027263299E+03  0.32974583480E+03  0.17280895319E+03 0.  0.
        -24    2    5    5    0    0 -0.81032017319E+00 -0.22854128622E+02 -0.27775751970E+03  0.28979634504E+03  0.79433708430E+02 0.  0.
          5    1    3    3  501    0  0.27724374577E+02  0.20807359794E+02 -0.13049050537E+04  0.13053738454E+04  0.47000000000E+01 0. -1.
        -11    1    4    4    0    0  0.27729821574E+02 -0.29790984003E+02 -0.18645541751E+03  0.19084566657E+03  0.00000000000E+00 0.  1.
         12    1    4    4    0    0 -0.48066004756E+02 -0.72042443909E+01 -0.36251800636E+03  0.36576159843E+03  0.00000000000E+00 0. -1.
         -5    1    5    5    0  502 -0.65778712212E+01  0.39041997222E+02 -0.25151132862E+01  0.39949489756E+02  0.47000000000E+01 0.  1.
         13    1    6    6    0    0  0.37545136052E+01 -0.51878223607E+02 -0.15203283504E+03  0.16068425370E+03  0.00000000000E+00 0. -1.
        -14    1    6    6    0    0 -0.45648337784E+01  0.29024094986E+02 -0.12572468466E+03  0.12911209134E+03  0.00000000000E+00 0.  1.
</event>
<event>
12    1  0.8113184E-002  0.1764564E+03  0.7818608E-02  0.1171557E+00
         21   -1    0    0  503  502  0.00000000000E+00  0.00000000000E+00  0.14239559306E+03  0.14239559306E+03  0.00000000000E+00 0.  1.
         21   -1    0    0  501  503 -0.00000000000E+00 -0.00000000000E+00 -0.21923128099E+03  0.21923128099E+03  0.00000000000E+00 0.  1.
          6    2    1    2  501    0 -0.36188634150E+02  0.92427428986E+00 -0.21216841166E+02  0.17661250511E+03  0.17155567926E+03 0.  0.
         24    2    3    3    0    0 -0.44548368605E+02 -0.22313154494E+02  0.45554307392E+02  0.10526588966E+03  0.80766816171E+02 0.  0.
         -6    2    1    2    0  502  0.36188634150E+02 -0.92427428986E+00 -0.55618846769E+02  0.18501436894E+03  0.17270318201E+03 0.  0.
        -24    2    5    5    0    0  0.70638002922E+01 -0.31147305062E+02  0.28598067193E+02  0.90800430836E+02  0.80042594321E+02 0.  0.
          5    1    3    3  501    0  0.83597344551E+01  0.23237428784E+02 -0.66771148558E+02  0.71346615451E+02  0.47000000000E+01 0. -1.
        -11    1    4    4    0    0 -0.16324846687E+02 -0.24232895708E+02  0.64778472419E+02  0.71063241853E+02  0.00000000000E+00 0.  1.
         12    1    4    4    0    0 -0.28223521918E+02  0.19197412142E+01 -0.19224165027E+02  0.34202647803E+02  0.00000000000E+00 0. -1.
         -5    1    5    5    0  502  0.29124833857E+02  0.30223030772E+02 -0.84216913963E+02  0.94213938107E+02  0.47000000000E+01 0.  1.
         11    1    6    6    0    0  0.42118901204E+02 -0.92751190409E+01  0.23648309295E+02  0.49186097674E+02  0.00000000000E+00 0. -1.
        -12    1    6    6    0    0 -0.35055100912E+02 -0.21872186021E+02  0.49497578977E+01  0.41614333162E+02  0.00000000000E+00 0.  1.
</event>
<event>
12    1  0.8113184E-002  0.2060556E+03  0.7818608E-02  0.1144999E+00
         21   -1    0    0  503  502  0.00000000000E+00  0.00000000000E+00  0.83593461225E+03  0.83593461225E+03  0.00000000000E+00 0.  1.
         21   -1    0    0  501  503 -0.00000000000E+00 -0.00000000000E+00 -0.51053302349E+02  0.51053302349E+02  0.00000000000E+00 0.  1.
          6    2    1    2  501    0 -0.11804638112E+02 -0.11257247862E+03  0.34605924169E+03  0.40276038358E+03  0.17218308685E+03 0.  0.
         24    2    3    3    0    0  0.37012032331E+02 -0.77196984073E+02  0.11592085131E+03  0.16481025928E+03  0.79971950756E+02 0.  0.
         -6    2    1    2    0  502  0.11804638112E+02  0.11257247862E+03  0.43882206821E+03  0.48422753102E+03  0.17058599540E+03 0.  0.
        -24    2    5    5    0    0  0.55074328893E+02  0.78736109312E+02  0.39354986100E+03  0.41289150385E+03  0.79783107472E+02 0.  0.
          5    1    3    3  501    0 -0.48816670443E+02 -0.35375494545E+02  0.23013839038E+03  0.23795012429E+03  0.47000000000E+01 0. -1.
        -11    1    4    4    0    0  0.52818047115E+02 -0.47621962052E+02  0.10965304672E+03  0.13069578427E+03  0.00000000000E+00 0.  1.
         12    1    4    4    0    0 -0.15806014783E+02 -0.29575022022E+02  0.62678045934E+01  0.34114475012E+02  0.00000000000E+00 0. -1.
         -5    1    5    5    0  502 -0.43269690781E+02  0.33836369306E+02  0.45272207206E+02  0.71336027177E+02  0.47000000000E+01 0.  1.
         13    1    6    6    0    0  0.57951371701E+02  0.85761643697E+02  0.27079825053E+03  0.28990535266E+03  0.00000000000E+00 0. -1.
        -14    1    6    6    0    0 -0.28770428079E+01 -0.70255343854E+01  0.12275161048E+03  0.12298615119E+03  0.00000000000E+00 0.  1.
</event>
<event>
12    1  0.8113184E-002  0.2139245E+03  0.7818608E-02  0.1141515E+00
         21   -1    0    0  503  502  0.00000000000E+00  0.00000000000E+00  0.34299305553E+03  0.34299305553E+03  0.00000000000E+00 0.  1.
         21   -1    0    0  501  503 -0.00000000000E+00 -0.00000000000E+00 -0.14025814904E+03  0.14025814904E+03  0.00000000000E+00 0.  1.
          6    2    1    2  501    0 -0.56329465296E+02 -0.85250078759E+02  0.22968607277E+02  0.21515400359E+03  0.18794441665E+03 0.  0.
         24    2    3    3    0    0 -0.98384698863E+02 -0.10599833663E+03  0.59291034559E+01  0.16503846143E+03  0.79292768556E+02 0.  0.
         -6    2    1    2    0  502  0.56329465296E+02  0.85250078759E+02  0.17976629921E+03  0.26809720099E+03  0.17064466665E+03 0.  0.
        -24    2    5    5    0    0  0.15757856307E+02 -0.19141919788E+02  0.95032440621E+02  0.12757794392E+03  0.81426309474E+02 0.  0.
          5    1    3    3  501    0  0.42055233567E+02  0.20748257873E+02  0.17039503821E+02  0.50115542156E+02  0.47000000000E+01 0. -1.
        -11    1    4    4    0    0 -0.80862793491E+02 -0.45636851085E+02  0.30232798048E+02  0.97650067209E+02  0.00000000000E+00 0.  1.
         12    1    4    4    0    0 -0.17521905372E+02 -0.60361485547E+02 -0.24303694592E+02  0.67388394224E+02  0.00000000000E+00 0. -1.
         -5    1    5    5    0  502  0.40571608989E+02  0.10439199855E+03  0.84733858589E+02  0.14051925707E+03  0.47000000000E+01 0.  1.
         11    1    6    6    0    0 -0.29431508515E+02 -0.51939203456E+01  0.65036072927E+02  0.71574306031E+02  0.00000000000E+00 0. -1.
        -12    1    6    6    0    0  0.45189364822E+02 -0.13947999442E+02  0.29996367694E+02  0.56003637884E+02  0.00000000000E+00 0.  1.
</event>
<event>
12    1  0.8113184E-002  0.1811342E+03  0.7818608E-02  0.1169091E+00
         21   -1    0    0  501  502  0.00000000000E+00  0.00000000000E+00  0.83829513310E+02  0.83829513310E+02  0.00000000000E+00 0.  1.
         21   -1    0    0  502  503 -0.00000000000E+00 -0.00000000000E+00 -0.51746136789E+03  0.51746136789E+03  0.00000000000E+00 0.  1.
         -6    2    1    2    0  503 -0.46155409191E+02 -0.32695425623E+02 -0.38105512333E+03  0.42191539110E+03  0.17207637135E+03 0.  0.
        -24    2    3    3    0    0 -0.61421055691E+02 -0.66217354864E+02 -0.35918345984E+03  0.37881992305E+03  0.79589522585E+02 0.  0.
          6    2    1    2  501    0  0.46155409191E+02  0.32695425623E+02 -0.52576731244E+02  0.17937549009E+03  0.16190102262E+03 0.  0.
         24    2    5    5    0    0  0.26295966088E+02 -0.25007311128E+01  0.28137624769E+02  0.88987082675E+02  0.80182563359E+02 0.  0.
          5    1    5    5  501    0  0.19859443102E+02  0.35196156736E+02 -0.80714356013E+02  0.90388407420E+02  0.47000000000E+01 0. -1.
        -13    1    6    6    0    0  0.51635592736E+01  0.30177811542E+02  0.38040478465E+02  0.48830734744E+02  0.00000000000E+00 0.  1.
         14    1    6    6    0    0  0.21132406815E+02 -0.32678542655E+02 -0.99028536961E+01  0.40156347931E+02  0.00000000000E+00 0. -1.
         -5    1    3    3    0  503  0.15265646501E+02  0.33521929240E+02 -0.21871663490E+02  0.43095468055E+02  0.47000000000E+01 0.  1.
         13    1    4    4    0    0  0.15584276723E+02 -0.32136869946E+02 -0.92449901136E+02  0.99109193877E+02  0.00000000000E+00 0. -1.
        -14    1    4    4    0    0 -0.77005332414E+02 -0.34080484918E+02 -0.26673355871E+03  0.27971072917E+03  0.00000000000E+00 0.  1.
</event>
<event>
12    1  0.8113184E-002  0.1769450E+03  0.7818608E-02  0.1170808E+00
         21   -1    0    0  501  502  0.00000000000E+00  0.00000000000E+00  0.30150495599E+03  0.30150495599E+03  0.00000000000E+00 0.  1.
         21   -1    0    0  502  503 -0.00000000000E+00 -0.00000000000E+00 -0.12522613270E+03  0.12522613270E+03  0.00000000000E+00 0.  1.
         -6    2    1    2    0  503 -0.21861092094E+02  0.33823446828E+02 -0.11288910997E+00  0.17688402489E+03  0.17223824376E+03 0.  0.
        -24    2    3    3    0    0  0.30105053537E+02  0.49790044001E+02  0.41882401004E+02  0.10802832862E+03  0.80812261073E+02 0.  0.
          6    2    1    2  501    0  0.21861092094E+02 -0.33823446828E+02  0.17639171240E+03  0.24984706381E+03  0.17230085951E+03 0.  0.
         24    2    5    5    0    0  0.67101988574E+02 -0.46794851522E+01  0.56173554454E+02  0.11804947386E+03  0.79092576181E+02 0.  0.
          5    1    5    5  501    0 -0.45240896480E+02 -0.29143961676E+02  0.12021815795E+03  0.13179758995E+03  0.47000000000E+01 0. -1.
        -13    1    6    6    0    0  0.62539345964E+02 -0.34045760186E+02  0.51701691364E+02  0.87996298048E+02  0.00000000000E+00 0.  1.
         14    1    6    6    0    0  0.45626426105E+01  0.29366275034E+02  0.44718630899E+01  0.30053175813E+02  0.00000000000E+00 0. -1.
         -5    1    3    3    0  503 -0.51966145631E+02 -0.15966597173E+02 -0.41995290114E+02  0.68855696269E+02  0.47000000000E+01 0.  1.
         11    1    4    4    0    0  0.21146841971E+02  0.38867117369E+02  0.66364631328E+02  0.79762811067E+02  0.00000000000E+00 0. -1.
        -12    1    4    4    0    0  0.89582115664E+01  0.10922926632E+02 -0.24482230325E+02  0.28265517550E+02  0.00000000000E+00 0.  1.
</event>
<event>
12    1  0.8113184E-002  0.2168303E+03  0.7818608E-02  0.1137073E+00
         21   -1    0    0  503  502  0.00000000000E+00  0.00000000000E+00  0.21281420538E+03  0.21281420538E+03  0.00000000000E+00 0. -1.
         21   -1    0    0  501  503 -0.00000000000E+00 -0.00000000000E+00 -0.38769446030E+03  0.38769446030E+03  0.00000000000E+00 0.  1.
          6    2    1    2  501    0 -0.13144779491E+03  0.81275842486E+01 -0.28637856328E+03  0.35669057230E+03  0.16694580692E+03 0.  0.
         24    2    3    3    0    0 -0.14504792106E+02 -0.26516379488E+02 -0.15957833817E+03  0.18068984157E+03  0.79183744918E+02 0.  0.
         -6    2    1    2    0  502  0.13144779491E+03 -0.81275842486E+01  0.11149830836E+03  0.24381809338E+03  0.17225216828E+03 0.  0.
        -24    2    5    5    0    0  0.28392080289E+02  0.34603520139E+02  0.74944251063E+01  0.91222794203E+02  0.79132281310E+02 0.  0.
          5    1    3    3  501    0 -0.11694300281E+03  0.34643963737E+02 -0.12680022511E+03  0.17600073073E+03  0.47000000000E+01 0. -1.
        -13    1    4    4    0    0  0.21279708075E+02  0.85464708821E+01 -0.14322597975E+02  0.27037103267E+02  0.00000000000E+00 0.  1.
         14    1    4    4    0    0 -0.35784500181E+02 -0.35062850370E+02 -0.14525574020E+03  0.15365273831E+03  0.00000000000E+00 0. -1.
         -5    1    5    5    0  502  0.10305571462E+03 -0.42731104388E+02  0.10400388325E+03  0.15259529917E+03  0.47000000000E+01 0.  1.
         11    1    6    6    0    0  0.33071600277E+01  0.54891706573E+02  0.17052149614E+02  0.57574408936E+02  0.00000000000E+00 0. -1.
        -12    1    6    6    0    0  0.25084920262E+02 -0.20288186434E+02 -0.95577245077E+01  0.33648385267E+02  0.00000000000E+00 0.  1.
</event>
<event>
12    1  0.8113184E-002  0.1925250E+03  0.7818608E-02  0.1160463E+00
         21   -1    0    0  503  502  0.00000000000E+00  0.00000000000E+00  0.19476864972E+03  0.19476864972E+03  0.00000000000E+00 0. -1.
         21   -1    0    0  501  503 -0.00000000000E+00 -0.00000000000E+00 -0.56883402849E+03  0.56883402849E+03  0.00000000000E+00 0.  1.
          6    2    1    2  501    0  0.79437951569E+02 -0.35795792589E+02 -0.50269937535E+03  0.53205874491E+03  0.15095734213E+03 0.  0.
         24    2    3    3    0    0  0.58338407819E+02 -0.71321607684E+02 -0.29780861708E+03  0.32299036588E+03  0.84514273923E+02 0.  0.
         -6    2    1    2    0  502 -0.79437951569E+02  0.35795792589E+02  0.12863399657E+03  0.23154393331E+03  0.17168040384E+03 0.  0.
        -24    2    5    5    0    0 -0.68728024786E+02  0.19436680020E+02  0.61643051832E+01  0.10743414963E+03  0.80017322672E+02 0.  0.
          5    1    3    3  501    0  0.21099543750E+02  0.35525815095E+02 -0.20489075826E+03  0.20906837902E+03  0.47000000000E+01 0. -1.
        -11    1    4    4    0    0  0.65845438241E+02 -0.14540817835E+02 -0.17255748066E+03  0.18526505675E+03  0.00000000000E+00 0.  1.
         12    1    4    4    0    0 -0.75070304222E+01 -0.56780789848E+02 -0.12525113642E+03  0.13772530914E+03  0.00000000000E+00 0. -1.
         -5    1    5    5    0  502 -0.10709926783E+02  0.16359112568E+02  0.12246969139E+03  0.12410978368E+03  0.47000000000E+01 0.  1.
         13    1    6    6    0    0  0.30741442276E+01 -0.17058247625E+02  0.19172307291E+02  0.25845919245E+02  0.00000000000E+00 0. -1.
        -14    1    6    6    0    0 -0.71802169013E+02  0.36494927646E+02 -0.13008002108E+02  0.81588230387E+02  0.00000000000E+00 0.  1.
</event>
<event>
12    1  0.8113184E-002  0.2467805E+03  0.7818608E-02  0.1115407E+00
         21   -1    0    0  501  502  0.00000000000E+00  0.00000000000E+00  0.14099953228E+03  0.14099953228E+03  0.00000000000E+00 0.  1.
         21   -1    0    0  502  503 -0.00000000000E+00 -0.00000000000E+00 -0.49815630881E+03  0.49815630881E+03  0.00000000000E+00 0. -1.
         -6    2    1    2    0  503 -0.90031199482E+02  0.15224296800E+03 -0.29568702127E+03  0.38513820081E+03  0.17209613880E+03 0.  0.
        -24    2    3    3    0    0 -0.49443864950E+02  0.12936046445E+03 -0.11099727659E+03  0.19460386668E+03  0.79821325293E+02 0.  0.
          6    2    1    2  501    0  0.90031199482E+02 -0.15224296800E+03 -0.61469755266E+02  0.25401764028E+03  0.17164758249E+03 0.  0.
         24    2    5    5    0    0 -0.27111685631E+01 -0.80454107920E+02 -0.74857481662E+02  0.13588166574E+03  0.79874718195E+02 0.  0.
          5    1    5    5  501    0  0.92742368045E+02 -0.71788860079E+02  0.13387726397E+02  0.11813597454E+03  0.47000000000E+01 0. -1.
        -11    1    6    6    0    0  0.14429181746E+02 -0.74666529490E+02 -0.20747276503E+02  0.78827288385E+02  0.00000000000E+00 0.  1.
         12    1    6    6    0    0 -0.17140350309E+02 -0.57875784308E+01 -0.54110205159E+02  0.57054377353E+02  0.00000000000E+00 0. -1.
         -5    1    3    3    0  503 -0.40587334532E+02  0.22882503546E+02 -0.18468974468E+03  0.19053433413E+03  0.47000000000E+01 0.  1.
         11    1    4    4    0    0 -0.46887113645E+02  0.31366707582E+02 -0.17312754129E+02  0.59008501302E+02  0.00000000000E+00 0. -1.
        -12    1    4    4    0    0 -0.25567513059E+01  0.97993756872E+02 -0.93684522462E+02  0.13559536538E+03  0.00000000000E+00 0.  1.
</event>
<event>
12    1  0.8113184E-002  0.1983227E+03  0.7818608E-02  0.1151306E+00
         21   -1    0    0  503  502  0.00000000000E+00  0.00000000000E+00  0.31282031044E+03  0.31282031044E+03  0.00000000000E+00 0. -1.
         21   -1    0    0  501  503 -0.00000000000E+00 -0.00000000000E+00 -0.18963150319E+03  0.18963150319E+03  0.00000000000E+00 0. -1.
          6    2    1    2  501    0  0.57050974377E+02  0.79207107649E+02 -0.84793731980E+02  0.21506946925E+03  0.17186133958E+03 0.  0.
         24    2    3    3    0    0 -0.30692977651E+02  0.48135313064E+02 -0.71956560929E+02  0.12098790625E+03  0.78748076532E+02 0.  0.
         -6    2    1    2    0  502 -0.57050974377E+02 -0.79207107649E+02  0.20798253923E+03  0.28738234438E+03  0.17263631037E+03 0.  0.
        -24    2    5    5    0    0  0.12732352683E+02 -0.82992922343E+02  0.74044992709E+02  0.13623539107E+03  0.77636865404E+02 0.  0.
          5    1    3    3  501    0  0.87743952028E+02  0.31071794585E+02 -0.12837171052E+02  0.94081563002E+02  0.47000000000E+01 0. -1.
        -11    1    4    4    0    0 -0.55804792667E+01 -0.22009232917E+02 -0.15119437535E+02  0.27279029928E+02  0.00000000000E+00 0.  1.
         12    1    4    4    0    0 -0.25112498385E+02  0.70144545981E+02 -0.56837123394E+02  0.93708876323E+02  0.00000000000E+00 0. -1.
         -5    1    5    5    0  502 -0.69783327060E+02  0.37858146941E+01  0.13393754652E+03  0.15114695332E+03  0.47000000000E+01 0.  1.
         13    1    6    6    0    0  0.90315205452E+00 -0.41686443195E+02  0.82505778820E+02  0.92443381422E+02  0.00000000000E+00 0. -1.
        -14    1    6    6    0    0  0.11829200629E+02 -0.41306479148E+02 -0.84607861109E+01  0.43792009645E+02  0.00000000000E+00 0.  1.
</event>
<event>
12    1  0.8113184E-002  0.2079920E+03  0.7818608E-02  0.1144215E+00
         21   -1    0    0  501  502  0.00000000000E+00  0.00000000000E+00  0.71257975865E+03  0.71257975865E+03  0.00000000000E+00 0. -1.
         21   -1    0    0  502  503 -0.00000000000E+00 -0.00000000000E+00 -0.66313168622E+02  0.66313168622E+02  0.00000000000E+00 0. -1.
         -6    2    1    2    0  503 -0.72817078858E+02  0.91076165386E+02  0.19932695722E+03  0.28808315388E+03  0.17223087063E+03 0.  0.
        -24    2    3    3    0    0 -0.38044011481E+02  0.75039010828E+02  0.37696828472E+02  0.12191232292E+03  0.79770694162E+02 0.  0.
          6    2    1    2  501    0  0.72817078858E+02 -0.91076165386E+02  0.44693963281E+03  0.49080977340E+03  0.16595783625E+03 0.  0.
         24    2    5    5    0    0  0.20024578305E+02 -0.11103480640E+03  0.36962901998E+03  0.39497441290E+03  0.81544236246E+02 0.  0.
          5    1    5    5  501    0  0.52792500553E+02  0.19958641017E+02  0.77310612831E+02  0.95835360500E+02  0.47000000000E+01 0. -1.
        -11    1    6    6    0    0 -0.14125313840E+02 -0.74487748494E+02  0.13276960742E+03  0.15289119602E+03  0.00000000000E+00 0.  1.
         12    1    6    6    0    0  0.34149892145E+02 -0.36547057910E+02  0.23685941256E+03  0.24208321688E+03  0.00000000000E+00 0. -1.
         -5    1    3    3    0  503 -0.34773067377E+02  0.16037154558E+02  0.16163012875E+03  0.16617083096E+03  0.47000000000E+01 0.  1.
         11    1    4    4    0    0 -0.57024336522E+02  0.77144469835E+02  0.36945362639E+02  0.10280079767E+03  0.00000000000E+00 0. -1.
        -12    1    4    4    0    0  0.18980325041E+02 -0.21054590075E+01  0.75146583300E+00  0.19111525245E+02  0.00000000000E+00 0.  1.
</event>
<event>
12    1  0.8113184E-002  0.2070775E+03  0.7818608E-02  0.1144021E+00
         21   -1    0    0  501  502  0.00000000000E+00  0.00000000000E+00  0.10144197161E+03  0.10144197161E+03  0.00000000000E+00 0. -1.
         21   -1    0    0  502  503 -0.00000000000E+00 -0.00000000000E+00 -0.68954942099E+03  0.68954942099E+03  0.00000000000E+00 0.  1.
         -6    2    1    2    0  503 -0.11146776500E+03 -0.25995784183E+02 -0.54037736519E+03  0.57848433224E+03  0.17185919356E+03 0.  0.
        -24    2    3    3    0    0 -0.70767522004E+02 -0.83726576066E+02 -0.34973907844E+03  0.37512651832E+03  0.79901815020E+02 0.  0.
          6    2    1    2  501    0  0.11146776500E+03  0.25995784183E+02 -0.47730084193E+02  0.21250706036E+03  0.17256954057E+03 0.  0.
         24    2    5    5    0    0  0.47601308895E+02  0.80531614344E+02 -0.34763388293E+02  0.12739944501E+03  0.79189013797E+02 0.  0.
          5    1    5    5  501    0  0.63866456109E+02 -0.54535830161E+02 -0.12966695900E+02  0.85107615346E+02  0.47000000000E+01 0. -1.
        -13    1    6    6    0    0  0.65226075280E+02  0.77778484601E+02 -0.18339604039E+02  0.10315170692E+03  0.00000000000E+00 0.  1.
         14    1    6    6    0    0 -0.17624766385E+02  0.27531297424E+01 -0.16423784254E+02  0.24247738095E+02  0.00000000000E+00 0. -1.
         -5    1    3    3    0  503 -0.40700243001E+02  0.57730791883E+02 -0.19063828675E+03  0.20335781393E+03  0.47000000000E+01 0.  1.
         11    1    4    4    0    0 -0.20724195621E+02 -0.83056260473E+02 -0.21912197709E+03  0.23524939007E+03  0.00000000000E+00 0. -1.
        -12    1    4    4    0    0 -0.50043326382E+02 -0.67031559254E+00 -0.13061710136E+03  0.13987712824E+03  0.00000000000E+00 0.  1.
</event>
<event>
12    1  0.8113184E-002  0.2513721E+03  0.7818608E-02  0.1112674E+00
         21   -1    0    0  501  502  0.00000000000E+00  0.00000000000E+00  0.30462580692E+03  0.30462580692E+03  0.00000000000E+00 0. -1.
         21   -1    0    0  502  503 -0.00000000000E+00 -0.00000000000E+00 -0.24262977042E+03  0.24262977042E+03  0.00000000000E+00 0.  1.
         -6    2    1    2    0  503  0.52923379795E+02 -0.17536589028E+03  0.13693562942E+03  0.28495061109E+03  0.16997471739E+03 0.  0.
        -24    2    3    3    0    0 -0.15770951326E+02 -0.15901965166E+03  0.10939967015E+03  0.20901359971E+03  0.78628395067E+02 0.  0.
          6    2    1    2  501    0 -0.52923379795E+02  0.17536589028E+03 -0.74939592917E+02  0.26230496625E+03  0.17214491897E+03 0.  0.
         24    2    5    5    0    0 -0.18348543296E+02  0.14992687759E+03  0.17241312908E+01  0.17431644828E+03  0.86997205959E+02 0.  0.
          5    1    5    5  501    0 -0.34574836499E+02  0.25439012689E+02 -0.76663724208E+02  0.87988517972E+02  0.47000000000E+01 0. -1.
        -13    1    6    6    0    0 -0.18120869255E+02  0.77320568685E+02  0.43500407098E+02  0.90549001441E+02  0.00000000000E+00 0.  1.
         14    1    6    6    0    0 -0.22767404126E+00  0.72606308909E+02 -0.41776275807E+02  0.83767446835E+02  0.00000000000E+00 0. -1.
         -5    1    3    3    0  503  0.68694331121E+02 -0.16346238618E+02  0.27535959269E+02  0.75937011385E+02  0.47000000000E+01 0.  1.
         11    1    4    4    0    0 -0.42446442452E+02 -0.54768037934E+02  0.54814109617E+02  0.88350580468E+02  0.00000000000E+00 0. -1.
        -12    1    4    4    0    0  0.26675491126E+02 -0.10425161373E+03  0.54585560537E+02  0.12066301924E+03  0.00000000000E+00 0.  1.
</event>
<event>
12    1  0.8113184E-002  0.1841644E+03  0.7818608E-02  0.1164338E+00
         21   -1    0    0  503  502  0.00000000000E+00  0.00000000000E+00  0.26050255150E+03  0.26050255150E+03  0.00000000000E+00 0.  1.
         21   -1    0    0  501  503 -0.00000000000E+00 -0.00000000000E+00 -0.27494020356E+03  0.27494020356E+03  0.00000000000E+00 0.  1.
          6    2    1    2  501    0 -0.26520291281E+02 -0.49236165273E+02 -0.20245806230E+03  0.27225419998E+03  0.17322112052E+03 0.  0.
         24    2    3    3    0    0  0.48001810674E+02 -0.55849099699E+02 -0.95481562848E+02  0.14162749514E+03  0.74285414253E+02 0.  0.
         -6    2    1    2    0  502  0.26520291281E+02  0.49236165273E+02  0.18802041024E+03  0.26318855509E+03  0.17546798865E+03 0.  0.
        -24    2    5    5    0    0  0.58708924398E+01 -0.48738340227E+02  0.11823638774E+03  0.14105215103E+03  0.59211255156E+02 0.  0.
          5    1    3    3  501    0 -0.74522101955E+02  0.66129344265E+01 -0.10697649945E+03  0.13062670484E+03  0.47000000000E+01 0. -1.
        -11    1    4    4    0    0  0.22773992643E+02 -0.43816238847E+02 -0.10164504762E+03  0.11300545665E+03  0.00000000000E+00 0.  1.
         12    1    4    4    0    0  0.25227818030E+02 -0.12032860852E+02  0.61634847690E+01  0.28622038491E+02  0.00000000000E+00 0. -1.
         -5    1    5    5    0  502  0.20649398841E+02  0.97974505499E+02  0.69784022494E+02  0.12213640406E+03  0.47000000000E+01 0.  1.
         13    1    6    6    0    0 -0.85056429393E+01  0.74502185841E+01  0.24759563981E+01  0.11575062801E+02  0.00000000000E+00 0. -1.
        -14    1    6    6    0    0  0.14376535379E+02 -0.56188558811E+02  0.11576043135E+03  0.12947708823E+03  0.00000000000E+00 0.  1.
</event>
<event>
12    1  0.8113184E-002  0.2207871E+03  0.7818608E-02  0.1134189E+00
         21   -1    0    0  501  502  0.00000000000E+00  0.00000000000E+00  0.21810855306E+03  0.21810855306E+03  0.00000000000E+00 0. -1.
         21   -1    0    0  502  503 -0.00000000000E+00 -0.00000000000E+00 -0.23309268136E+03  0.23309268136E+03  0.00000000000E+00 0. -1.
         -6    2    1    2    0  503 -0.12460088060E+03  0.42285874281E+02 -0.63443467959E+02  0.22515861158E+03  0.17134133224E+03 0.  0.
        -24    2    3    3    0    0 -0.10869746111E+03 -0.30350562361E+01 -0.97309361362E+02  0.16620189669E+03  0.79558840099E+02 0.  0.
          6    2    1    2  501    0  0.12460088060E+03 -0.42285874281E+02  0.48459339651E+02  0.22604262284E+03  0.17729491005E+03 0.  0.
         24    2    5    5    0    0  0.63540450390E+02 -0.49411949816E+02 -0.41438167596E+02  0.11703432545E+03  0.74168605083E+02 0.  0.
          5    1    5    5  501    0  0.61060430207E+02  0.71260755352E+01  0.89897507247E+02  0.10900829739E+03  0.47000000000E+01 0. -1.
        -11    1    6    6    0    0 -0.79041449028E+01  0.11781561234E+02 -0.11661809374E+02  0.18365143333E+02  0.00000000000E+00 0.  1.
         12    1    6    6    0    0  0.71444595293E+02 -0.61193511050E+02 -0.29776358221E+02  0.98669182120E+02  0.00000000000E+00 0. -1.
         -5    1    3    3    0  503 -0.15903419489E+02  0.45320930517E+02  0.33865893403E+02  0.58956714888E+02  0.47000000000E+01 0.  1.
         11    1    4    4    0    0 -0.10810390111E+03  0.21192874566E+02 -0.84148151659E+02  0.13862360115E+03  0.00000000000E+00 0. -1.
        -12    1    4    4    0    0 -0.59356000007E+00 -0.24227930802E+02 -0.13161209704E+02  0.27578295547E+02  0.00000000000E+00 0.  1.
</event>
<event>
12    1  0.8113184E-002  0.1733355E+03  0.7818608E-02  0.1174692E+00
         21   -1    0    0  501  502  0.00000000000E+00  0.00000000000E+00  0.37131753901E+02  0.37131753901E+02  0.00000000000E+00 0. -1.
         21   -1    0    0  502  503 -0.00000000000E+00 -0.00000000000E+00 -0.92198790135E+03  0.92198790135E+03  0.00000000000E+00 0. -1.
         -6    2    1    2    0  503 -0.67009444912E+01  0.58984791034E+01 -0.61515165048E+03  0.63910620986E+03  0.17310545825E+03 0.  0.
        -24    2    3    3    0    0 -0.10719757525E+02  0.78039283493E+01 -0.15428564651E+03  0.17819478104E+03  0.88167481381E+02 0.  0.
          6    2    1    2  501    0  0.67009444912E+01 -0.58984791034E+01 -0.26970449697E+03  0.32001344539E+03  0.17201277521E+03 0.  0.
         24    2    5    5    0    0  0.42071413438E+02 -0.27855479799E+02 -0.26168714507E+03  0.27735728658E+03  0.76817777506E+02 0.  0.
          5    1    5    5  501    0 -0.35370468946E+02  0.21957000696E+02 -0.80173518950E+01  0.42656158810E+02  0.47000000000E+01 0. -1.
        -11    1    6    6    0    0  0.19291206138E+02 -0.34520802893E+02 -0.24541275563E+03  0.24857847270E+03  0.00000000000E+00 0.  1.
         12    1    6    6    0    0  0.22780207299E+02  0.66653230941E+01 -0.16274389446E+02  0.28778813881E+02  0.00000000000E+00 0. -1.
         -5    1    3    3    0  503  0.40188130334E+01 -0.19054492460E+01 -0.46086600397E+03  0.46091142882E+03  0.47000000000E+01 0.  1.
         11    1    4    4    0    0  0.28318717114E+02 -0.28281789124E+01 -0.12512581706E+03  0.12832154312E+03  0.00000000000E+00 0. -1.
        -12    1    4    4    0    0 -0.39038474639E+02  0.10632107262E+02 -0.29159829451E+02  0.49873237920E+02  0.00000000000E+00 0.  1.
</event>
<event>
12    1  0.8113184E-002  0.1894405E+03  0.7818608E-02  0.1159186E+00
         21   -1    0    0  503  502  0.00000000000E+00  0.00000000000E+00  0.98671832744E+02  0.98671832744E+02  0.00000000000E+00 0. -1.
         21   -1    0    0  501  503 -0.00000000000E+00 -0.00000000000E+00 -0.38838862634E+03  0.38838862634E+03  0.00000000000E+00 0.  1.
          6    2    1    2  501    0 -0.77717329691E+02 -0.23307600362E+02 -0.20885401367E+03  0.28197112328E+03  0.17118553610E+03 0.  0.
         24    2    3    3    0    0  0.25790950564E+02 -0.14361287213E+02 -0.75607267057E+02  0.11294217285E+03  0.78536971389E+02 0.  0.
         -6    2    1    2    0  502  0.77717329691E+02  0.23307600362E+02 -0.80862779932E+02  0.20508933581E+03  0.17011648631E+03 0.  0.
        -24    2    5    5    0    0  0.66369038990E+02  0.80435884974E+02 -0.51105224103E+02  0.13951474672E+03  0.77316490446E+02 0.  0.
          5    1    3    3  501    0 -0.10350828026E+03 -0.89463131486E+01 -0.13324674661E+03  0.16902895043E+03  0.47000000000E+01 0. -1.
        -13    1    4    4    0    0 -0.20716024163E+02  0.24403052765E+01 -0.55980793970E+02  0.59740756946E+02  0.00000000000E+00 0.  1.
         14    1    4    4    0    0  0.46506974728E+02 -0.16801592490E+02 -0.19626473088E+02  0.53201415906E+02  0.00000000000E+00 0. -1.
         -5    1    5    5    0  502  0.11348290701E+02 -0.57128284613E+02 -0.29757555828E+02  0.65574589084E+02  0.47000000000E+01 0.  1.
         13    1    6    6    0    0  0.64467182981E+02  0.17744004736E+02 -0.22196962022E+02  0.70452625988E+02  0.00000000000E+00 0. -1.
        -14    1    6    6    0    0  0.19018560090E+01  0.62691880238E+02 -0.28908262082E+02  0.69062120737E+02  0.00000000000E+00 0.  1.
</event>
<event>
12    1  0.8113184E-002  0.1947461E+03  0.7818608E-02  0.1155435E+00
         21   -1    0    0  503  502  0.00000000000E+00  0.00000000000E+00  0.39391050404E+03  0.39391050404E+03  0.00000000000E+00 0.  1.
         21   -1    0    0  501  503 -0.00000000000E+00 -0.00000000000E+00 -0.11981417614E+03  0.11981417614E+03  0.00000000000E+00 0.  1.
          6    2    1    2  501    0 -0.39984749283E+02  0.78171236658E+02  0.18523432591E+02  0.19562506652E+03  0.17382901564E+03 0.  0.
         24    2    3    3    0    0 -0.20123198591E+00  0.10940229420E+03  0.31375311022E+02  0.14322880727E+03  0.86955037926E+02 0.  0.
         -6    2    1    2    0  502  0.39984749283E+02 -0.78171236658E+02  0.25557289532E+03  0.31809961366E+03  0.16781041974E+03 0.  0.
        -24    2    5    5    0    0 -0.25224876556E+02 -0.29583437268E+02  0.64435852272E+02  0.11032923855E+03  0.80678917086E+02 0.  0.
          5    1    3    3  501    0 -0.39783517297E+02 -0.31231057542E+02 -0.12851878431E+02  0.52396259246E+02  0.47000000000E+01 0. -1.
        -11    1    4    4    0    0  0.63417695267E+01 -0.96849004118E+01 -0.11664239059E+02  0.16433800824E+02  0.00000000000E+00 0.  1.
         12    1    4    4    0    0 -0.65430015126E+01  0.11908719461E+03  0.43039550081E+02  0.12679500645E+03  0.00000000000E+00 0. -1.
         -5    1    5    5    0  502  0.65209625839E+02 -0.48587799390E+02  0.19113704304E+03  0.20777037511E+03  0.47000000000E+01 0.  1.
         13    1    6    6    0    0 -0.48872523565E+02 -0.59891027272E+01  0.58393709422E+02  0.76382054248E+02  0.00000000000E+00 0. -1.
        -14    1    6    6    0    0  0.23647647009E+02 -0.23594334541E+02  0.60421428505E+01  0.33947184297E+02  0.00000000000E+00 0.  1.
</event>
<event>
12    1  0.8113184E-002  0.2494747E+03  0.7818608E-02  0.1113689E+00
         21   -1    0    0  501  502  0.00000000000E+00  0.00000000000E+00  0.18380575528E+03  0.18380575528E+03  0.00000000000E+00 0. -1.
         21   -1    0    0  502  503 -0.00000000000E+00 -0.00000000000E+00 -0.52950382666E+03  0.52950382666E+03  0.00000000000E+00 0. -1.
         -6    2    1    2    0  503 -0.80427795857E+02  0.16117597403E+03 -0.38717483520E+03  0.46041050929E+03  0.17212541679E+03 0.  0.
        -24    2    3    3    0    0 -0.10288132825E+03  0.15946264641E+03 -0.38623641620E+03  0.43738732013E+03  0.78206107909E+02 0.  0.
          6    2    1    2  501    0  0.80427795857E+02 -0.16117597403E+03  0.41476763815E+02  0.25289907265E+03  0.17260154709E+03 0.  0.
         24    2    5    5    0    0  0.70230307864E+01 -0.78229486168E+02 -0.35754591616E+02  0.11778744604E+03  0.80164307238E+02 0.  0.
          5    1    5    5  501    0  0.73404765071E+02 -0.82946487858E+02  0.77231355431E+02  0.13511162661E+03  0.47000000000E+01 0. -1.
        -13    1    6    6    0    0 -0.36148352565E+02 -0.35257296511E+02 -0.23311717927E+02  0.55616693027E+02  0.00000000000E+00 0.  1.
         14    1    6    6    0    0  0.43171383352E+02 -0.42972189656E+02 -0.12442873688E+02  0.62170753011E+02  0.00000000000E+00 0. -1.
         -5    1    3    3    0  503  0.22453532398E+02  0.17133276118E+01 -0.93841900307E+00  0.23023189155E+02  0.47000000000E+01 0.  1.
         13    1    4    4    0    0 -0.92363397092E+02  0.11764955988E+03 -0.35156403394E+03  0.38205979378E+03  0.00000000000E+00 0. -1.
        -14    1    4    4    0    0 -0.10517931163E+02  0.41813086531E+02 -0.34672382253E+02  0.55327526353E+02  0.00000000000E+00 0.  1.
</event>
<event>
12    1  0.8113184E-002  0.2096994E+03  0.7818608E-02  0.1145284E+00
         21   -1    0    0  501  502  0.00000000000E+00  0.00000000000E+00  0.67414023099E+03  0.67414023099E+03  0.00000000000E+00 0.  1.
         21   -1    0    0  502  503 -0.00000000000E+00 -0.00000000000E+00 -0.91727541401E+02  0.91727541401E+02  0.00000000000E+00 0.  1.
         -6    2    1    2    0  503 -0.18495397879E+02  0.85590529572E+02  0.58576643436E+02  0.20161779944E+03  0.17190315704E+03 0.  0.
        -24    2    3    3    0    0  0.54081369093E+02  0.68286837322E+02  0.31118055719E+02  0.12197566920E+03  0.79510023587E+02 0.  0.
          6    2    1    2  501    0  0.18495397879E+02 -0.85590529572E+02  0.52383604615E+03  0.56424997295E+03  0.19054136094E+03 0.  0.
         24    2    5    5    0    0  0.69468979926E+02 -0.10692607151E+03  0.33017512528E+03  0.36280480996E+03  0.79703154511E+02 0.  0.
          5    1    5    5  501    0 -0.50973582047E+02  0.21335541943E+02  0.19366092087E+03  0.20144516298E+03  0.47000000000E+01 0. -1.
        -11    1    6    6    0    0  0.92046894678E+01 -0.45246540850E+01  0.12717651957E+03  0.12758944287E+03  0.00000000000E+00 0.  1.
         12    1    6    6    0    0  0.60264290459E+02 -0.10240141743E+03  0.20299860571E+03  0.23521536709E+03  0.00000000000E+00 0. -1.
         -5    1    3    3    0  503 -0.72576766972E+02  0.17303692249E+02  0.27458587717E+02  0.79642130239E+02  0.47000000000E+01 0.  1.
         11    1    4    4    0    0 -0.17729377281E+02 -0.73269808252E+00  0.92133217051E+01  0.19993823098E+02  0.00000000000E+00 0. -1.
        -12    1    4    4    0    0  0.71810746374E+02  0.69019535405E+02  0.21904734014E+02  0.10198184610E+03  0.00000000000E+00 0.  1.
</event>
<event>
12    1  0.8113184E-002  0.1797616E+03  0.7818608E-02  0.1168777E+00
         21   -1    0    0  503  502  0.00000000000E+00  0.00000000000E+00  0.42428380915E+03  0.42428380915E+03  0.00000000000E+00 0. -1.
         21   -1    0    0  501  503 -0.00000000000E+00 -0.00000000000E+00 -0.75245599254E+02  0.75245599254E+02  0.00000000000E+00 0. -1.
          6    2    1    2  501    0 -0.30522706219E+02  0.89665424943E+01  0.15563458357E+03  0.23548546742E+03  0.17383684099E+03 0.  0.
         24    2    3    3    0    0 -0.36160709350E+02 -0.10044084616E+02  0.10510794702E+02  0.88937880896E+02  0.79943663392E+02 0.  0.
         -6    2    1    2    0  502  0.30522706219E+02 -0.89665424943E+01  0.19340362633E+03  0.26404394098E+03  0.17692429345E+03 0.  0.
        -24    2    5    5    0    0  0.38213761066E+02  0.36651287711E+02  0.36196726348E+02  0.10010420157E+03  0.76857268670E+02 0.  0.
          5    1    3    3  501    0  0.56380031310E+01  0.19010627110E+02  0.14512378886E+03  0.14654758653E+03  0.47000000000E+01 0. -1.
        -13    1    4    4    0    0  0.32221745557E+01 -0.38801065819E+02  0.98828849876E+01  0.40169348181E+02  0.00000000000E+00 0.  1.
         14    1    4    4    0    0 -0.39382883905E+02  0.28756981203E+02  0.62790971430E+00  0.48768532716E+02  0.00000000000E+00 0. -1.
         -5    1    5    5    0  502 -0.76910548472E+01 -0.45617830205E+02  0.15720689998E+03  0.16393973941E+03  0.47000000000E+01 0.  1.
         11    1    6    6    0    0  0.23166812691E+02 -0.78739421862E+01  0.45991616527E+02  0.52095383352E+02  0.00000000000E+00 0. -1.
        -12    1    6    6    0    0  0.15046948375E+02  0.44525229897E+02 -0.97948901795E+01  0.48008818215E+02  0.00000000000E+00 0.  1.
</event>
<event>
12    1  0.8113184E-002  0.1780257E+03  0.7818608E-02  0.1169886E+00
         21   -1    0    0  503  502  0.00000000000E+00  0.00000000000E+00  0.28589969552E+03  0.28589969552E+03  0.00000000000E+00 0. -1.
         21   -1    0    0  501  503 -0.00000000000E+00 -0.00000000000E+00 -0.31510084620E+03  0.31510084620E+03  0.00000000000E+00 0. -1.
          6    2    1    2  501    0 -0.28901546846E+02  0.33119114386E+02 -0.25676231126E+03  0.31207626340E+03  0.17185032600E+03 0.  0.
         24    2    3    3    0    0  0.46691562833E+02  0.14162886773E+02 -0.15335967795E+03  0.18250832226E+03  0.86077915122E+02 0.  0.
         -6    2    1    2    0  502  0.28901546846E+02 -0.33119114386E+02  0.22756116058E+03  0.28892427832E+03  0.17251371438E+03 0.  0.
        -24    2    5    5    0    0  0.84353725701E+02 -0.19097176240E+02  0.17483906694E+03  0.21099310326E+03  0.80430946235E+02 0.  0.
          5    1    3    3  501    0 -0.75593109679E+02  0.18956227613E+02 -0.10340263330E+03  0.12956794114E+03  0.47000000000E+01 0. -1.
        -13    1    4    4    0    0  0.96801237049E+00 -0.33128700098E+02 -0.53170455290E+02  0.62654170922E+02  0.00000000000E+00 0.  1.
         14    1    4    4    0    0  0.45723550463E+02  0.47291586872E+02 -0.10018922266E+03  0.11985415134E+03  0.00000000000E+00 0. -1.
         -5    1    5    5    0  502 -0.55452178855E+02 -0.14021938147E+02  0.52722093638E+02  0.77931175063E+02  0.47000000000E+01 0.  1.
         11    1    6    6    0    0  0.35883813273E+02 -0.41140900255E+02  0.45305199551E+02  0.70942109040E+02  0.00000000000E+00 0. -1.
        -12    1    6    6    0    0  0.48469912428E+02  0.22043724015E+02  0.12953386739E+03  0.14005099422E+03  0.00000000000E+00 0.  1.
</event>
<event>
12    1  0.8113184E-002  0.1785405E+03  0.7818608E-02  0.1169843E+00
         21   -1    0    0  503  502  0.00000000000E+00  0.00000000000E+00  0.30466337548E+03  0.30466337548E+03  0.00000000000E+00 0. -1.
         21   -1    0    0  501  503 -0.00000000000E+00 -0.00000000000E+00 -0.39085765701E+03  0.39085765701E+03  0.00000000000E+00 0. -1.
          6    2    1    2  501    0  0.37697394758E+02 -0.12452299653E+02 -0.34153477261E+03  0.38538643671E+03  0.17407053559E+03 0.  0.
         24    2    3    3    0    0 -0.31390507337E+02 -0.25076456224E+02 -0.10183183883E+03  0.13556231056E+03  0.79957639014E+02 0.  0.
         -6    2    1    2    0  502 -0.37697394758E+02  0.12452299653E+02  0.25534049108E+03  0.31013459578E+03  0.17148920600E+03 0.  0.
        -24    2    5    5    0    0 -0.48617858935E+02  0.36808595621E+02  0.26339454437E+03  0.28186016448E+03  0.79686243473E+02 0.  0.
          5    1    3    3  501    0  0.69087902095E+02  0.12624156570E+02 -0.23970293378E+03  0.24982412616E+03  0.47000000000E+01 0. -1.
        -11    1    4    4    0    0  0.20887542563E+02  0.81735603935E+01 -0.94743459198E+01  0.24348711556E+02  0.00000000000E+00 0.  1.
         12    1    4    4    0    0 -0.52278049900E+02 -0.33250016617E+02 -0.92357492909E+02  0.11121359900E+03  0.00000000000E+00 0. -1.
         -5    1    5    5    0  502  0.10920464177E+02 -0.24356295968E+02 -0.80540532827E+01  0.28274431301E+02  0.47000000000E+01 0.  1.
         11    1    6    6    0    0 -0.71317224601E+01 -0.18241748979E+02  0.13235126639E+03  0.13379267763E+03  0.00000000000E+00 0. -1.
        -12    1    6    6    0    0 -0.41486136475E+02  0.55050344600E+02  0.13104327798E+03  0.14806748685E+03  0.00000000000E+00 0.  1.
</event>
<event>
12    1  0.8113184E-002  0.3662480E+03  0.7818608E-02  0.1056151E+00
         21   -1    0    0  503  502  0.00000000000E+00  0.00000000000E+00  0.27315697947E+04  0.27315697947E+04  0.00000000000E+00 0. -1.
         21   -1    0    0  501  503 -0.00000000000E+00 -0.00000000000E+00 -0.51121213139E+02  0.51121213139E+02  0.00000000000E+00 0. -1.
          6    2    1    2  501    0 -0.30625846166E+03 -0.10238598761E+03  0.10624517266E+04  0.11237602124E+04  0.17249987829E+03 0.  0.
         24    2    3    3    0    0 -0.13042054033E+03  0.20595084946E+01  0.57182818948E+03  0.59219518221E+03  0.81816236976E+02 0.  0.
         -6    2    1    2    0  502  0.30625846166E+03  0.10238598761E+03  0.16179968550E+04  0.16589307954E+04  0.17280169361E+03 0.  0.
        -24    2    5    5    0    0  0.20201149139E+03  0.12430813133E+03  0.13162735630E+04  0.13389197860E+04  0.62200856278E+02 0.  0.
          5    1    3    3  501    0 -0.17583792133E+03 -0.10444549610E+03  0.49062353709E+03  0.53156503024E+03  0.47000000000E+01 0. -1.
        -13    1    4    4    0    0 -0.13475349528E+02 -0.15898601857E+02  0.24226021225E+02  0.31957013163E+02  0.00000000000E+00 0.  1.
         14    1    4    4    0    0 -0.11694519080E+03  0.17958110352E+02  0.54760216825E+03  0.56023816904E+03  0.00000000000E+00 0. -1.
         -5    1    5    5    0  502  0.10424697027E+03 -0.21922143721E+02  0.30172329196E+03  0.32001100935E+03  0.47000000000E+01 0.  1.
         11    1    6    6    0    0  0.19228186657E+03  0.95307203544E+02  0.11465117046E+04  0.11664239658E+04  0.00000000000E+00 0. -1.
        -12    1    6    6    0    0  0.97296248218E+01  0.29000927786E+02  0.16976185847E+03  0.17249582025E+03  0.00000000000E+00 0.  1.
</event>
<event>
12    1  0.8113184E-002  0.2643875E+03  0.7818608E-02  0.1104616E+00
         21   -1    0    0  503  502  0.00000000000E+00  0.00000000000E+00  0.17548787793E+03  0.17548787793E+03  0.00000000000E+00 0. -1.
         21   -1    0    0  501  503 -0.00000000000E+00 -0.00000000000E+00 -0.43170067154E+03  0.43170067154E+03  0.00000000000E+00 0.  1.
          6    2    1    2  501    0  0.18170202151E+02 -0.19952390222E+03 -0.42776048161E+02  0.26782554606E+03  0.17251315608E+03 0.  0.
         24    2    3    3    0    0 -0.41086324620E+02 -0.47529151733E+02 -0.23486661881E+01  0.99688092308E+02  0.77363383974E+02 0.  0.
         -6    2    1    2    0  502 -0.18170202151E+02  0.19952390222E+03 -0.21343674545E+03  0.33936300341E+03  0.17167428453E+03 0.  0.
        -24    2    5    5    0    0 -0.59822898470E+02  0.92357407615E+02 -0.16710242498E+03  0.21531235275E+03  0.79545703135E+02 0.  0.
          5    1    3    3  501    0  0.59256526771E+02 -0.15199475049E+03 -0.40427381973E+02  0.16813745375E+03  0.47000000000E+01 0. -1.
        -11    1    4    4    0    0 -0.12054272565E+02  0.38695573708E+01 -0.31428725809E+02  0.33882794561E+02  0.00000000000E+00 0.  1.
         12    1    4    4    0    0 -0.29032052055E+02 -0.51398709103E+02  0.29080059621E+02  0.65805297747E+02  0.00000000000E+00 0. -1.
         -5    1    5    5    0  502  0.41652696319E+02  0.10716649460E+03 -0.46334320468E+02  0.12405065066E+03  0.47000000000E+01 0.  1.
         13    1    6    6    0    0 -0.29334159695E+01 -0.13022447254E+02 -0.61540496882E+01  0.14699026814E+02  0.00000000000E+00 0. -1.
        -14    1    6    6    0    0 -0.56889482500E+02  0.10537985487E+03 -0.16094837530E+03  0.20061332593E+03  0.00000000000E+00 0.  1.
</event>
<event>
12    1  0.8113184E-002  0.2667926E+03  0.7818608E-02  0.1103460E+00
         21   -1    0    0  503  502  0.00000000000E+00  0.00000000000E+00  0.17829805830E+03  0.17829805830E+03  0.00000000000E+00 0.  1.
         21   -1    0    0  501  503 -0.00000000000E+00 -0.00000000000E+00 -0.13242121982E+04  0.13242121982E+04  0.00000000000E+00 0. -1.
          6    2    1    2  501    0  0.20217708917E+03 -0.16762417094E+02 -0.12027154394E+04  0.12319507761E+04  0.17326780574E+03 0.  0.
         24    2    3    3    0    0  0.21820712416E+02 -0.26080847358E+02 -0.47041622184E+03  0.47769651536E+03  0.75803594420E+02 0.  0.
         -6    2    1    2    0  502 -0.20217708917E+03  0.16762417094E+02  0.56801299462E+02  0.27055948046E+03  0.16976304319E+03 0.  0.
        -24    2    5    5    0    0 -0.17984927192E+03 -0.30619273769E+02  0.74612379263E+02  0.21503578627E+03  0.85965584408E+02 0.  0.
          5    1    3    3  501    0  0.18035637675E+03  0.93184302634E+01 -0.73229921753E+03  0.75425426069E+03  0.47000000000E+01 0. -1.
        -13    1    4    4    0    0  0.78402796184E+01  0.28939658774E+01 -0.40207300190E+03  0.40215984867E+03  0.00000000000E+00 0.  1.
         14    1    4    4    0    0  0.13980432797E+02 -0.28974813235E+02 -0.68343219938E+02  0.75536666691E+02  0.00000000000E+00 0. -1.
         -5    1    5    5    0  502 -0.22327817253E+02  0.47381690864E+02 -0.17811079801E+02  0.55523694186E+02  0.47000000000E+01 0.  1.
         13    1    6    6    0    0 -0.76241825067E+02  0.81754008447E+01 -0.78101695310E+01  0.77075624011E+02  0.00000000000E+00 0. -1.
        -14    1    6    6    0    0 -0.10360744685E+03 -0.38794674614E+02  0.82422548794E+02  0.13796016226E+03  0.00000000000E+00 0.  1.
</event>
<event>
12    1  0.8113184E-002  0.2624104E+03  0.7818608E-02  0.1106004E+00
         21   -1    0    0  501  502  0.00000000000E+00  0.00000000000E+00  0.94473720820E+02  0.94473720820E+02  0.00000000000E+00 0. -1.
         21   -1    0    0  502  503 -0.00000000000E+00 -0.00000000000E+00 -0.10708454374E+04  0.10708454374E+04  0.00000000000E+00 0. -1.
         -6    2    1    2    0  503 -0.16925127710E+03  0.97416956511E+02 -0.81885856925E+03  0.85926421840E+03  0.17224860634E+03 0.  0.
        -24    2    3    3    0    0 -0.63778960361E+02  0.14584767160E+01 -0.49493710804E+03  0.50531557457E+03  0.79443099435E+02 0.  0.
          6    2    1    2  501    0  0.16925127710E+03 -0.97416956511E+02 -0.15751314738E+03  0.30605493986E+03  0.17528027956E+03 0.  0.
         24    2    5    5    0    0  0.93906183512E+02  0.18077530782E+02 -0.58982607698E+02  0.13650784619E+03  0.77525967521E+02 0.  0.
          5    1    5    5  501    0  0.75345093585E+02 -0.11549448729E+03 -0.98530539681E+02  0.16954709367E+03  0.47000000000E+01 0. -1.
        -13    1    6    6    0    0 -0.96890430929E+00  0.20995813624E+02 -0.31175060477E+02  0.37598502112E+02  0.00000000000E+00 0.  1.
         14    1    6    6    0    0  0.94875087821E+02 -0.29182828426E+01 -0.27807547221E+02  0.98909344080E+02  0.00000000000E+00 0. -1.
         -5    1    3    3    0  503 -0.10547231674E+03  0.95958479795E+02 -0.32392146120E+03  0.35394864383E+03  0.47000000000E+01 0.  1.
         13    1    4    4    0    0 -0.56850384414E+02  0.35022475371E+02 -0.29500202013E+03  0.30246443075E+03  0.00000000000E+00 0. -1.
        -14    1    4    4    0    0 -0.69285759472E+01 -0.33563998655E+02 -0.19993508791E+03  0.20285114382E+03  0.00000000000E+00 0.  1.
</event>
<event>
12    1  0.8113184E-002  0.2162849E+03  0.7818608E-02  0.1136747E+00
         21   -1    0    0  503  502  0.00000000000E+00  0.00000000000E+00  0.34411072431E+02  0.34411072431E+02  0.00000000000E+00 0.  1.
         21   -1    0    0  501  503 -0.00000000000E+00 -0.00000000000E+00 -0.15140437979E+04  0.15140437979E+04  0.00000000000E+00 0. -1.
          6    2    1    2  501    0  0.11080958175E+03 -0.67000909218E+02 -0.49124067249E+03  0.53674627485E+03  0.17323764028E+03 0.  0.
         24    2    3    3    0    0  0.20105053066E+02 -0.78872667850E+02 -0.18277627243E+03  0.21496898186E+03  0.78609073940E+02 0.  0.
         -6    2    1    2    0  502 -0.11080958175E+03  0.67000909218E+02 -0.98839205295E+03  0.10117085955E+04  0.17282229759E+03 0.  0.
        -24    2    5    5    0    0 -0.13042440930E+02  0.43283846944E+02 -0.70824618379E+03  0.71400956812E+03  0.78443673115E+02 0.  0.
          5    1    3    3  501    0  0.90704528680E+02  0.11871758632E+02 -0.30846440007E+03  0.32177729299E+03  0.47000000000E+01 0. -1.
        -11    1    4    4    0    0  0.12191088482E+02 -0.12894477433E+02  0.26988936810E+01  0.17949212065E+02  0.00000000000E+00 0.  1.
         12    1    4    4    0    0  0.79139645837E+01 -0.65978190417E+02 -0.18547516611E+03  0.19701976979E+03  0.00000000000E+00 0. -1.
         -5    1    5    5    0  502 -0.97767140816E+02  0.23717062274E+02 -0.28014586916E+03  0.29769902733E+03  0.47000000000E+01 0.  1.
         11    1    6    6    0    0 -0.23296498369E+02  0.63600744893E+02 -0.52004416332E+03  0.52443656755E+03  0.00000000000E+00 0. -1.
        -12    1    6    6    0    0  0.10254057439E+02 -0.20316897949E+02 -0.18820202047E+03  0.18957300057E+03  0.00000000000E+00 0.  1.
</event>
<event>
12    1  0.8113184E-002  0.1732158E+03  0.7818608E-02  0.1174655E+00
         21   -1    0    0  501  502  0.00000000000E+00  0.00000000000E+00  0.54209068478E+03  0.54209068478E+03  0.00000000000E+00 0. -1.
         21   -1    0    0  502  503 -0.00000000000E+00 -0.00000000000E+00 -0.82960765059E+02  0.82960765059E+02  0.00000000000E+00 0. -1.
         -6    2    1    2    0  503  0.55169927603E+01 -0.22115460849E+02  0.48562217646E+02  0.17944000079E+03  0.17123344908E+03 0.  0.
        -24    2    3    3    0    0 -0.38118993836E+02 -0.60418058962E+02  0.53658969014E+02  0.12096560278E+03  0.81547486540E+02 0.  0.
          6    2    1    2  501    0 -0.55169927603E+01  0.22115460849E+02  0.41056770208E+03  0.44561144905E+03  0.17170962325E+03 0.  0.
         24    2    5    5    0    0 -0.12591062449E+02  0.32677142940E+02  0.64787773613E+02  0.99566017753E+02  0.67004520424E+02 0.  0.
          5    1    5    5  501    0  0.70740696887E+01 -0.10561682091E+02  0.34577992846E+03  0.34604543129E+03  0.47000000000E+01 0. -1.
        -13    1    6    6    0    0 -0.61633514267E+01 -0.20800943254E+02  0.17048141032E+02  0.27591760613E+02  0.00000000000E+00 0.  1.
         14    1    6    6    0    0 -0.64277110223E+01  0.53478086194E+02  0.47739632581E+02  0.71974257141E+02  0.00000000000E+00 0. -1.
         -5    1    3    3    0  503  0.43635986596E+02  0.38302598113E+02 -0.50967513678E+01  0.58474398013E+02  0.47000000000E+01 0.  1.
         13    1    4    4    0    0  0.69537807105E+01 -0.20782818371E+02 -0.17376349788E+02  0.27968162928E+02  0.00000000000E+00 0. -1.
        -14    1    4    4    0    0 -0.45072774546E+02 -0.39635240591E+02  0.71035318802E+02  0.92997439854E+02  0.00000000000E+00 0.  1.
</event>
<event>
12    1  0.8113184E-002  0.1816740E+03  0.7818608E-02  0.1170058E+00
         21   -1    0    0  501  502  0.00000000000E+00  0.00000000000E+00  0.14680977521E+03  0.14680977521E+03  0.00000000000E+00 0. -1.
         21   -1    0    0  502  503 -0.00000000000E+00 -0.00000000000E+00 -0.24465806169E+03  0.24465806169E+03  0.00000000000E+00 0.  1.
         -6    2    1    2    0  503 -0.41010291763E+02 -0.41363054190E+02  0.30501702466E+02  0.16902869108E+03  0.15571640335E+03 0.  0.
        -24    2    3    3    0    0  0.25930299221E+02 -0.51232293940E+01  0.38350183827E+02  0.92360208097E+02  0.79756150502E+02 0.  0.
          6    2    1    2  501    0  0.41010291763E+02  0.41363054190E+02 -0.12834998895E+03  0.22243914582E+03  0.17208343223E+03 0.  0.
         24    2    5    5    0    0  0.11077064803E+02 -0.40976842214E+02 -0.85971235345E+02  0.12500247217E+03  0.80204499739E+02 0.  0.
          5    1    5    5  501    0  0.29933226960E+02  0.82339896404E+02 -0.42378753604E+02  0.97436673656E+02  0.47000000000E+01 0. -1.
        -11    1    6    6    0    0 -0.27004307175E+02  0.82554767690E+01 -0.22500497725E+02  0.36106203076E+02  0.00000000000E+00 0.  1.
         12    1    6    6    0    0  0.38081371978E+02 -0.49232318983E+02 -0.63470737620E+02  0.88896269090E+02  0.00000000000E+00 0. -1.
         -5    1    3    3    0  503 -0.66940590984E+02 -0.36239824796E+02 -0.78484813618E+01  0.76668482979E+02  0.47000000000E+01 0.  1.
         13    1    4    4    0    0 -0.84332972622E+01 -0.13269525116E+02  0.52131265722E+02  0.54450616758E+02  0.00000000000E+00 0. -1.
        -14    1    4    4    0    0  0.34363596483E+02  0.81462957216E+01 -0.13781081895E+02  0.37909591338E+02  0.00000000000E+00 0.  1.
</event>
<event>
12    1  0.8113184E-002  0.1879805E+03  0.7818608E-02  0.1160794E+00
         21   -1    0    0  501  502  0.00000000000E+00  0.00000000000E+00  0.17843226041E+03  0.17843226041E+03  0.00000000000E+00 0.  1.
         21   -1    0    0  502  503 -0.00000000000E+00 -0.00000000000E+00 -0.48721501902E+03  0.48721501902E+03  0.00000000000E+00 0.  1.
         -6    2    1    2    0  503  0.24560489390E+02 -0.66308271611E+02 -0.41216639781E+03  0.45300971477E+03  0.17417421642E+03 0.  0.
        -24    2    3    3    0    0  0.73109397989E+02 -0.70152288482E+01 -0.26527517167E+03  0.28726357224E+03  0.82190301855E+02 0.  0.
          6    2    1    2  501    0 -0.24560489390E+02  0.66308271611E+02  0.10338363920E+03  0.21263756466E+03  0.17183292039E+03 0.  0.
         24    2    5    5    0    0 -0.61789129684E+02  0.88145993530E+02  0.94095701282E+02  0.16823921393E+03  0.88672540183E+02 0.  0.
          5    1    5    5  501    0  0.37228640294E+02 -0.21837721919E+02  0.92879379180E+01  0.44398350730E+02  0.47000000000E+01 0. -1.
        -13    1    6    6    0    0 -0.40996330653E+02  0.19935159057E+01  0.61232523358E+02  0.73716315354E+02  0.00000000000E+00 0.  1.
         14    1    6    6    0    0 -0.20792799030E+02  0.86152477624E+02  0.32863177924E+02  0.94522898578E+02  0.00000000000E+00 0. -1.
         -5    1    3    3    0  503 -0.48548908600E+02 -0.59293042763E+02 -0.14689122614E+03  0.16574614253E+03  0.47000000000E+01 0.  1.
         11    1    4    4    0    0  0.42279589750E+02 -0.26579498272E+02 -0.56874979023E+02  0.75688814740E+02  0.00000000000E+00 0. -1.
        -12    1    4    4    0    0  0.30829808239E+02  0.19564269424E+02 -0.20840019265E+03  0.21157475750E+03  0.00000000000E+00 0.  1.
</event>
<event>
12    1  0.8113184E-002  0.3832279E+03  0.7818608E-02  0.1049776E+00
         21   -1    0    0  503  502  0.00000000000E+00  0.00000000000E+00  0.26279712783E+03  0.26279712783E+03  0.00000000000E+00 0.  1.
         21   -1    0    0  501  503 -0.00000000000E+00 -0.00000000000E+00 -0.99527838895E+03  0.99527838895E+03  0.00000000000E+00 0. -1.
          6    2    1    2  501    0 -0.82035405733E+02  0.33251515521E+03 -0.78308596843E+03  0.87182982383E+03  0.17195194538E+03 0.  0.
         24    2    3    3    0    0 -0.11718257533E+03  0.26991721302E+03 -0.56274607580E+03  0.64004202393E+03  0.79897363644E+02 0.  0.
         -6    2    1    2    0  502  0.82035405733E+02 -0.33251515521E+03  0.50604707314E+02  0.38624569296E+03  0.17125642377E+03 0.  0.
        -24    2    5    5    0    0 -0.13413674275E+02 -0.13094090913E+03 -0.12726866655E+02  0.15434985035E+03  0.79601851897E+02 0.  0.
          5    1    3    3  501    0  0.35147169601E+02  0.62597942197E+02 -0.22033989263E+03  0.23178779990E+03  0.47000000000E+01 0. -1.
        -11    1    4    4    0    0 -0.78363004237E+02  0.83602216035E+02 -0.20922856471E+03  0.23855121724E+03  0.00000000000E+00 0.  1.
         12    1    4    4    0    0 -0.38819571098E+02  0.18631499698E+03 -0.35351751110E+03  0.40149080668E+03  0.00000000000E+00 0. -1.
         -5    1    5    5    0  502  0.95449080008E+02 -0.20157424608E+03  0.63331573969E+02  0.23189584261E+03  0.47000000000E+01 0.  1.
         13    1    6    6    0    0  0.16884708716E+02 -0.83930304424E+02 -0.37145715164E+02  0.93323060088E+02  0.00000000000E+00 0. -1.
        -14    1    6    6    0    0 -0.30298382990E+02 -0.47010604709E+02  0.24418848509E+02  0.61026790260E+02  0.00000000000E+00 0.  1.
</event>
<event>
12    1  0.8113184E-002  0.2815368E+03  0.7818608E-02  0.1095215E+00
         21   -1    0    0  503  502  0.00000000000E+00  0.00000000000E+00  0.28374472882E+03  0.28374472882E+03  0.00000000000E+00 0. -1.
         21   -1    0    0  501  503 -0.00000000000E+00 -0.00000000000E+00 -0.44999170790E+03  0.44999170790E+03  0.00000000000E+00 0. -1.
          6    2    1    2  501    0 -0.21974296170E+03  0.57837309358E+01 -0.31102004556E+03  0.41951926596E+03  0.17590487488E+03 0.  0.
         24    2    3    3    0    0 -0.22710912916E+03  0.30964896456E+02 -0.22518186103E+03  0.32963803631E+03  0.73600156825E+02 0.  0.
         -6    2    1    2    0  502  0.21974296170E+03 -0.57837309358E+01  0.14477306649E+03  0.31421717076E+03  0.17161809012E+03 0.  0.
        -24    2    5    5    0    0  0.80668466555E+02 -0.68813746192E+01  0.13723818926E+00  0.11350709913E+03  0.79555564901E+02 0.  0.
          5    1    3    3  501    0  0.73661674536E+01 -0.25181165520E+02 -0.85838184533E+02  0.89881229653E+02  0.47000000000E+01 0. -1.
        -11    1    4    4    0    0 -0.85116450023E+02  0.35269721551E+02 -0.52536461791E+02  0.10606056355E+03  0.00000000000E+00 0.  1.
         12    1    4    4    0    0 -0.14199267913E+03 -0.43048250948E+01 -0.17264539924E+03  0.22357747276E+03  0.00000000000E+00 0. -1.
         -5    1    5    5    0  502  0.13907449515E+03  0.10976436834E+01  0.14463582830E+03  0.20071007162E+03  0.47000000000E+01 0.  1.
         11    1    6    6    0    0  0.85250075689E+02 -0.14779564234E+02  0.22459749811E+02  0.89389324226E+02  0.00000000000E+00 0. -1.
        -12    1    6    6    0    0 -0.45816091344E+01  0.78981896144E+01 -0.22322511622E+02  0.24117774909E+02  0.00000000000E+00 0.  1.
</event>
<event>
12    1  0.8113184E-002  0.1940363E+03  0.7818608E-02  0.1154877E+00
         21   -1    0    0  501  502  0.00000000000E+00  0.00000000000E+00  0.10083663443E+04  0.10083663443E+04  0.00000000000E+00 0.  1.
         21   -1    0    0  502  503 -0.00000000000E+00 -0.00000000000E+00 -0.81540906941E+02  0.81540906941E+02  0.00000000000E+00 0.  1.
         -6    2    1    2    0  503 -0.83536589262E+02  0.30529324977E+02  0.62167395105E+02  0.20375194421E+03  0.17245193048E+03 0.  0.
        -24    2    3    3    0    0 -0.46201419636E+02 -0.40112990076E+02 -0.15761506884E+01  0.10143097277E+03  0.80883464541E+02 0.  0.
          6    2    1    2  501    0  0.83536589262E+02 -0.30529324977E+02  0.86465804223E+03  0.88615530701E+03  0.17241605700E+03 0.  0.
         24    2    5    5    0    0  0.12476672551E+03 -0.33893032462E+02  0.65365522094E+03  0.67108434370E+03  0.79834673304E+02 0.  0.
          5    1    5    5  501    0 -0.41230136243E+02  0.33637074856E+01  0.21100282130E+03  0.21507096331E+03  0.47000000000E+01 0. -1.
        -13    1    6    6    0    0  0.10369628101E+03 -0.12706403408E+02  0.33212330920E+03  0.34816700576E+03  0.00000000000E+00 0.  1.
         14    1    6    6    0    0  0.21070444498E+02 -0.21186629054E+02  0.32153191173E+03  0.32291733794E+03  0.00000000000E+00 0. -1.
         -5    1    3    3    0  503 -0.37335169626E+02  0.70642315053E+02  0.63743545793E+02  0.10232097144E+03  0.47000000000E+01 0.  1.
         13    1    4    4    0    0 -0.43240078106E+02 -0.52156152959E+02  0.24911140527E+02  0.72184025715E+02  0.00000000000E+00 0. -1.
        -14    1    4    4    0    0 -0.29613415302E+01  0.12043162883E+02 -0.26487291215E+02  0.29246947051E+02  0.00000000000E+00 0.  1.
</event>
<event>
12    1  0.8113184E-002  0.2984561E+03  0.7818608E-02  0.1086067E+00
         21   -1    0    0  503  502  0.00000000000E+00  0.00000000000E+00  0.17278510826E+03  0.17278510826E+03  0.00000000000E+00 0.  1.
         21   -1    0    0  501  503 -0.00000000000E+00 -0.00000000000E+00 -0.17190269454E+04  0.17190269454E+04  0.00000000000E+00 0. -1.
          6    2    1    2  501    0 -0.12922653899E+03  0.20704163064E+03 -0.15646558520E+04  0.15927884075E+04  0.17105917273E+03 0.  0.
         24    2    3    3    0    0 -0.11496689313E+02  0.10442088352E+03 -0.51006298497E+03  0.52668356252E+03  0.78711064075E+02 0.  0.
         -6    2    1    2    0  502  0.12922653899E+03 -0.20704163064E+03  0.18414014866E+02  0.29902364619E+03  0.17178570906E+03 0.  0.
        -24    2    5    5    0    0  0.72187345831E+02 -0.43754443580E+02 -0.29759619446E+02  0.11941583996E+03  0.79050892804E+02 0.  0.
          5    1    3    3  501    0 -0.11772984968E+03  0.10262074713E+03 -0.10545928670E+04  0.10661048450E+04  0.47000000000E+01 0. -1.
        -13    1    4    4    0    0  0.19001727577E+02 -0.28904364741E+01 -0.92398157398E+02  0.94376055037E+02  0.00000000000E+00 0.  1.
         14    1    4    4    0    0 -0.30498416890E+02  0.10731131999E+03 -0.41766482757E+03  0.43230750748E+03  0.00000000000E+00 0. -1.
         -5    1    5    5    0  502  0.57039193162E+02 -0.16328718707E+03  0.48173634311E+02  0.17960780623E+03  0.47000000000E+01 0.  1.
         13    1    6    6    0    0  0.51186176297E+01 -0.78880351217E+01  0.24331945061E+02  0.26085722052E+02  0.00000000000E+00 0. -1.
        -14    1    6    6    0    0  0.67068728202E+02 -0.35866408458E+02 -0.54091564507E+02  0.93330117910E+02  0.00000000000E+00 0.  1.
</event>
<event>
12    1  0.8113184E-002  0.1756968E+03  0.7818608E-02  0.1172258E+00
         21   -1    0    0  501  502  0.00000000000E+00  0.00000000000E+00  0.72943065101E+03  0.72943065101E+03  0.00000000000E+00 0.  1.
         21   -1    0    0  502  503 -0.00000000000E+00 -0.00000000000E+00 -0.22712631637E+03  0.22712631637E+03  0.00000000000E+00 0.  1.
         -6    2    1    2    0  503 -0.35024453677E+02  0.94508156403E+01 -0.18040556012E+03  0.25182442743E+03  0.17191086602E+03 0.  0.
        -24    2    3    3    0    0  0.21655060374E+02 -0.45220745646E+02 -0.12239774831E+03  0.15390332062E+03  0.78683961717E+02 0.  0.
          6    2    1    2  501    0  0.35024453677E+02 -0.94508156403E+01  0.68270989476E+03  0.70473253995E+03  0.17099450925E+03 0.  0.
         24    2    5    5    0    0  0.69640031016E+02 -0.52029613013E+02  0.40048113828E+03  0.41718019139E+03  0.78085564733E+02 0.  0.
          5    1    5    5  501    0 -0.34615577339E+02  0.42578797373E+02  0.28222875648E+03  0.28755234856E+03  0.47000000000E+01 0. -1.
        -13    1    6    6    0    0  0.53861524391E+02 -0.72511566972E+02  0.32868062256E+03  0.34086645890E+03  0.00000000000E+00 0.  1.
         14    1    6    6    0    0  0.15778506626E+02  0.20481953959E+02  0.71800515715E+02  0.76313732488E+02  0.00000000000E+00 0. -1.
         -5    1    3    3    0  503 -0.56679514051E+02  0.54671561286E+02 -0.58007811817E+02  0.97921106807E+02  0.47000000000E+01 0.  1.
         13    1    4    4    0    0 -0.63471441299E+01 -0.22175046405E+02  0.30978598134E+01  0.23272637519E+02  0.00000000000E+00 0. -1.
        -14    1    4    4    0    0  0.28002204504E+02 -0.23045699241E+02 -0.12549560812E+03  0.13063068310E+03  0.00000000000E+00 0.  1.
</event>
<event>
12    1  0.8113184E-002  0.2055623E+03  0.7818608E-02  0.1145678E+00
         21   -1    0    0  503  502  0.00000000000E+00  0.00000000000E+00  0.23790169185E+03  0.23790169185E+03  0.00000000000E+00 0.  1.
         21   -1    0    0  501  503 -0.00000000000E+00 -0.00000000000E+00 -0.77564824654E+03  0.77564824654E+03  0.00000000000E+00 0.  1.
          6    2    1    2  501    0 -0.43552738054E+02  0.10123327457E+03 -0.71431336463E+03  0.74256707849E+03  0.17034455172E+03 0.  0.
         24    2    3    3    0    0  0.13402644356E+01  0.84403888248E+02 -0.65759598710E+03  0.66815228944E+03  0.82880558443E+02 0.  0.
         -6    2    1    2    0  502  0.43552738054E+02 -0.10123327457E+03  0.17656680994E+03  0.27098285990E+03  0.17352479682E+03 0.  0.
        -24    2    5    5    0    0 -0.12261716089E+02 -0.21967880304E+02  0.18576764107E+02  0.85561176692E+02  0.79640952692E+02 0.  0.
          5    1    3    3  501    0 -0.44893002489E+02  0.16829386326E+02 -0.56717377529E+02  0.74414789057E+02  0.47000000000E+01 0. -1.
        -11    1    4    4    0    0  0.30444868370E+02  0.46345908719E+02 -0.18493871091E+03  0.19307293973E+03  0.00000000000E+00 0.  1.
         12    1    4    4    0    0 -0.29104603934E+02  0.38057979529E+02 -0.47265727619E+03  0.47507934970E+03  0.00000000000E+00 0. -1.
         -5    1    5    5    0  502  0.55814454143E+02 -0.79265394270E+02  0.15799004584E+03  0.18542168321E+03  0.47000000000E+01 0.  1.
         11    1    6    6    0    0  0.22237579393E+02  0.17683499250E+02  0.16726930538E+02  0.32969778407E+02  0.00000000000E+00 0. -1.
        -12    1    6    6    0    0 -0.34499295483E+02 -0.39651379554E+02  0.18498335689E+01  0.52591398285E+02  0.00000000000E+00 0.  1.
</event>
<event>
12    1  0.8113184E-002  0.2395372E+03  0.7818608E-02  0.1120328E+00
         21   -1    0    0  501  502  0.00000000000E+00  0.00000000000E+00  0.28458471361E+03  0.28458471361E+03  0.00000000000E+00 0.  1.
         21   -1    0    0  502  503 -0.00000000000E+00 -0.00000000000E+00 -0.27627260797E+03  0.27627260797E+03  0.00000000000E+00 0. -1.
         -6    2    1    2    0  503  0.89386039881E+02  0.14001664437E+03 -0.14271481887E+03  0.27882892425E+03  0.17257903884E+03 0.  0.
        -24    2    3    3    0    0  0.28298902426E+02  0.15556474977E+03 -0.10632341662E+03  0.20589192335E+03  0.78010229636E+02 0.  0.
          6    2    1    2  501    0 -0.89386039881E+02 -0.14001664437E+03  0.15102692451E+03  0.28202839733E+03  0.17069376130E+03 0.  0.
         24    2    5    5    0    0 -0.27317369052E+02 -0.14636603436E+03  0.13748837110E+03  0.21801107873E+03  0.80352495896E+02 0.  0.
          5    1    5    5  501    0 -0.62068670829E+02  0.63493899861E+01  0.13538553408E+02  0.64017318595E+02  0.47000000000E+01 0. -1.
        -13    1    6    6    0    0 -0.38681938380E+02 -0.57608664684E+02  0.98299401920E+02  0.12032382566E+03  0.00000000000E+00 0.  1.
         14    1    6    6    0    0  0.11364569328E+02 -0.88757369676E+02  0.39188969182E+02  0.97687253075E+02  0.00000000000E+00 0. -1.
         -5    1    3    3    0  503  0.61087137456E+02 -0.15548105393E+02 -0.36391402243E+02  0.72937000905E+02  0.47000000000E+01 0.  1.
         13    1    4    4    0    0  0.66542806243E+01  0.20831254506E+02 -0.56560071966E+02  0.60640434989E+02  0.00000000000E+00 0. -1.
        -14    1    4    4    0    0  0.21644621801E+02  0.13473349526E+03 -0.49763344659E+02  0.14525148836E+03  0.00000000000E+00 0.  1.
</event>
<event>
12    1  0.8113184E-002  0.1902156E+03  0.7818608E-02  0.1158393E+00
         21   -1    0    0  503  502  0.00000000000E+00  0.00000000000E+00  0.76005001634E+03  0.76005001634E+03  0.00000000000E+00 0.  1.
         21   -1    0    0  501  503 -0.00000000000E+00 -0.00000000000E+00 -0.13964097272E+03  0.13964097272E+03  0.00000000000E+00 0.  1.
          6    2    1    2  501    0  0.87522970995E+01  0.79237689341E+02 -0.55433267357E+02  0.19759070687E+03  0.17208726331E+03 0.  0.
         24    2    3    3    0    0  0.32685889619E+02  0.67056227637E+02  0.25565918131E+02  0.11212631130E+03  0.79710654685E+02 0.  0.
         -6    2    1    2    0  502 -0.87522970995E+01 -0.79237689341E+02  0.67584231098E+03  0.70210028220E+03  0.17270426409E+03 0.  0.
        -24    2    5    5    0    0  0.50688291542E+02 -0.60242489756E+02  0.28411350042E+03  0.30540448917E+03  0.79705460365E+02 0.  0.
          5    1    3    3  501    0 -0.23933592519E+02  0.12181461704E+02 -0.80999185488E+02  0.85464395568E+02  0.47000000000E+01 0. -1.
        -11    1    4    4    0    0  0.40923323052E+02  0.22825829540E+02 -0.17332537953E+02  0.49961522552E+02  0.00000000000E+00 0.  1.
         12    1    4    4    0    0 -0.82374334333E+01  0.44230398097E+02  0.42898456084E+02  0.62164788746E+02  0.00000000000E+00 0. -1.
         -5    1    5    5    0  502 -0.59440588642E+02 -0.18995199585E+02  0.39172881056E+03  0.39669579303E+03  0.47000000000E+01 0.  1.
         13    1    6    6    0    0  0.19418202660E+02 -0.21858068615E+02  0.17165581595E+02  0.33904261526E+02  0.00000000000E+00 0. -1.
        -14    1    6    6    0    0  0.31270088882E+02 -0.38384421141E+02  0.26694791883E+03  0.27150022764E+03  0.00000000000E+00 0.  1.
</event>
<event>
12    1  0.8113184E-002  0.1779561E+03  0.7818608E-02  0.1170092E+00
         21   -1    0    0  503  502  0.00000000000E+00  0.00000000000E+00  0.68795129372E+02  0.68795129372E+02  0.00000000000E+00 0.  1.
         21   -1    0    0  501  503 -0.00000000000E+00 -0.00000000000E+00 -0.46201011597E+03  0.46201011597E+03  0.00000000000E+00 0.  1.
          6    2    1    2  501    0 -0.51501588473E+01  0.37272858873E+02 -0.22295367291E+03  0.28451826289E+03  0.17270353646E+03 0.  0.
         24    2    3    3    0    0 -0.68049435793E+02  0.76227762558E+01 -0.15708572233E+03  0.18862184297E+03  0.78825395997E+02 0.  0.
         -6    2    1    2    0  502  0.51501588473E+01 -0.37272858873E+02 -0.17026131368E+03  0.24628698245E+03  0.17393266699E+03 0.  0.
        -24    2    5    5    0    0  0.28292636028E+02  0.42064823127E+01 -0.17849753519E+03  0.19785109348E+03  0.80408440953E+02 0.  0.
          5    1    3    3  501    0  0.62899276945E+02  0.29650082618E+02 -0.65867950581E+02  0.95896419919E+02  0.47000000000E+01 0. -1.
        -13    1    4    4    0    0  0.34837876121E+01  0.28592765662E+02 -0.56572581928E+02  0.63483384049E+02  0.00000000000E+00 0.  1.
         14    1    4    4    0    0 -0.71533223405E+02 -0.20969989407E+02 -0.10051314040E+03  0.12513845892E+03  0.00000000000E+00 0. -1.
         -5    1    5    5    0  502 -0.23142477180E+02 -0.41479341186E+02  0.82362215123E+01  0.48435888968E+02  0.47000000000E+01 0.  1.
         11    1    6    6    0    0 -0.24640404436E+02  0.15269135680E+02 -0.42003485854E+02  0.51035172764E+02  0.00000000000E+00 0. -1.
        -12    1    6    6    0    0  0.52933040463E+02 -0.11062653368E+02 -0.13649404934E+03  0.14681592072E+03  0.00000000000E+00 0.  1.
</event>
<event>
12    1  0.8113184E-002  0.2241653E+03  0.7818608E-02  0.1130891E+00
         21   -1    0    0  501  502  0.00000000000E+00  0.00000000000E+00  0.29224538812E+03  0.29224538812E+03  0.00000000000E+00 0. -1.
         21   -1    0    0  502  503 -0.00000000000E+00 -0.00000000000E+00 -0.18610746690E+03  0.18610746690E+03  0.00000000000E+00 0. -1.
         -6    2    1    2    0  503 -0.62000426905E+02 -0.12953282475E+03 -0.13604577416E+02  0.22457776989E+03  0.17212578127E+03 0.  0.
        -24    2    3    3    0    0 -0.24055704932E+02 -0.15100265721E+03  0.12146706727E+02  0.17372529437E+03  0.81562589425E+02 0.  0.
          6    2    1    2  501    0  0.62000426905E+02  0.12953282475E+03  0.11974249863E+03  0.25377508513E+03  0.17158298934E+03 0.  0.
         24    2    5    5    0    0  0.33556296649E+02  0.14576761321E+03  0.49979028127E+02  0.17656324200E+03  0.79387990692E+02 0.  0.
          5    1    5    5  501    0  0.28444130256E+02 -0.16234788464E+02  0.69763470505E+02  0.77211843129E+02  0.47000000000E+01 0. -1.
        -13    1    6    6    0    0  0.13895420307E+02  0.72063746247E+02 -0.16677441494E+02  0.75262230125E+02  0.00000000000E+00 0.  1.
         14    1    6    6    0    0  0.19660876341E+02  0.73703866966E+02  0.66656469621E+02  0.10130101187E+03  0.00000000000E+00 0. -1.
         -5    1    3    3    0  503 -0.37944721973E+02  0.21469832466E+02 -0.25751284142E+02  0.50852475522E+02  0.47000000000E+01 0.  1.
         11    1    4    4    0    0  0.38492393784E+01 -0.10661980520E+03 -0.24867662037E+02  0.10954907630E+03  0.00000000000E+00 0. -1.
        -12    1    4    4    0    0 -0.27904944310E+02 -0.44382852019E+02  0.37014368764E+02  0.64176218066E+02  0.00000000000E+00 0.  1.
</event>
<event>
12    1  0.8113184E-002  0.3232001E+03  0.7818608E-02  0.1075420E+00
         21   -1    0    0  501  502  0.00000000000E+00  0.00000000000E+00  0.42144240227E+03  0.42144240227E+03  0.00000000000E+00 0. -1.
         21   -1    0    0  502  503 -0.00000000000E+00 -0.00000000000E+00 -0.26686603748E+03  0.26686603748E+03  0.00000000000E+00 0.  1.
         -6    2    1    2    0  503  0.22124040563E+03 -0.13892106171E+03 -0.31253697311E+02  0.32470772354E+03  0.19029433429E+03 0.  0.
        -24    2    3    3    0    0  0.12107207618E+03  0.65415088556E+01 -0.32025238029E+02  0.14802795975E+03  0.78647454039E+02 0.  0.
          6    2    1    2  501    0 -0.22124040563E+03  0.13892106171E+03  0.18583006210E+03  0.36360071620E+03  0.17154092916E+03 0.  0.
         24    2    5    5    0    0 -0.20701407206E+03  0.10431758523E+03  0.90975621092E+02  0.26152601743E+03  0.79889358132E+02 0.  0.
          5    1    5    5  501    0 -0.14226333572E+02  0.34603476479E+02  0.94854441003E+02  0.10207469877E+03  0.47000000000E+01 0. -1.
        -11    1    6    6    0    0 -0.14441869698E+03  0.93965974423E+02  0.32688457569E+02  0.17537074912E+03  0.00000000000E+00 0.  1.
         12    1    6    6    0    0 -0.62595375076E+02  0.10351610809E+02  0.58287163524E+02  0.86155268318E+02  0.00000000000E+00 0. -1.
         -5    1    3    3    0  503  0.10016832945E+03 -0.14546257057E+03  0.77154071749E+00  0.17667976380E+03  0.47000000000E+01 0.  1.
         11    1    4    4    0    0  0.10440710923E+03 -0.18768312543E+02 -0.44785971057E+02  0.11514719805E+03  0.00000000000E+00 0. -1.
        -12    1    4    4    0    0  0.16664966950E+02  0.25309821399E+02  0.12760733028E+02  0.32880761702E+02  0.00000000000E+00 0.  1.
</event>
<event>
12    1  0.8113184E-002  0.1979020E+03  0.7818608E-02  0.1152637E+00
         21   -1    0    0  501  502  0.00000000000E+00  0.00000000000E+00  0.11677848627E+03  0.11677848627E+03  0.00000000000E+00 0.  1.
         21   -1    0    0  502  503 -0.00000000000E+00 -0.00000000000E+00 -0.35572240337E+03  0.35572240337E+03  0.00000000000E+00 0. -1.
         -6    2    1    2    0  503  0.20076644740E+02 -0.89050425605E+02 -0.18548292325E+03  0.26750509069E+03  0.16977045904E+03 0.  0.
        -24    2    3    3    0    0  0.23279972118E+02  0.25535826487E+00 -0.14901076150E+03  0.17087128231E+03  0.80316659329E+02 0.  0.
          6    2    1    2  501    0 -0.20076644740E+02  0.89050425605E+02 -0.53460993848E+02  0.20499579895E+03  0.17559085899E+03 0.  0.
         24    2    5    5    0    0 -0.55750745575E+01  0.11074763516E+03  0.61234857631E+01  0.13977720765E+03  0.84876678494E+02 0.  0.
          5    1    5    5  501    0 -0.14501570183E+02 -0.21697209555E+02 -0.59584479612E+02  0.65218591297E+02  0.47000000000E+01 0. -1.
        -11    1    6    6    0    0 -0.34541592413E+02  0.10366747176E+03  0.99073887738E+01  0.10971883457E+03  0.00000000000E+00 0.  1.
         12    1    6    6    0    0  0.28966517855E+02  0.70801634002E+01 -0.37839030107E+01  0.30058373084E+02  0.00000000000E+00 0. -1.
         -5    1    3    3    0  503 -0.32033273773E+01 -0.89305783870E+02 -0.36472161747E+02  0.96633808376E+02  0.47000000000E+01 0.  1.
         11    1    4    4    0    0 -0.29571375741E+02 -0.48755520275E+01 -0.44612134300E+02  0.53744579239E+02  0.00000000000E+00 0. -1.
        -12    1    4    4    0    0  0.52851347859E+02  0.51309102924E+01 -0.10439862720E+03  0.11712670307E+03  0.00000000000E+00 0.  1.
</event>
<event>
12    1  0.8113184E-002  0.2375954E+03  0.7818608E-02  0.1121583E+00
         21   -1    0    0  501  502  0.00000000000E+00  0.00000000000E+00  0.15732339178E+03  0.15732339178E+03  0.00000000000E+00 0. -1.
         21   -1    0    0  502  503 -0.00000000000E+00 -0.00000000000E+00 -0.40260117578E+03  0.40260117578E+03  0.00000000000E+00 0. -1.
         -6    2    1    2    0  503 -0.10028887072E+03  0.13084625906E+03 -0.21637167647E+03  0.32057722995E+03  0.16963035366E+03 0.  0.
        -24    2    3    3    0    0 -0.88627542279E+02  0.12388673017E+03 -0.77281864122E+02  0.18074702033E+03  0.59112060317E+02 0.  0.
          6    2    1    2  501    0  0.10028887072E+03 -0.13084625906E+03 -0.28906107523E+02  0.23934733760E+03  0.17109349451E+03 0.  0.
         24    2    5    5    0    0  0.93337533039E+02 -0.13303054133E+03  0.24430901765E+02  0.18531013982E+03  0.85638536650E+02 0.  0.
          5    1    5    5  501    0  0.69513376842E+01  0.21842822639E+01 -0.53337009288E+02  0.54037197784E+02  0.47000000000E+01 0. -1.
        -11    1    6    6    0    0  0.17886943602E+01 -0.44000021247E+02 -0.22257510454E+02  0.49341646394E+02  0.00000000000E+00 0.  1.
         12    1    6    6    0    0  0.91548838679E+02 -0.89030520080E+02  0.46688412219E+02  0.13596849343E+03  0.00000000000E+00 0. -1.
         -5    1    3    3    0  503 -0.11661328444E+02  0.69595288968E+01 -0.13908981235E+03  0.13983020962E+03  0.47000000000E+01 0.  1.
         11    1    4    4    0    0 -0.71459273969E+02  0.82263575571E+02 -0.80695295685E+02  0.13559297344E+03  0.00000000000E+00 0. -1.
        -12    1    4    4    0    0 -0.17168268310E+02  0.41623154596E+02  0.34134315631E+01  0.45154046887E+02  0.00000000000E+00 0.  1.
</event>
<event>
12    1  0.8113184E-002  0.2083358E+03  0.7818608E-02  0.1143372E+00
         21   -1    0    0  503  502  0.00000000000E+00  0.00000000000E+00  0.43203247508E+03  0.43203247508E+03  0.00000000000E+00 0.  1.
         21   -1    0    0  501  503 -0.00000000000E+00 -0.00000000000E+00 -0.20756779633E+03  0.20756779633E+03  0.00000000000E+00 0.  1.
          6    2    1    2  501    0  0.45412098951E+02  0.10440046671E+03 -0.11840724526E+03  0.23963323344E+03  0.17447663070E+03 0.  0.
         24    2    3    3    0    0  0.78153993606E+02  0.10869958991E+03 -0.13143932453E+03  0.20382207295E+03  0.79646053415E+02 0.  0.
         -6    2    1    2    0  502 -0.45412098951E+02 -0.10440046671E+03  0.34287192401E+03  0.39996703797E+03  0.17161223444E+03 0.  0.
        -24    2    5    5    0    0 -0.60796704707E+02 -0.12619175161E+03  0.33084128534E+03  0.37032968892E+03  0.89819401776E+02 0.  0.
          5    1    3    3  501    0 -0.32741894654E+02 -0.42991231974E+01  0.13032079277E+02  0.35811160497E+02  0.47000000000E+01 0. -1.
        -13    1    4    4    0    0 -0.14248849031E+02  0.29566888523E+02 -0.39354616301E+02  0.51244672112E+02  0.00000000000E+00 0.  1.
         14    1    4    4    0    0  0.92402842637E+02  0.79132701383E+02 -0.92084708233E+02  0.15257740084E+03  0.00000000000E+00 0. -1.
         -5    1    5    5    0  502  0.15384605756E+02  0.21791284901E+02  0.12030638673E+02  0.29637349051E+02  0.47000000000E+01 0.  1.
         11    1    6    6    0    0 -0.20943759488E+02 -0.50731248335E+02  0.41900921766E+02  0.69050618129E+02  0.00000000000E+00 0. -1.
        -12    1    6    6    0    0 -0.39852945219E+02 -0.75460503275E+02  0.28894036357E+03  0.30127907079E+03  0.00000000000E+00 0.  1.
</event>
<event>
12    1  0.8113184E-002  0.2294948E+03  0.7818608E-02  0.1127116E+00
         21   -1    0    0  501  502  0.00000000000E+00  0.00000000000E+00  0.22607877752E+03  0.22607877752E+03  0.00000000000E+00 0.  1.
         21   -1    0    0  502  503 -0.00000000000E+00 -0.00000000000E+00 -0.48629386904E+03  0.48629386904E+03  0.00000000000E+00 0.  1.
         -6    2    1    2    0  503 -0.72972934694E+02 -0.13215980189E+03 -0.38763231418E+03  0.45047384249E+03  0.17284851557E+03 0.  0.
        -24    2    3    3    0    0 -0.75551403191E+02 -0.24934202214E+02 -0.18551046506E+03  0.22160857728E+03  0.91468573366E+02 0.  0.
          6    2    1    2  501    0  0.72972934694E+02  0.13215980189E+03  0.12741722266E+03  0.26189880408E+03  0.17194351548E+03 0.  0.
         24    2    5    5    0    0  0.89338394762E+02  0.13715429674E+03  0.14857794150E+03  0.23428287962E+03  0.77591320970E+02 0.  0.
          5    1    5    5  501    0 -0.16365460069E+02 -0.49944948483E+01 -0.21160718839E+02  0.27615924461E+02  0.47000000000E+01 0. -1.
        -13    1    6    6    0    0  0.36913788331E+02  0.69673358370E+02  0.12112817206E+03  0.14453040754E+03  0.00000000000E+00 0.  1.
         14    1    6    6    0    0  0.52424606431E+02  0.67480938370E+02  0.27449769434E+02  0.89752472081E+02  0.00000000000E+00 0. -1.
         -5    1    3    3    0  503  0.25784684971E+01 -0.10722559968E+03 -0.20212184912E+03  0.22886526520E+03  0.47000000000E+01 0.  1.
         13    1    4    4    0    0 -0.32305804422E+02 -0.54602015927E+02 -0.68407901546E+02  0.93298907478E+02  0.00000000000E+00 0. -1.
        -14    1    4    4    0    0 -0.43245598769E+02  0.29667813713E+02 -0.11710256352E+03  0.12830966981E+03  0.00000000000E+00 0.  1.
</event>
<event>
12    1  0.8113184E-002  0.2061530E+03  0.7818608E-02  0.1147431E+00
         21   -1    0    0  503  502  0.00000000000E+00  0.00000000000E+00  0.61795254695E+02  0.61795254695E+02  0.00000000000E+00 0.  1.
         21   -1    0    0  501  503 -0.00000000000E+00 -0.00000000000E+00 -0.70468430485E+03  0.70468430485E+03  0.00000000000E+00 0.  1.
          6    2    1    2  501    0  0.50931481484E+02 -0.88014126234E+02 -0.42384608989E+03  0.46568250991E+03  0.16393349230E+03 0.  0.
         24    2    3    3    0    0 -0.36834416390E+02 -0.18330950439E+02 -0.17604634641E+03  0.19367993513E+03  0.69475198545E+02 0.  0.
         -6    2    1    2    0  502 -0.50931481484E+02  0.88014126234E+02 -0.21904296026E+03  0.30079704963E+03  0.17932803574E+03 0.  0.
        -24    2    5    5    0    0 -0.27265158329E+02  0.12554110882E+03 -0.20272409599E+03  0.25329163305E+03  0.80966866143E+02 0.  0.
          5    1    3    3  501    0  0.87765897875E+02 -0.69683175795E+02 -0.24779974348E+03  0.27200257478E+03  0.47000000000E+01 0. -1.
        -11    1    4    4    0    0  0.16375044864E+02 -0.18315979500E+02 -0.82262132309E+02  0.85852638931E+02  0.00000000000E+00 0.  1.
         12    1    4    4    0    0 -0.53209461254E+02 -0.14970939281E-01 -0.93784214098E+02  0.10782729620E+03  0.00000000000E+00 0. -1.
         -5    1    5    5    0  502 -0.23666323155E+02 -0.37526982588E+02 -0.16318864273E+02  0.47505416586E+02  0.47000000000E+01 0.  1.
         13    1    6    6    0    0  0.23784113854E+01  0.98545343642E+02 -0.18464572536E+03  0.20931050019E+03  0.00000000000E+00 0. -1.
        -14    1    6    6    0    0 -0.29643569714E+02  0.26995765180E+02 -0.18078370631E+02  0.43981132861E+02  0.00000000000E+00 0.  1.
</event>
<event>
12    1  0.8113184E-002  0.1711209E+03  0.7818608E-02  0.1176775E+00
         21   -1    0    0  503  502  0.00000000000E+00  0.00000000000E+00  0.25102919329E+03  0.25102919329E+03  0.00000000000E+00 0. -1.
         21   -1    0    0  501  503 -0.00000000000E+00 -0.00000000000E+00 -0.13843840632E+03  0.13843840632E+03  0.00000000000E+00 0. -1.
          6    2    1    2  501    0  0.15680415368E+01  0.11566358691E+02 -0.21335197562E+02  0.17244583486E+03  0.17072239425E+03 0.  0.
         24    2    3    3    0    0  0.17948852846E+01  0.62712280663E+02  0.21526266041E+02  0.10554925905E+03  0.82104897528E+02 0.  0.
         -6    2    1    2    0  502 -0.15680415368E+01 -0.11566358691E+02  0.13392598453E+03  0.21702176475E+03  0.17037029564E+03 0.  0.
        -24    2    5    5    0    0  0.41154065771E+02 -0.11554532315E+02  0.14635281397E+03  0.17228146208E+03  0.80215906611E+02 0.  0.
          5    1    3    3  501    0 -0.22684374781E+00 -0.51145921972E+02 -0.42861463604E+02  0.66896575807E+02  0.47000000000E+01 0. -1.
        -11    1    4    4    0    0  0.37578788689E+02  0.34328521419E+02 -0.74773964953E+01  0.51444379679E+02  0.00000000000E+00 0.  1.
         12    1    4    4    0    0 -0.35783903405E+02  0.28383759244E+02  0.29003662537E+02  0.54104879376E+02  0.00000000000E+00 0. -1.
         -5    1    5    5    0  502 -0.42722107308E+02 -0.11826376833E-01 -0.12426829446E+02  0.44740302667E+02  0.47000000000E+01 0.  1.
         13    1    6    6    0    0 -0.42966428153E+01  0.29351743395E+02  0.51274769371E+02  0.59237555265E+02  0.00000000000E+00 0. -1.
        -14    1    6    6    0    0  0.45450708586E+02 -0.40906275709E+02  0.95078044602E+02  0.11304390682E+03  0.00000000000E+00 0.  1.
</event>
<event>
12    1  0.8113184E-002  0.2386250E+03  0.7818608E-02  0.1121273E+00
         21   -1    0    0  503  502  0.00000000000E+00  0.00000000000E+00  0.24762455314E+04  0.24762455314E+04  0.00000000000E+00 0. -1.
         21   -1    0    0  501  503 -0.00000000000E+00 -0.00000000000E+00 -0.13457556557E+03  0.13457556557E+03  0.00000000000E+00 0.  1.
          6    2    1    2  501    0 -0.13555173105E+03  0.10001042871E+03 -0.18135046863E+02  0.23931314521E+03  0.16901344297E+03 0.  0.
         24    2    3    3    0    0 -0.86696622100E+02  0.10086367363E+03  0.42261722589E+02  0.16148378405E+03  0.81247611502E+02 0.  0.
         -6    2    1    2    0  502  0.13555173105E+03 -0.10001042871E+03  0.23598050127E+04  0.23715079518E+04  0.16429823399E+03 0.  0.
        -24    2    5    5    0    0  0.48704297995E+02 -0.17526549869E+02  0.67954955799E+03  0.68698233606E+03  0.86474503172E+02 0.  0.
          5    1    3    3  501    0 -0.48855108947E+02 -0.85324492035E+00 -0.60396769452E+02  0.77829361152E+02  0.47000000000E+01 0. -1.
        -13    1    4    4    0    0 -0.33254356175E+02  0.79953455330E+02 -0.55758811160E+01  0.86772678154E+02  0.00000000000E+00 0.  1.
         14    1    4    4    0    0 -0.53442265925E+02  0.20910218298E+02  0.47837603705E+02  0.74711105899E+02  0.00000000000E+00 0. -1.
         -5    1    5    5    0  502  0.86847433051E+02 -0.82483878838E+02  0.16802554547E+04  0.16845256157E+04  0.47000000000E+01 0.  1.
         11    1    6    6    0    0  0.61314633187E+02 -0.39723228748E+02  0.55940976649E+03  0.56416017760E+03  0.00000000000E+00 0. -1.
        -12    1    6    6    0    0 -0.12610335192E+02  0.22196678879E+02  0.12013979150E+03  0.12282215846E+03  0.00000000000E+00 0.  1.
</event>
<event>
12    1  0.8113184E-002  0.2039490E+03  0.7818608E-02  0.1150545E+00
         21   -1    0    0  503  502  0.00000000000E+00  0.00000000000E+00  0.85267574395E+02  0.85267574395E+02  0.00000000000E+00 0.  1.
         21   -1    0    0  501  503 -0.00000000000E+00 -0.00000000000E+00 -0.50854726475E+03  0.50854726475E+03  0.00000000000E+00 0.  1.
          6    2    1    2  501    0  0.64843401616E+02 -0.14960800152E+02 -0.96704058924E+02  0.20878650222E+03  0.17266046514E+03 0.  0.
         24    2    3    3    0    0  0.75337630660E+02 -0.33185526693E+02 -0.55373234342E+01  0.11510761900E+03  0.80262470848E+02 0.  0.
         -6    2    1    2    0  502 -0.64843401616E+02  0.14960800152E+02 -0.32657563143E+03  0.38502833693E+03  0.19278663054E+03 0.  0.
        -24    2    5    5    0    0  0.43635002662E+02  0.19258134793E+02 -0.17226665805E+03  0.19629736293E+03  0.81129304224E+02 0.  0.
          5    1    3    3  501    0 -0.10494229045E+02  0.18224726541E+02 -0.91166735490E+02  0.93678883216E+02  0.47000000000E+01 0. -1.
        -11    1    4    4    0    0  0.90915768865E+02 -0.22986327568E+02  0.46333990058E+01  0.93890982899E+02  0.00000000000E+00 0.  1.
         12    1    4    4    0    0 -0.15578138204E+02 -0.10199199125E+02 -0.10170722440E+02  0.21216636106E+02  0.00000000000E+00 0. -1.
         -5    1    5    5    0  502 -0.10847840428E+03 -0.42973346404E+01 -0.15430897338E+03  0.18873097400E+03  0.47000000000E+01 0.  1.
         11    1    6    6    0    0  0.35490244096E+02 -0.24621738590E+02 -0.49641350824E+02  0.65803124157E+02  0.00000000000E+00 0. -1.
        -12    1    6    6    0    0  0.81447585661E+01  0.43879873383E+02 -0.12262530723E+03  0.13049423877E+03  0.00000000000E+00 0.  1.
</event>
<event>
12    1  0.8113184E-002  0.1792331E+03  0.7818608E-02  0.1169064E+00
         21   -1    0    0  501  502  0.00000000000E+00  0.00000000000E+00  0.27470596653E+02  0.27470596653E+02  0.00000000000E+00 0.  1.
         21   -1    0    0  502  503 -0.00000000000E+00 -0.00000000000E+00 -0.13634619397E+04  0.13634619397E+04  0.00000000000E+00 0.  1.
         -6    2    1    2    0  503 -0.27138479893E+02 -0.40677370956E+02 -0.39986235409E+03  0.43819448381E+03  0.17243363308E+03 0.  0.
        -24    2    3    3    0    0 -0.48322858255E+00 -0.53919247051E+02 -0.10764968810E+03  0.14443236598E+03  0.79779284787E+02 0.  0.
          6    2    1    2  501    0  0.27138479893E+02  0.40677370956E+02 -0.93612898895E+03  0.95273805254E+03  0.17023855971E+03 0.  0.
         24    2    5    5    0    0  0.10426187219E+02  0.46960710804E+02 -0.25458419379E+03  0.27094323085E+03  0.79266063819E+02 0.  0.
          5    1    5    5  501    0  0.16712292674E+02 -0.62833398474E+01 -0.68154479515E+03  0.68179482169E+03  0.47000000000E+01 0. -1.
        -11    1    6    6    0    0  0.19873264476E+02  0.61620914631E+02 -0.23879640844E+03  0.24741828640E+03  0.00000000000E+00 0.  1.
         12    1    6    6    0    0 -0.94470772572E+01 -0.14660203827E+02 -0.15787785357E+02  0.23524944451E+02  0.00000000000E+00 0. -1.
         -5    1    3    3    0  503 -0.26655251311E+02  0.13241876095E+02 -0.29221266599E+03  0.29376211783E+03  0.47000000000E+01 0.  1.
         13    1    4    4    0    0  0.38096465701E+02 -0.39813870235E+02 -0.65083012448E+02  0.85277684486E+02  0.00000000000E+00 0. -1.
        -14    1    4    4    0    0 -0.38579694284E+02 -0.14105376816E+02 -0.42566675652E+02  0.59154681490E+02  0.00000000000E+00 0.  1.
</event>
<event>
12    1  0.8113184E-002  0.3550247E+03  0.7818608E-02  0.1060590E+00
         21   -1    0    0  501  502  0.00000000000E+00  0.00000000000E+00  0.85846726995E+03  0.85846726995E+03  0.00000000000E+00 0.  1.
         21   -1    0    0  502  503 -0.00000000000E+00 -0.00000000000E+00 -0.15002012957E+03  0.15002012957E+03  0.00000000000E+00 0.  1.
         -6    2    1    2    0  503  0.22025851407E+03  0.21877186333E+03  0.42880563432E+03  0.55670173990E+03  0.17224289240E+03 0.  0.
        -24    2    3    3    0    0  0.16735275718E+03  0.99859938435E+02  0.18776425682E+03  0.28272710484E+03  0.81855036680E+02 0.  0.
          6    2    1    2  501    0 -0.22025851407E+03 -0.21877186333E+03  0.27964150605E+03  0.45178565962E+03  0.17186031864E+03 0.  0.
         24    2    5    5    0    0 -0.95658767305E+02 -0.31643320988E+02  0.10220742383E+03  0.16534695450E+03  0.82105775385E+02 0.  0.
          5    1    5    5  501    0 -0.12459974676E+03 -0.18712854234E+03  0.17743408223E+03  0.28643870512E+03  0.47000000000E+01 0. -1.
        -13    1    6    6    0    0 -0.41859465560E+02 -0.46999772576E+02  0.20253085536E+02  0.66116419692E+02  0.00000000000E+00 0.  1.
         14    1    6    6    0    0 -0.53799301745E+02  0.15356451588E+02  0.81954338292E+02  0.99230534809E+02  0.00000000000E+00 0. -1.
         -5    1    3    3    0  503  0.52905756889E+02  0.11891192490E+03  0.24104137750E+03  0.27397463507E+03  0.47000000000E+01 0.  1.
         13    1    4    4    0    0  0.15272845668E+02 -0.51525777791E+01 -0.37839405831E+01  0.16556783471E+02  0.00000000000E+00 0. -1.
        -14    1    4    4    0    0  0.15207991151E+03  0.10501251621E+03  0.19154819741E+03  0.26617032137E+03  0.00000000000E+00 0.  1.
</event>
<event>
12    1  0.8113184E-002  0.1858989E+03  0.7818608E-02  0.1162826E+00
         21   -1    0    0  503  502  0.00000000000E+00  0.00000000000E+00  0.27675285589E+03  0.27675285589E+03  0.00000000000E+00 0.  1.
         21   -1    0    0  501  503 -0.00000000000E+00 -0.00000000000E+00 -0.28324460268E+03  0.28324460268E+03  0.00000000000E+00 0.  1.
          6    2    1    2  501    0  0.60954864536E+02 -0.27712748827E+02 -0.21378169080E+03  0.28330375251E+03  0.17342120085E+03 0.  0.
         24    2    3    3    0    0  0.61109491077E+02 -0.82666407900E+02 -0.14943244474E+03  0.19855209161E+03  0.80776064832E+02 0.  0.
         -6    2    1    2    0  502 -0.60954864536E+02  0.27712748827E+02  0.20728994401E+03  0.27669370606E+03  0.17060713387E+03 0.  0.
        -24    2    5    5    0    0  0.21217456771E+02  0.22625244783E+02  0.51442627725E+02  0.10037397069E+03  0.80414599866E+02 0.  0.
          5    1    3    3  501    0 -0.15462654041E+00  0.54953659073E+02 -0.64349246064E+02  0.84751660892E+02  0.47000000000E+01 0. -1.
        -11    1    4    4    0    0  0.33593070088E+02 -0.55463337970E+02 -0.14594552415E+03  0.15970213598E+03  0.00000000000E+00 0.  1.
         12    1    4    4    0    0  0.27516420989E+02 -0.27203069929E+02 -0.34869205852E+01  0.38849955634E+02  0.00000000000E+00 0. -1.
         -5    1    5    5    0  502 -0.82172321307E+02  0.50875040433E+01  0.15584731629E+03  0.17631973537E+03  0.47000000000E+01 0.  1.
         13    1    6    6    0    0  0.79768700969E+01 -0.21593997553E+01 -0.21056315810E+02  0.22619944724E+02  0.00000000000E+00 0. -1.
        -14    1    6    6    0    0  0.13240586674E+02  0.24784644539E+02  0.72498943535E+02  0.77754025967E+02  0.00000000000E+00 0.  1.
</event>
<event>
12    1  0.8113184E-002  0.3113786E+03  0.7818608E-02  0.1079928E+00
         21   -1    0    0  503  502  0.00000000000E+00  0.00000000000E+00  0.40063099650E+03  0.40063099650E+03  0.00000000000E+00 0.  1.
         21   -1    0    0  501  503 -0.00000000000E+00 -0.00000000000E+00 -0.27992313829E+03  0.27992313829E+03  0.00000000000E+00 0.  1.
          6    2    1    2  501    0  0.23912347541E+03  0.94757845881E+02 -0.67269554709E+02  0.31856209709E+03  0.17549225300E+03 0.  0.
         24    2    3    3    0    0  0.78625846255E+02  0.83066165676E+01 -0.75523059300E+02  0.13601480362E+03  0.80902847546E+02 0.  0.
         -6    2    1    2    0  502 -0.23912347541E+03 -0.94757845881E+02  0.18797741291E+03  0.36199203770E+03  0.17188263947E+03 0.  0.
        -24    2    5    5    0    0 -0.19584039858E+03 -0.65221265204E+02  0.21004799994E+03  0.30493912236E+03  0.79122884912E+02 0.  0.
          5    1    3    3  501    0  0.16049762915E+03  0.86451229313E+02  0.82535045905E+01  0.18254729346E+03  0.47000000000E+01 0. -1.
        -11    1    4    4    0    0  0.82142299004E+02  0.22236487794E+02 -0.33244704727E+02  0.91362076746E+02  0.00000000000E+00 0.  1.
         12    1    4    4    0    0 -0.35164527484E+01 -0.13929871227E+02 -0.42278354572E+02  0.44652726878E+02  0.00000000000E+00 0. -1.
         -5    1    5    5    0  502 -0.43283076827E+02 -0.29536580677E+02 -0.22070587026E+02  0.57052915345E+02  0.47000000000E+01 0.  1.
         13    1    6    6    0    0 -0.90380334259E+02 -0.28488048397E+02  0.15189307785E+03  0.17902983221E+03  0.00000000000E+00 0. -1.
        -14    1    6    6    0    0 -0.10546006432E+03 -0.36733216807E+02  0.58154922092E+02  0.12590929015E+03  0.00000000000E+00 0.  1.
</event>
<event>
12    1  0.8113184E-002  0.1964732E+03  0.7818608E-02  0.1153104E+00
         21   -1    0    0  501  502  0.00000000000E+00  0.00000000000E+00  0.23652398506E+02  0.23652398506E+02  0.00000000000E+00 0. -1.
         21   -1    0    0  502  503 -0.00000000000E+00 -0.00000000000E+00 -0.17617567722E+04  0.17617567722E+04  0.00000000000E+00 0. -1.
         -6    2    1    2    0  503  0.42800890301E+02 -0.81508081679E+02 -0.11202822013E+04  0.11370990851E+04  0.17171672952E+03 0.  0.
        -24    2    3    3    0    0  0.72308174426E+02 -0.13801904565E+02 -0.82145855512E+03  0.82924771227E+03  0.86247584721E+02 0.  0.
          6    2    1    2  501    0 -0.42800890301E+02  0.81508081679E+02 -0.61782217244E+03  0.64831008565E+03  0.17356914129E+03 0.  0.
         24    2    5    5    0    0  0.75430629736E+01  0.10478022934E+03 -0.42841534119E+03  0.45089391556E+03  0.93433528579E+02 0.  0.
          5    1    5    5  501    0 -0.50343953275E+02 -0.23272147665E+02 -0.18940683124E+03  0.19741617008E+03  0.47000000000E+01 0. -1.
        -11    1    6    6    0    0 -0.37375680575E+02  0.19422101776E+02 -0.16767400584E+03  0.17288357866E+03  0.00000000000E+00 0.  1.
         12    1    6    6    0    0  0.44918743548E+02  0.85358127567E+02 -0.26074133535E+03  0.27801033690E+03  0.00000000000E+00 0. -1.
         -5    1    3    3    0  503 -0.29507284125E+02 -0.67706177114E+02 -0.29882364613E+03  0.30785137278E+03  0.47000000000E+01 0.  1.
         13    1    4    4    0    0  0.93526908469E+01 -0.41128588731E+02 -0.40265241243E+03  0.40485552840E+03  0.00000000000E+00 0. -1.
        -14    1    4    4    0    0  0.62955483579E+02  0.27326684166E+02 -0.41880614269E+03  0.42439218387E+03  0.00000000000E+00 0.  1.
</event>
<event>
12    1  0.8113184E-002  0.2469691E+03  0.7818608E-02  0.1115310E+00
         21   -1    0    0  501  502  0.00000000000E+00  0.00000000000E+00  0.29297201011E+03  0.29297201011E+03  0.00000000000E+00 0. -1.
         21   -1    0    0  502  503 -0.00000000000E+00 -0.00000000000E+00 -0.21519163693E+03  0.21519163693E+03  0.00000000000E+00 0.  1.
         -6    2    1    2    0  503 -0.17204003269E+03  0.42184911627E+02 -0.81751213452E+01  0.24710437555E+03  0.17209416082E+03 0.  0.
        -24    2    3    3    0    0 -0.53201619805E+02 -0.35571877983E+02  0.17088726965E+02  0.10278168593E+03  0.78589309195E+02 0.  0.
          6    2    1    2  501    0  0.17204003269E+03 -0.42184911627E+02  0.85955494525E+02  0.26105927148E+03  0.17142420065E+03 0.  0.
         24    2    5    5    0    0  0.25909507411E+02 -0.44792122211E+02  0.87320925462E+01  0.95691584858E+02  0.80018705225E+02 0.  0.
          5    1    5    5  501    0  0.14613052528E+03  0.26072105846E+01  0.77223401979E+02  0.16536768663E+03  0.47000000000E+01 0. -1.
        -13    1    6    6    0    0  0.27177159376E+02 -0.37041770519E+02 -0.30849259666E+02  0.55338662587E+02  0.00000000000E+00 0.  1.
         14    1    6    6    0    0 -0.12676519652E+01 -0.77503516925E+01  0.39581352212E+02  0.40352922271E+02  0.00000000000E+00 0. -1.
         -5    1    3    3    0  503 -0.11883841289E+03  0.77756789609E+02 -0.25263848310E+02  0.14432268962E+03  0.47000000000E+01 0.  1.
         11    1    4    4    0    0 -0.51956109053E+02 -0.31585770718E+02  0.44313682241E+02  0.75238292202E+02  0.00000000000E+00 0. -1.
        -12    1    4    4    0    0 -0.12455107518E+01 -0.39861072648E+01 -0.27224955275E+02  0.27543393725E+02  0.00000000000E+00 0.  1.
</event>
<event>
12    1  0.8113184E-002  0.1789972E+03  0.7818608E-02  0.1171162E+00
         21   -1    0    0  501  502  0.00000000000E+00  0.00000000000E+00  0.23126115760E+02  0.23126115760E+02  0.00000000000E+00 0.  1.
         21   -1    0    0  502  503 -0.00000000000E+00 -0.00000000000E+00 -0.17788643231E+04  0.17788643231E+04  0.00000000000E+00 0.  1.
         -6    2    1    2    0  503 -0.22322654647E+02  0.39100191344E+02 -0.13212247788E+04  0.13320522145E+04  0.16340459020E+03 0.  0.
        -24    2    3    3    0    0  0.36265557018E+01  0.19327516798E+02 -0.23522584864E+03  0.24555321012E+03  0.67664424298E+02 0.  0.
          6    2    1    2  501    0  0.22322654647E+02 -0.39100191344E+02 -0.43451342855E+03  0.46993822440E+03  0.17324228492E+03 0.  0.
         24    2    5    5    0    0  0.50754911755E+02 -0.41773272439E+02 -0.42807203153E+03  0.44028826315E+03  0.79290750559E+02 0.  0.
          5    1    5    5  501    0 -0.28432257108E+02  0.26730810951E+01 -0.64413970199E+01  0.29649961254E+02  0.47000000000E+01 0. -1.
        -13    1    6    6    0    0 -0.73889369751E+01  0.88277042201E+01 -0.10243210816E+02  0.15409351681E+02  0.00000000000E+00 0.  1.
         14    1    6    6    0    0  0.58143848730E+02 -0.50600976659E+02 -0.41782882072E+03  0.42487891146E+03  0.00000000000E+00 0. -1.
         -5    1    3    3    0  503 -0.25949210349E+02  0.19772674546E+02 -0.10859989302E+04  0.10864990044E+04  0.47000000000E+01 0.  1.
         13    1    4    4    0    0 -0.35900304143E+01 -0.25122148004E+02 -0.89490093115E+02  0.93018747596E+02  0.00000000000E+00 0. -1.
        -14    1    4    4    0    0  0.72165861161E+01  0.44449664802E+02 -0.14573575553E+03  0.15253446252E+03  0.00000000000E+00 0.  1.
</event>
<event>
12    1  0.8113184E-002  0.1940765E+03  0.7818608E-02  0.1155076E+00
         21   -1    0    0  501  502  0.00000000000E+00  0.00000000000E+00  0.15901984870E+04  0.15901984870E+04  0.00000000000E+00 0.  1.
         21   -1    0    0  502  503 -0.00000000000E+00 -0.00000000000E+00 -0.10349752379E+03  0.10349752379E+03  0.00000000000E+00 0. -1.
         -6    2    1    2    0  503 -0.78362588279E+02 -0.38351215443E+02 -0.14081718253E+01  0.19298468737E+03  0.17213249444E+03 0.  0.
        -24    2    3    3    0    0 -0.12433990217E+02  0.13470882522E+02 -0.49618267984E+02  0.96142479362E+02  0.80282843943E+02 0.  0.
          6    2    1    2  501    0  0.78362588279E+02  0.38351215443E+02  0.14881091350E+04  0.15007113234E+04  0.17336137841E+03 0.  0.
         24    2    5    5    0    0 -0.12145010667E+02 -0.14055576084E+02  0.85757543915E+03  0.86154551637E+03  0.80498338128E+02 0.  0.
          5    1    5    5  501    0  0.90507598945E+02  0.52406791527E+02  0.63053369583E+03  0.63916580701E+03  0.47000000000E+01 0. -1.
        -13    1    6    6    0    0  0.40791896278E+01 -0.16377400750E+02  0.82410447293E+03  0.82427728426E+03  0.00000000000E+00 0.  1.
         14    1    6    6    0    0 -0.16224200294E+02  0.23218246659E+01  0.33470966223E+02  0.37268232113E+02  0.00000000000E+00 0. -1.
         -5    1    3    3    0  503 -0.65928598062E+02 -0.51822097965E+02  0.48210096158E+02  0.96842208006E+02  0.47000000000E+01 0.  1.
         13    1    4    4    0    0 -0.45494016491E+02  0.85457544328E+00 -0.36751527961E+02  0.58490261096E+02  0.00000000000E+00 0. -1.
        -14    1    4    4    0    0  0.33060026274E+02  0.12616307079E+02 -0.12866740023E+02  0.37652218266E+02  0.00000000000E+00 0.  1.
</event>
<event>
12    1  0.8113184E-002  0.2691395E+03  0.7818608E-02  0.1101890E+00
         21   -1    0    0  503  502  0.00000000000E+00  0.00000000000E+00  0.63626424508E+03  0.63626424508E+03  0.00000000000E+00 0.  1.
         21   -1    0    0  501  503 -0.00000000000E+00 -0.00000000000E+00 -0.20016885880E+03  0.20016885880E+03  0.00000000000E+00 0.  1.
          6    2    1    2  501    0  0.10082605311E+03  0.18108944893E+03 -0.56952079155E+02  0.27509924215E+03  0.17168800836E+03 0.  0.
         24    2    3    3    0    0  0.16038792870E+02  0.16385173958E+03 -0.42383512095E+02  0.18723371269E+03  0.78456775544E+02 0.  0.
         -6    2    1    2    0  502 -0.10082605311E+03 -0.18108944893E+03  0.49304746543E+03  0.56133386172E+03  0.17041308531E+03 0.  0.
        -24    2    5    5    0    0 -0.25592972924E+01 -0.21936591095E+02  0.16963200196E+03  0.18769548111E+03  0.77245151996E+02 0.  0.
          5    1    3    3  501    0  0.84787260239E+02  0.17237709346E+02 -0.14568567060E+02  0.87865529467E+02  0.47000000000E+01 0. -1.
        -11    1    4    4    0    0  0.45171440056E+02  0.10917368520E+03 -0.41645466838E+02  0.12527448841E+03  0.00000000000E+00 0.  1.
         12    1    4    4    0    0 -0.29132647186E+02  0.54678054378E+02 -0.73804525714E+00  0.61959224280E+02  0.00000000000E+00 0. -1.
         -5    1    5    5    0  502 -0.98266755816E+02 -0.15915285783E+03  0.32341546347E+03  0.37363838061E+03  0.47000000000E+01 0.  1.
         11    1    6    6    0    0  0.10559952342E+02 -0.76878552171E+00 -0.47068069360E+01  0.11586960610E+02  0.00000000000E+00 0. -1.
        -12    1    6    6    0    0 -0.13119249634E+02 -0.21167805573E+02  0.17433880890E+03  0.17610852050E+03  0.00000000000E+00 0.  1.
</event>
<event>
12    1  0.8113184E-002  0.1766138E+03  0.7818608E-02  0.1171902E+00
         21   -1    0    0  503  502  0.00000000000E+00  0.00000000000E+00  0.33303711169E+02  0.33303711169E+02  0.00000000000E+00 0. -1.
         21   -1    0    0  501  503 -0.00000000000E+00 -0.00000000000E+00 -0.92273134629E+03  0.92273134629E+03  0.00000000000E+00 0. -1.
          6    2    1    2  501    0  0.93502041587E+01  0.30849223986E+02 -0.42332966323E+03  0.45869426405E+03  0.17364712251E+03 0.  0.
         24    2    3    3    0    0  0.72271044002E+02  0.26642876481E+02 -0.23440533885E+03  0.25946772016E+03  0.80278815721E+02 0.  0.
         -6    2    1    2    0  502 -0.93502041587E+01 -0.30849223986E+02 -0.46609797189E+03  0.49734079341E+03  0.17047417534E+03 0.  0.
        -24    2    5    5    0    0  0.28232519946E+02  0.15928603812E+02 -0.12453918008E+03  0.15051933418E+03  0.78072190855E+02 0.  0.
          5    1    3    3  501    0 -0.62920839843E+02  0.42063475047E+01 -0.18892432438E+03  0.19922654389E+03  0.47000000000E+01 0. -1.
        -13    1    4    4    0    0  0.13370026009E+02  0.39734487844E+02 -0.14976410218E+03  0.15552129572E+03  0.00000000000E+00 0.  1.
         14    1    4    4    0    0  0.58901017993E+02 -0.13091611363E+02 -0.84641236669E+02  0.10394642444E+03  0.00000000000E+00 0. -1.
         -5    1    5    5    0  502 -0.37582724105E+02 -0.46777827798E+02 -0.34155879181E+03  0.34682145924E+03  0.47000000000E+01 0.  1.
         13    1    6    6    0    0  0.30933807606E+02  0.91470221609E+01 -0.13441891947E+03  0.13823535864E+03  0.00000000000E+00 0. -1.
        -14    1    6    6    0    0 -0.27012876592E+01  0.67815816515E+01  0.98797393873E+01  0.12283975540E+02  0.00000000000E+00 0.  1.
</event>
<event>
12    1  0.8113184E-002  0.1892554E+03  0.7818608E-02  0.1159931E+00
         21   -1    0    0  503  502  0.00000000000E+00  0.00000000000E+00  0.46651632130E+03  0.46651632130E+03  0.00000000000E+00 0. -1.
         21   -1    0    0  501  503 -0.00000000000E+00 -0.00000000000E+00 -0.86378581316E+02  0.86378581316E+02  0.00000000000E+00 0. -1.
          6    2    1    2  501    0 -0.54094088341E+02 -0.36456790450E+02  0.89848051404E+02  0.20636102667E+03  0.17394520121E+03 0.  0.
         24    2    3    3    0    0  0.13909836150E+01  0.43705239191E+02  0.51091093083E+02  0.10134323759E+03  0.75816022342E+02 0.  0.
         -6    2    1    2    0  502  0.54094088341E+02  0.36456790450E+02  0.29028968858E+03  0.34653387594E+03  0.17765797454E+03 0.  0.
        -24    2    5    5    0    0 -0.13679390931E+02 -0.35383504474E+02  0.16113738765E+03  0.18387878287E+03  0.80043931477E+02 0.  0.
          5    1    3    3  501    0 -0.55485071956E+02 -0.80162029641E+02  0.38756958321E+02  0.10501778909E+03  0.47000000000E+01 0. -1.
        -11    1    4    4    0    0  0.28766428913E+01  0.43989494228E+02  0.69809718440E+02  0.82563596490E+02  0.00000000000E+00 0.  1.
         12    1    4    4    0    0 -0.14856592763E+01 -0.28425503743E+00 -0.18718625357E+02  0.18779641095E+02  0.00000000000E+00 0. -1.
         -5    1    5    5    0  502  0.67773479272E+02  0.71840294924E+02  0.12915230093E+03  0.16265509308E+03  0.47000000000E+01 0.  1.
         11    1    6    6    0    0 -0.45960637435E+02 -0.12141249239E+02  0.10293869903E+03  0.11338503377E+03  0.00000000000E+00 0. -1.
        -12    1    6    6    0    0  0.32281246504E+02 -0.23242255235E+02  0.58198688620E+02  0.70493749094E+02  0.00000000000E+00 0.  1.
</event>
<event>
12    1  0.8113184E-002  0.2087541E+03  0.7818608E-02  0.1143066E+00
         21   -1    0    0  503  502  0.00000000000E+00  0.00000000000E+00  0.13854001145E+03  0.13854001145E+03  0.00000000000E+00 0. -1.
         21   -1    0    0  501  503 -0.00000000000E+00 -0.00000000000E+00 -0.31923369023E+03  0.31923369023E+03  0.00000000000E+00 0. -1.
          6    2    1    2  501    0  0.66791001019E+02  0.92997154519E+02 -0.12822038072E+03  0.24498721726E+03  0.17455303499E+03 0.  0.
         24    2    3    3    0    0 -0.24660799521E+02  0.70815676963E+02 -0.56840049559E+02  0.12678107764E+03  0.84968436941E+02 0.  0.
         -6    2    1    2    0  502 -0.66791001019E+02 -0.92997154519E+02 -0.52473298052E+02  0.21278648442E+03  0.17150840323E+03 0.  0.
        -24    2    5    5    0    0 -0.49309494731E+01  0.11594243309E+02  0.24607739297E+01  0.79347851551E+02  0.78302524843E+02 0.  0.
          5    1    3    3  501    0  0.91451800540E+02  0.22181477556E+02 -0.71380331163E+02  0.11820613963E+03  0.47000000000E+01 0. -1.
        -13    1    4    4    0    0 -0.29933129471E+02  0.86852393427E+02 -0.59838545252E+02  0.10963567842E+03  0.00000000000E+00 0.  1.
         14    1    4    4    0    0  0.52723299499E+01 -0.16036716463E+02  0.29984956931E+01  0.17145399221E+02  0.00000000000E+00 0. -1.
         -5    1    5    5    0  502 -0.61860051546E+02 -0.10459139783E+03 -0.54934071982E+02  0.13343863287E+03  0.47000000000E+01 0.  1.
         11    1    6    6    0    0 -0.10694849387E+02 -0.25593828231E+02 -0.21185355241E+02  0.34903339720E+02  0.00000000000E+00 0. -1.
        -12    1    6    6    0    0  0.57638999135E+01  0.37188071541E+02  0.23646129170E+02  0.44444511831E+02  0.00000000000E+00 0.  1.
</event>
<event>
12    1  0.8113184E-002  0.1803586E+03  0.7818608E-02  0.1168462E+00
         21   -1    0    0  501  502  0.00000000000E+00  0.00000000000E+00  0.11781755654E+03  0.11781755654E+03  0.00000000000E+00 0.  1.
         21   -1    0    0  502  503 -0.00000000000E+00 -0.00000000000E+00 -0.28898409316E+03  0.28898409316E+03  0.00000000000E+00 0.  1.
         -6    2    1    2    0  503  0.25380969514E+02 -0.28609173332E+02 -0.13702041320E+03  0.22323918533E+03  0.17204203505E+03 0.  0.
        -24    2    3    3    0    0  0.23599888573E+02 -0.71898327404E+02 -0.14149437406E+03  0.17943017444E+03  0.80300718463E+02 0.  0.
          6    2    1    2  501    0 -0.25380969514E+02  0.28609173332E+02 -0.34146123421E+02  0.18356246437E+03  0.17625703438E+03 0.  0.
         24    2    5    5    0    0  0.55170693716E+02  0.83269176992E+01 -0.19789148108E+02  0.99134074100E+02  0.79516106931E+02 0.  0.
          5    1    5    5  501    0 -0.80551663230E+02  0.20282255633E+02 -0.14356975313E+02  0.84428390265E+02  0.47000000000E+01 0. -1.
        -13    1    6    6    0    0  0.20476072800E+02  0.36581787881E+02 -0.32015609822E+02  0.52749369988E+02  0.00000000000E+00 0.  1.
         14    1    6    6    0    0  0.34694620916E+02 -0.28254870182E+02  0.12226461714E+02  0.46384704112E+02  0.00000000000E+00 0. -1.
         -5    1    3    3    0  503  0.17810809411E+01  0.43289154072E+02  0.44739608584E+01  0.43809010892E+02  0.47000000000E+01 0.  1.
         11    1    4    4    0    0  0.41929131825E+02 -0.51026240630E+02 -0.13589553369E+03  0.15109376362E+03  0.00000000000E+00 0. -1.
        -12    1    4    4    0    0 -0.18329243252E+02 -0.20872086774E+02 -0.55988403633E+01  0.28336410816E+02  0.00000000000E+00 0.  1.
</event>
<event>
12    1  0.8113184E-002  0.2174208E+03  0.7818608E-02  0.1139606E+00
         21   -1    0    0  503  502  0.00000000000E+00  0.00000000000E+00  0.25540159065E+03  0.25540159065E+03  0.00000000000E+00 0.  1.
         21   -1    0    0  501  503 -0.00000000000E+00 -0.00000000000E+00 -0.24209327911E+03  0.24209327911E+03  0.00000000000E+00 0. -1.
          6    2    1    2  501    0 -0.71901195385E+02  0.69520884616E+02  0.14323443606E+03  0.26036107517E+03  0.19305141931E+03 0.  0.
         24    2    3    3    0    0 -0.25811215796E+02  0.55574387422E+02  0.17594332926E+03  0.20195942540E+03  0.77953980003E+02 0.  0.
         -6    2    1    2    0  502  0.71901195385E+02 -0.69520884616E+02 -0.12992612452E+03  0.23713379459E+03  0.17131463278E+03 0.  0.
        -24    2    5    5    0    0  0.10667737923E+03 -0.64266869682E+02 -0.13657055660E+03  0.20103357141E+03  0.79073928232E+02 0.  0.
          5    1    3    3  501    0 -0.46089979589E+02  0.13946497194E+02 -0.32708893199E+02  0.58401649778E+02  0.47000000000E+01 0. -1.
        -13    1    4    4    0    0  0.12410764861E+02  0.51889627423E+02  0.62403840850E+02  0.82102374335E+02  0.00000000000E+00 0.  1.
         14    1    4    4    0    0 -0.38221980657E+02  0.36847599987E+01  0.11353948841E+03  0.11985705106E+03  0.00000000000E+00 0. -1.
         -5    1    5    5    0  502 -0.34776183842E+02 -0.52540149335E+01  0.66444320835E+01  0.36100223174E+02  0.47000000000E+01 0.  1.
         11    1    6    6    0    0  0.77334128940E+02 -0.82293289379E+02 -0.10065650792E+03  0.15127618968E+03  0.00000000000E+00 0. -1.
        -12    1    6    6    0    0  0.29343250287E+02  0.18026419697E+02 -0.35914048681E+02  0.49757381735E+02  0.00000000000E+00 0.  1.
</event>
<event>
12    1  0.8113184E-002  0.2026839E+03  0.7818608E-02  0.1148300E+00
         21   -1    0    0  501  502  0.00000000000E+00  0.00000000000E+00  0.68286551412E+02  0.68286551412E+02  0.00000000000E+00 0.  1.
         21   -1    0    0  502  503 -0.00000000000E+00 -0.00000000000E+00 -0.62549863767E+03  0.62549863767E+03  0.00000000000E+00 0.  1.
         -6    2    1    2    0  503  0.31632067955E+02  0.93996777816E+02 -0.35846265874E+03  0.40991532856E+03  0.17233431728E+03 0.  0.
        -24    2    3    3    0    0 -0.11723550516E+02 -0.21987777568E+00 -0.23345983962E+03  0.24742138212E+03  0.81094720098E+02 0.  0.
          6    2    1    2  501    0 -0.31632067955E+02 -0.93996777816E+02 -0.19874942752E+03  0.28386986052E+03  0.17676193259E+03 0.  0.
         24    2    5    5    0    0  0.31514471007E+01  0.12291356100E+02 -0.37353418840E+02  0.87457483244E+02  0.78054624608E+02 0.  0.
          5    1    5    5  501    0 -0.34783515056E+02 -0.10628813392E+03 -0.16139600868E+03  0.19641237728E+03  0.47000000000E+01 0. -1.
        -11    1    6    6    0    0 -0.62069598021E+01  0.43979807056E+02 -0.30028047466E+02  0.53613742766E+02  0.00000000000E+00 0.  1.
         12    1    6    6    0    0  0.93584069028E+01 -0.31688450957E+02 -0.73253713734E+01  0.33843740478E+02  0.00000000000E+00 0. -1.
         -5    1    3    3    0  503  0.43355618471E+02  0.94216655591E+02 -0.12500281911E+03  0.16249394644E+03  0.47000000000E+01 0.  1.
         11    1    4    4    0    0  0.19444282015E+00  0.27987551101E+02 -0.27639348629E+02  0.39335409204E+02  0.00000000000E+00 0. -1.
        -12    1    4    4    0    0 -0.11917993336E+02 -0.28207428876E+02 -0.20582049100E+03  0.20808597291E+03  0.00000000000E+00 0.  1.
</event>
<event>
12    1  0.8113184E-002  0.1973948E+03  0.7818608E-02  0.1152032E+00
         21   -1    0    0  503  502  0.00000000000E+00  0.00000000000E+00  0.50644713594E+03  0.50644713594E+03  0.00000000000E+00 0.  1.
         21   -1    0    0  501  503 -0.00000000000E+00 -0.00000000000E+00 -0.80804445076E+02  0.80804445076E+02  0.00000000000E+00 0. -1.
          6    2    1    2  501    0  0.91950723385E+02  0.24878998112E+02  0.14727056417E+03  0.24599544594E+03  0.17248547845E+03 0.  0.
         24    2    3    3    0    0  0.39927432059E+02 -0.32515455911E+02  0.19219146922E+02  0.96263012407E+02  0.79029976877E+02 0.  0.
         -6    2    1    2    0  502 -0.91950723385E+02 -0.24878998112E+02  0.27837212670E+03  0.34125613508E+03  0.17288958537E+03 0.  0.
        -24    2    5    5    0    0  0.12116273561E+02  0.19550501858E+02  0.10546640779E+03  0.13456216334E+03  0.80341685465E+02 0.  0.
          5    1    3    3  501    0  0.52023291325E+02  0.57394454023E+02  0.12805141725E+03  0.14973243353E+03  0.47000000000E+01 0. -1.
        -13    1    4    4    0    0 -0.11751516815E+02 -0.20176999367E+02  0.33879156383E+02  0.41146162496E+02  0.00000000000E+00 0.  1.
         14    1    4    4    0    0  0.51678948875E+02 -0.12338456544E+02 -0.14660009461E+02  0.55116849911E+02  0.00000000000E+00 0. -1.
         -5    1    5    5    0  502 -0.10406699695E+03 -0.44429499971E+02  0.17290571891E+03  0.20669397174E+03  0.47000000000E+01 0.  1.
         11    1    6    6    0    0  0.38048148342E+02 -0.35866149577E+01  0.87407329825E+02  0.95396890443E+02  0.00000000000E+00 0. -1.
        -12    1    6    6    0    0 -0.25931874781E+02  0.23137116816E+02  0.18059077961E+02  0.39165272896E+02  0.00000000000E+00 0.  1.
</event>
<event>
12    1  0.8113184E-002  0.1974434E+03  0.7818608E-02  0.1152396E+00
         21   -1    0    0  501  502  0.00000000000E+00  0.00000000000E+00  0.69892389936E+02  0.69892389936E+02  0.00000000000E+00 0. -1.
         21   -1    0    0  502  503 -0.00000000000E+00 -0.00000000000E+00 -0.55622429854E+03  0.55622429854E+03  0.00000000000E+00 0. -1.
         -6    2    1    2    0  503 -0.30440898733E+02 -0.91078179397E+02 -0.27345125715E+03  0.33728248563E+03  0.17251667165E+03 0.  0.
        -24    2    3    3    0    0 -0.62578590006E+02 -0.35475985985E+02 -0.75816256271E+02  0.12942166997E+03  0.76336350681E+02 0.  0.
          6    2    1    2  501    0  0.30440898733E+02  0.91078179397E+02 -0.21288065145E+03  0.28883420284E+03  0.16995629406E+03 0.  0.
         24    2    5    5    0    0  0.34008042470E+02  0.85056164286E+02 -0.65054794903E+02  0.14076812623E+03  0.84808260127E+02 0.  0.
          5    1    5    5  501    0 -0.35671437378E+01  0.60220151115E+01 -0.14782585655E+03  0.14806607662E+03  0.47000000000E+01 0. -1.
        -11    1    6    6    0    0  0.40586964886E+01  0.74655050409E+02 -0.76588734888E+02  0.10703122853E+03  0.00000000000E+00 0.  1.
         12    1    6    6    0    0  0.29949345982E+02  0.10401113877E+02  0.11533939985E+02  0.33736897697E+02  0.00000000000E+00 0. -1.
         -5    1    3    3    0  503  0.32137691274E+02 -0.55602193413E+02 -0.19763500088E+03  0.20786081565E+03  0.47000000000E+01 0.  1.
         13    1    4    4    0    0 -0.19733932737E+02 -0.49232206822E+02 -0.17688826062E+02  0.55911831103E+02  0.00000000000E+00 0. -1.
        -14    1    4    4    0    0 -0.42844657269E+02  0.13756220837E+02 -0.58127430209E+02  0.73509838872E+02  0.00000000000E+00 0.  1.
</event>
<event>
12    1  0.8113184E-002  0.2445574E+03  0.7818608E-02  0.1116897E+00
         21   -1    0    0  503  502  0.00000000000E+00  0.00000000000E+00  0.65959522388E+03  0.65959522388E+03  0.00000000000E+00 0.  1.
         21   -1    0    0  501  503 -0.00000000000E+00 -0.00000000000E+00 -0.15108796474E+03  0.15108796474E+03  0.00000000000E+00 0. -1.
          6    2    1    2  501    0  0.77373266691E+02  0.15428269878E+03 -0.27562989071E+01  0.24393920684E+03  0.17236289017E+03 0.  0.
         24    2    3    3    0    0  0.21430805295E+02  0.16756932608E+03 -0.13708339364E+01  0.18623216251E+03  0.78369513912E+02 0.  0.
         -6    2    1    2    0  502 -0.77373266691E+02 -0.15428269878E+03  0.51126355805E+03  0.56674398179E+03  0.17325859737E+03 0.  0.
        -24    2    5    5    0    0 -0.87520780267E+01  0.69251274381E+00  0.18074288756E+03  0.19527098500E+03  0.73387245051E+02 0.  0.
          5    1    3    3  501    0  0.55942461396E+02 -0.13286627292E+02 -0.13854649707E+01  0.57707044328E+02  0.47000000000E+01 0. -1.
        -13    1    4    4    0    0 -0.17168883310E+02  0.63432941523E+02  0.27879739277E+02  0.71384791703E+02  0.00000000000E+00 0.  1.
         14    1    4    4    0    0  0.38599688605E+02  0.10413638455E+03 -0.29250573213E+02  0.11484737081E+03  0.00000000000E+00 0. -1.
         -5    1    5    5    0  502 -0.68621188665E+02 -0.15497521153E+03  0.33052067048E+03  0.37147299678E+03  0.47000000000E+01 0.  1.
         13    1    6    6    0    0 -0.31542361094E+01  0.22088915402E+02  0.12490279175E+02  0.25571008250E+02  0.00000000000E+00 0. -1.
        -14    1    6    6    0    0 -0.55978419173E+01 -0.21396402658E+02  0.16825260839E+03  0.16969997675E+03  0.00000000000E+00 0.  1.
</event>
<event>
12    1  0.8113184E-002  0.2071791E+03  0.7818608E-02  0.1144425E+00
         21   -1    0    0  503  502  0.00000000000E+00  0.00000000000E+00  0.40842554556E+03  0.40842554556E+03  0.00000000000E+00 0.  1.
         21   -1    0    0  501  503 -0.00000000000E+00 -0.00000000000E+00 -0.13887706660E+03  0.13887706660E+03  0.00000000000E+00 0.  1.
          6    2    1    2  501    0  0.10597457699E+03  0.26743583579E+02 -0.38995324578E+01  0.20423263564E+03  0.17248168853E+03 0.  0.
         24    2    3    3    0    0  0.11835214038E+03 -0.88547836017E+01 -0.43103600224E+02  0.14964786899E+03  0.80317669376E+02 0.  0.
         -6    2    1    2    0  502 -0.10597457699E+03 -0.26743583579E+02  0.27344801142E+03  0.34306997651E+03  0.17600387382E+03 0.  0.
        -24    2    5    5    0    0 -0.39135730283E+02  0.37876815493E+02  0.58610275210E+02  0.10893204642E+03  0.73924068075E+02 0.  0.
          5    1    3    3  501    0 -0.12377563393E+02  0.35598367181E+02  0.39204067766E+02  0.54584766656E+02  0.47000000000E+01 0. -1.
        -13    1    4    4    0    0  0.12128987596E+03 -0.27031452438E+01 -0.16802943916E+02  0.12247807938E+03  0.00000000000E+00 0.  1.
         14    1    4    4    0    0 -0.29377355798E+01 -0.61516383579E+01 -0.26300656308E+02  0.27169789602E+02  0.00000000000E+00 0. -1.
         -5    1    5    5    0  502 -0.66838846708E+02 -0.64620399073E+02  0.21483773621E+03  0.23413793009E+03  0.47000000000E+01 0.  1.
         13    1    6    6    0    0 -0.53913358927E+02  0.39025400658E+02  0.23096308635E+02  0.70449071249E+02  0.00000000000E+00 0. -1.
        -14    1    6    6    0    0  0.14777628644E+02 -0.11485851648E+01  0.35513966576E+02  0.38482975173E+02  0.00000000000E+00 0.  1.
</event>
<event>
12    1  0.8113184E-002  0.2420784E+03  0.7818608E-02  0.1118810E+00
         21   -1    0    0  501  502  0.00000000000E+00  0.00000000000E+00  0.74379504930E+03  0.74379504930E+03  0.00000000000E+00 0. -1.
         21   -1    0    0  502  503 -0.00000000000E+00 -0.00000000000E+00 -0.78020249255E+02  0.78020249255E+02  0.00000000000E+00 0.  1.
         -6    2    1    2    0  503  0.10542830294E+03 -0.13481181702E+03  0.33103759058E+03  0.41010708149E+03  0.17120916692E+03 0.  0.
        -24    2    3    3    0    0  0.38428391615E+01 -0.21376052131E+02  0.17001492923E+03  0.18843690606E+03  0.78305098069E+02 0.  0.
          6    2    1    2  501    0 -0.10542830294E+03  0.13481181702E+03  0.33473720946E+03  0.41170821707E+03  0.16782521721E+03 0.  0.
         24    2    5    5    0    0 -0.32630350076E+02  0.13763100981E+03  0.26405623311E+03  0.31009433904E+03  0.80160902270E+02 0.  0.
          5    1    5    5  501    0 -0.72797952866E+02 -0.28191927885E+01  0.70680976353E+02  0.10161387803E+03  0.47000000000E+01 0. -1.
        -11    1    6    6    0    0 -0.47024852758E+02  0.61566756623E+02  0.17921084851E+03  0.19523916237E+03  0.00000000000E+00 0.  1.
         12    1    6    6    0    0  0.14394502682E+02  0.76064253190E+02  0.84845384598E+02  0.11485517667E+03  0.00000000000E+00 0. -1.
         -5    1    3    3    0  503  0.10158546378E+03 -0.11343576489E+03  0.16102266135E+03  0.22167017543E+03  0.47000000000E+01 0.  1.
         13    1    4    4    0    0  0.10282941950E+02  0.66592558247E+01  0.15592582524E+03  0.15640635396E+03  0.00000000000E+00 0. -1.
        -14    1    4    4    0    0 -0.64401027881E+01 -0.28035307956E+02  0.14089103998E+02  0.32030552096E+02  0.00000000000E+00 0.  1.
</event>
<event>
12    1  0.8113184E-002  0.1760951E+03  0.7818608E-02  0.1172535E+00
         21   -1    0    0  503  502  0.00000000000E+00  0.00000000000E+00  0.37397105386E+03  0.37397105386E+03  0.00000000000E+00 0. -1.
         21   -1    0    0  501  503 -0.00000000000E+00 -0.00000000000E+00 -0.11135603225E+03  0.11135603225E+03  0.00000000000E+00 0. -1.
          6    2    1    2  501    0 -0.21742803927E+02  0.17178493642E+02  0.61116993446E+01  0.17620109490E+03  0.17390118691E+03 0.  0.
         24    2    3    3    0    0 -0.34080476622E+01 -0.58148253334E+02  0.15614119782E+01  0.98399570417E+02  0.79291886699E+02 0.  0.
         -6    2    1    2    0  502  0.21742803927E+02 -0.17178493642E+02  0.25650332227E+03  0.30912599120E+03  0.17028527222E+03 0.  0.
        -24    2    5    5    0    0 -0.48486733465E+02  0.14346051881E+02  0.13069947636E+03  0.16156352125E+03  0.80396801870E+02 0.  0.
          5    1    3    3  501    0 -0.18334756265E+02  0.75326746976E+02  0.45502873665E+01  0.77801524486E+02  0.47000000000E+01 0. -1.
        -13    1    4    4    0    0  0.31466434890E+02 -0.72593220589E+01 -0.13329481163E+02  0.34935788950E+02  0.00000000000E+00 0.  1.
         14    1    4    4    0    0 -0.34874482552E+02 -0.50888931275E+02  0.14890893141E+02  0.63463781467E+02  0.00000000000E+00 0. -1.
         -5    1    5    5    0  502  0.70229537392E+02 -0.31524545523E+02  0.12580384591E+03  0.14756246995E+03  0.47000000000E+01 0.  1.
         13    1    6    6    0    0 -0.35964261213E+02 -0.66200049605E+01  0.13213351947E+03  0.13710039940E+03  0.00000000000E+00 0. -1.
        -14    1    6    6    0    0 -0.12522472252E+02  0.20966056841E+02 -0.14340431060E+01  0.24463121845E+02  0.00000000000E+00 0.  1.
</event>
<event>
12    1  0.8113184E-002  0.2763231E+03  0.7818608E-02  0.1098379E+00
         21   -1    0    0  501  502  0.00000000000E+00  0.00000000000E+00  0.22704764829E+03  0.22704764829E+03  0.00000000000E+00 0. -1.
         21   -1    0    0  502  503 -0.00000000000E+00 -0.00000000000E+00 -0.46903772524E+03  0.46903772524E+03  0.00000000000E+00 0.  1.
         -6    2    1    2    0  503 -0.57905253891E+02 -0.20812482856E+03 -0.31084896220E+03  0.41591048593E+03  0.17229478318E+03 0.  0.
        -24    2    3    3    0    0  0.42475130769E+01 -0.12914895852E+03 -0.10743767680E+03  0.18897790670E+03  0.86442466235E+02 0.  0.
          6    2    1    2  501    0  0.57905253891E+02  0.20812482856E+03  0.68858885252E+02  0.28017488759E+03  0.16458268094E+03 0.  0.
         24    2    5    5    0    0 -0.31038862915E+02  0.11230825815E+03  0.21728869113E+02  0.14112381963E+03  0.76597864546E+02 0.  0.
          5    1    5    5  501    0  0.88944116807E+02  0.95816570412E+02  0.47130016139E+02  0.13905106796E+03  0.47000000000E+01 0. -1.
        -11    1    6    6    0    0 -0.79727427421E+01 -0.11155241898E+02  0.39716755565E+01  0.14275092131E+02  0.00000000000E+00 0.  1.
         12    1    6    6    0    0 -0.23066120173E+02  0.12346350005E+03  0.17757193557E+02  0.12684872750E+03  0.00000000000E+00 0. -1.
         -5    1    3    3    0  503 -0.62152766968E+02 -0.78975870049E+02 -0.20341128540E+03  0.22693257924E+03  0.47000000000E+01 0.  1.
         11    1    4    4    0    0  0.27157587856E+02 -0.12934035039E+03 -0.96160137020E+02  0.16344183298E+03  0.00000000000E+00 0. -1.
        -12    1    4    4    0    0 -0.22910074779E+02  0.19139187039E+00 -0.11277539785E+02  0.25536073716E+02  0.00000000000E+00 0.  1.
</event>
<event>
12    1  0.8113184E-002  0.2076300E+03  0.7818608E-02  0.1143659E+00
         21   -1    0    0  501  502  0.00000000000E+00  0.00000000000E+00  0.87664875383E+03  0.87664875383E+03  0.00000000000E+00 0. -1.
         21   -1    0    0  502  503 -0.00000000000E+00 -0.00000000000E+00 -0.49235078400E+02  0.49235078400E+02  0.00000000000E+00 0. -1.
         -6    2    1    2    0  503 -0.42381950167E+02 -0.10849941765E+03  0.37875806333E+03  0.43193506540E+03  0.17187750538E+03 0.  0.
        -24    2    3    3    0    0 -0.87307517397E+02 -0.68121277479E+02  0.32005210025E+03  0.34757167941E+03  0.78164022503E+02 0.  0.
          6    2    1    2  501    0  0.42381950167E+02  0.10849941765E+03  0.44865561210E+03  0.49394876683E+03  0.17066098749E+03 0.  0.
         24    2    5    5    0    0  0.68483346911E+02  0.13023036203E+03  0.40702014477E+03  0.44001251747E+03  0.79345455326E+02 0.  0.
          5    1    5    5  501    0 -0.26101396745E+02 -0.21730944375E+02  0.41635467327E+02  0.53936249360E+02  0.47000000000E+01 0. -1.
        -11    1    6    6    0    0 -0.15553035442E+02  0.66688215643E+01  0.29745775103E+02  0.34222525170E+02  0.00000000000E+00 0.  1.
         12    1    6    6    0    0  0.84036382354E+02  0.12356154046E+03  0.37727436967E+03  0.40578999230E+03  0.00000000000E+00 0. -1.
         -5    1    3    3    0  503  0.44925567231E+02 -0.40378140172E+02  0.58705963079E+02  0.84363385990E+02  0.47000000000E+01 0.  1.
         11    1    4    4    0    0 -0.34746950099E+02 -0.23207441398E+02  0.35771444493E+02  0.55004837229E+02  0.00000000000E+00 0. -1.
        -12    1    4    4    0    0 -0.52560567298E+02 -0.44913836081E+02  0.28428065576E+03  0.29256684219E+03  0.00000000000E+00 0.  1.
</event>
<event>
12    1  0.8113184E-002  0.2704050E+03  0.7818608E-02  0.1101214E+00
         21   -1    0    0  501  502  0.00000000000E+00  0.00000000000E+00  0.15143691425E+03  0.15143691425E+03  0.00000000000E+00 0.  1.
         21   -1    0    0  502  503 -0.00000000000E+00 -0.00000000000E+00 -0.58437947065E+03  0.58437947065E+03  0.00000000000E+00 0.  1.
         -6    2    1    2    0  503  0.20115973301E+03  0.54827206532E+02 -0.37177106071E+03  0.45970921965E+03  0.17218473884E+03 0.  0.
        -24    2    3    3    0    0  0.15277669037E+03 -0.30518090617E+02 -0.26293721717E+03  0.31310896706E+03  0.68038034239E+02 0.  0.
          6    2    1    2  501    0 -0.20115973301E+03 -0.54827206532E+02 -0.61171495691E+02  0.27610716525E+03  0.17035831080E+03 0.  0.
         24    2    5    5    0    0 -0.16867530645E+03 -0.99557376247E+02 -0.34536904376E+02  0.21456435490E+03  0.80511082828E+02 0.  0.
          5    1    5    5  501    0 -0.32484426554E+02  0.44730169714E+02 -0.26634591314E+02  0.61542810349E+02  0.47000000000E+01 0. -1.
        -13    1    6    6    0    0 -0.42432334105E+02 -0.61873753496E+02 -0.35066065853E+02  0.82816020936E+02  0.00000000000E+00 0.  1.
         14    1    6    6    0    0 -0.12624297235E+03 -0.37683622751E+02  0.52916147608E+00  0.13174833397E+03  0.00000000000E+00 0. -1.
         -5    1    3    3    0  503  0.48383042638E+02  0.85345297149E+02 -0.10883384354E+03  0.14660025259E+03  0.47000000000E+01 0.  1.
         13    1    4    4    0    0  0.10419945514E+02 -0.23212918197E+02 -0.59408894071E+02  0.64628411171E+02  0.00000000000E+00 0. -1.
        -14    1    4    4    0    0  0.14235674486E+03 -0.73051724204E+01 -0.20352832310E+03  0.24848055589E+03  0.00000000000E+00 0.  1.
</event>
<event>
12    1  0.8113184E-002  0.2538468E+03  0.7818608E-02  0.1111054E+00
         21   -1    0    0  501  502  0.00000000000E+00  0.00000000000E+00  0.22007433632E+03  0.22007433632E+03  0.00000000000E+00 0. -1.
         21   -1    0    0  502  503 -0.00000000000E+00 -0.00000000000E+00 -0.32363482152E+03  0.32363482152E+03  0.00000000000E+00 0. -1.
         -6    2    1    2    0  503  0.10065563566E+03  0.15690749231E+03 -0.13716019101E+03  0.28764833038E+03  0.17081313135E+03 0.  0.
        -24    2    3    3    0    0  0.61776968291E+02  0.10953289713E+02 -0.47242167488E+02  0.11180316842E+03  0.79572342637E+02 0.  0.
          6    2    1    2  501    0 -0.10065563566E+03 -0.15690749231E+03  0.33599705811E+02  0.25606082746E+03  0.17229825593E+03 0.  0.
         24    2    5    5    0    0 -0.56560899865E+02 -0.10820515824E+02 -0.20225394056E+02  0.94181298798E+02  0.71727480942E+02 0.  0.
          5    1    5    5  501    0 -0.44094735792E+02 -0.14608697649E+03  0.53825099867E+02  0.16187952866E+03  0.47000000000E+01 0. -1.
        -13    1    6    6    0    0  0.92239978858E+00 -0.72439350592E+01  0.21730910155E+02  0.22925049022E+02  0.00000000000E+00 0.  1.
         14    1    6    6    0    0 -0.57483299654E+02 -0.35765807649E+01 -0.41956304211E+02  0.71256249776E+02  0.00000000000E+00 0. -1.
         -5    1    3    3    0  503  0.38878667366E+02  0.14595420260E+03 -0.89918023520E+02  0.17584516196E+03  0.47000000000E+01 0.  1.
         11    1    4    4    0    0  0.70656861344E+02  0.15744407640E+01 -0.60690703783E+02  0.93157031106E+02  0.00000000000E+00 0. -1.
        -12    1    4    4    0    0 -0.88798930526E+01  0.93788489486E+01  0.13448536295E+02  0.18646137313E+02  0.00000000000E+00 0.  1.
</event>
<event>
12    1  0.8113184E-002  0.1799528E+03  0.7818608E-02  0.1168355E+00
         21   -1    0    0  501  502  0.00000000000E+00  0.00000000000E+00  0.19687788223E+03  0.19687788223E+03  0.00000000000E+00 0.  1.
         21   -1    0    0  502  503 -0.00000000000E+00 -0.00000000000E+00 -0.20088449684E+03  0.20088449684E+03  0.00000000000E+00 0.  1.
         -6    2    1    2    0  503 -0.41780184859E+02 -0.30025363274E+02 -0.88846405508E+02  0.20069053430E+03  0.17244100585E+03 0.  0.
        -24    2    3    3    0    0 -0.27044117225E+02  0.41210194322E+01 -0.12338628915E+03  0.14971778959E+03  0.80267509568E+02 0.  0.
          6    2    1    2  501    0  0.41780184859E+02  0.30025363274E+02  0.84839790889E+02  0.19707184477E+03  0.17027159363E+03 0.  0.
         24    2    5    5    0    0  0.73480743572E+01 -0.21632858701E+02  0.10292172668E+03  0.13223984239E+03  0.79828060977E+02 0.  0.
          5    1    5    5  501    0  0.34432110502E+02  0.51658221975E+02 -0.18081935791E+02  0.64832002384E+02  0.47000000000E+01 0. -1.
        -13    1    6    6    0    0  0.23450370683E+02  0.90298359071E-01  0.10254984721E+03  0.10519695434E+03  0.00000000000E+00 0.  1.
         14    1    6    6    0    0 -0.16102296326E+02 -0.21723157060E+02  0.37187946729E+00  0.27042888047E+02  0.00000000000E+00 0. -1.
         -5    1    3    3    0  503 -0.14736067634E+02 -0.34146382707E+02  0.34539883641E+02  0.50972744709E+02  0.47000000000E+01 0.  1.
         11    1    4    4    0    0  0.60359703425E+01  0.26494982821E+02 -0.91035730150E+01  0.28658194191E+02  0.00000000000E+00 0. -1.
        -12    1    4    4    0    0 -0.33080087567E+02 -0.22373963389E+02 -0.11428271613E+03  0.12105959540E+03  0.00000000000E+00 0.  1.
</event>
<event>
12    1  0.8113184E-002  0.2133752E+03  0.7818608E-02  0.1139129E+00
         21   -1    0    0  503  502  0.00000000000E+00  0.00000000000E+00  0.63040158555E+03  0.63040158555E+03  0.00000000000E+00 0.  1.
         21   -1    0    0  501  503 -0.00000000000E+00 -0.00000000000E+00 -0.87215134280E+02  0.87215134280E+02  0.00000000000E+00 0.  1.
          6    2    1    2  501    0  0.50779085403E+02  0.11490650889E+03  0.12048157374E+03  0.24411022531E+03  0.17114897368E+03 0.  0.
         24    2    3    3    0    0  0.98569783340E+02  0.88869584751E+02  0.10326460680E+03  0.18683556967E+03  0.81425707216E+02 0.  0.
         -6    2    1    2    0  502 -0.50779085403E+02 -0.11490650889E+03  0.42270487753E+03  0.47350649452E+03  0.17247308649E+03 0.  0.
        -24    2    5    5    0    0  0.31599487737E+02 -0.58806140083E+02  0.14519498634E+03  0.17860428971E+03  0.79757247367E+02 0.  0.
          5    1    3    3  501    0 -0.47790697937E+02  0.26036924138E+02  0.17216966936E+02  0.57274655637E+02  0.47000000000E+01 0. -1.
        -11    1    4    4    0    0  0.82050290054E+02  0.55556277080E+02  0.28133145239E+02  0.10300594100E+03  0.00000000000E+00 0.  1.
         12    1    4    4    0    0  0.16519493286E+02  0.33313307671E+02  0.75131461563E+02  0.83829628670E+02  0.00000000000E+00 0. -1.
         -5    1    5    5    0  502 -0.82378573140E+02 -0.56100368807E+02  0.27750989119E+03  0.29490220481E+03  0.47000000000E+01 0.  1.
         13    1    6    6    0    0  0.17811422339E+02  0.94047250434E+01  0.82546919142E+02  0.84968755897E+02  0.00000000000E+00 0. -1.
        -14    1    6    6    0    0  0.13788065398E+02 -0.68210865126E+02  0.62648067199E+02  0.93635533813E+02  0.00000000000E+00 0.  1.
</event>
<event>
12    1  0.8113184E-002  0.2812814E+03  0.7818608E-02  0.1095172E+00
         21   -1    0    0  503  502  0.00000000000E+00  0.00000000000E+00  0.67892286479E+03  0.67892286479E+03  0.00000000000E+00 0.  1.
         21   -1    0    0  501  503 -0.00000000000E+00 -0.00000000000E+00 -0.12628084233E+03  0.12628084233E+03  0.00000000000E+00 0.  1.
          6    2    1    2  501    0  0.21396046762E+03 -0.60261206945E+02  0.16197075000E+03  0.32458239379E+03  0.17236215285E+03 0.  0.
         24    2    3    3    0    0  0.42688970199E+02  0.56150020474E+01  0.22577374891E+02  0.94091171041E+02  0.80557645114E+02 0.  0.
         -6    2    1    2    0  502 -0.21396046762E+03  0.60261206945E+02  0.39067127246E+03  0.48062131333E+03  0.17018316291E+03 0.  0.
        -24    2    5    5    0    0 -0.87793711247E+02  0.50319809439E+02  0.29882504042E+03  0.32417738684E+03  0.74530224715E+02 0.  0.
          5    1    3    3  501    0  0.17127149742E+03 -0.65876208992E+02  0.13939337511E+03  0.23049122275E+03  0.47000000000E+01 0. -1.
        -11    1    4    4    0    0  0.57582853308E+02  0.12371288793E+01 -0.95756184652E+01  0.58386710405E+02  0.00000000000E+00 0.  1.
         12    1    4    4    0    0 -0.14893883109E+02  0.43778731681E+01  0.32152993357E+02  0.35704460636E+02  0.00000000000E+00 0. -1.
         -5    1    5    5    0  502 -0.12616675637E+03  0.99413975056E+01  0.91846232034E+02  0.15644392649E+03  0.47000000000E+01 0.  1.
         13    1    6    6    0    0 -0.26812745879E+02  0.57479119332E+02  0.13297212782E+03  0.14732399424E+03  0.00000000000E+00 0. -1.
        -14    1    6    6    0    0 -0.60980965368E+02 -0.71593098935E+01  0.16585291260E+03  0.17685339260E+03  0.00000000000E+00 0.  1.
</event>
<event>
12    1  0.8113184E-002  0.1716751E+03  0.7818608E-02  0.1176428E+00
         21   -1    0    0  503  502  0.00000000000E+00  0.00000000000E+00  0.64882894559E+02  0.64882894559E+02  0.00000000000E+00 0. -1.
         21   -1    0    0  501  503 -0.00000000000E+00 -0.00000000000E+00 -0.65900614420E+03  0.65900614420E+03  0.00000000000E+00 0. -1.
          6    2    1    2  501    0 -0.43494571216E+01 -0.12115277215E+02 -0.49967436609E+03  0.52794789666E+03  0.16996709014E+03 0.  0.
         24    2    3    3    0    0  0.40352021543E+02 -0.46119694208E+02 -0.20994200308E+03  0.23278445930E+03  0.79734860634E+02 0.  0.
         -6    2    1    2    0  502  0.43494571216E+01  0.12115277215E+02 -0.94448883550E+02  0.19594114211E+03  0.17119182763E+03 0.  0.
        -24    2    5    5    0    0  0.67134083714E+02 -0.14087726613E+02 -0.45809235489E+02  0.11217711576E+03  0.76024798637E+02 0.  0.
          5    1    3    3  501    0 -0.44701478665E+02  0.34004416993E+02 -0.28973236302E+03  0.29516343735E+03  0.47000000000E+01 0. -1.
        -13    1    4    4    0    0 -0.17549788801E+02  0.39919467771E+01 -0.15304771943E+02  0.23625553332E+02  0.00000000000E+00 0.  1.
         14    1    4    4    0    0  0.57901810344E+02 -0.50111640985E+02 -0.19463723113E+03  0.20915890597E+03  0.00000000000E+00 0. -1.
         -5    1    5    5    0  502 -0.62784626592E+02  0.26203003829E+02 -0.48639648061E+02  0.83764026345E+02  0.47000000000E+01 0.  1.
         11    1    6    6    0    0  0.15193353446E+02 -0.36722272901E+02 -0.68787943867E+00  0.39747157057E+02  0.00000000000E+00 0. -1.
        -12    1    6    6    0    0  0.51940730268E+02  0.22634546288E+02 -0.45121356051E+02  0.72429958707E+02  0.00000000000E+00 0.  1.
</event>
<event>
12    1  0.8113184E-002  0.1740904E+03  0.7818608E-02  0.1173841E+00
         21   -1    0    0  501  502  0.00000000000E+00  0.00000000000E+00  0.27253749221E+03  0.27253749221E+03  0.00000000000E+00 0.  1.
         21   -1    0    0  502  503 -0.00000000000E+00 -0.00000000000E+00 -0.27568561786E+03  0.27568561786E+03  0.00000000000E+00 0.  1.
         -6    2    1    2    0  503 -0.20722332581E+02  0.20064957698E+02  0.21046819251E+03  0.27265208132E+03  0.17091015124E+03 0.  0.
        -24    2    3    3    0    0 -0.79170120709E+02  0.27091927514E+02  0.14767039007E+03  0.18644781094E+03  0.77164509654E+02 0.  0.
          6    2    1    2  501    0  0.20722332581E+02 -0.20064957698E+02 -0.21361631816E+03  0.27557102875E+03  0.17168413703E+03 0.  0.
         24    2    5    5    0    0  0.27307985274E+02  0.50123487172E+02 -0.15888542293E+03  0.18619905603E+03  0.78532928267E+02 0.  0.
          5    1    5    5  501    0 -0.65856526933E+01 -0.70188444869E+02 -0.54730895232E+02  0.89371972718E+02  0.47000000000E+01 0. -1.
        -11    1    6    6    0    0  0.54506542753E+02  0.24812428367E+02 -0.95350725479E+02  0.11259831550E+03  0.00000000000E+00 0.  1.
         12    1    6    6    0    0 -0.27198557479E+02  0.25311058805E+02 -0.63534697450E+02  0.73600740532E+02  0.00000000000E+00 0. -1.
         -5    1    3    3    0  503  0.58447788128E+02 -0.70269698166E+01  0.62797802436E+02  0.86204270385E+02  0.47000000000E+01 0.  1.
         13    1    4    4    0    0 -0.74343905585E+01  0.39594338728E+02  0.62914638025E+02  0.74707653558E+02  0.00000000000E+00 0. -1.
        -14    1    4    4    0    0 -0.71735730150E+02 -0.12502411214E+02  0.84755752044E+02  0.11174015738E+03  0.00000000000E+00 0.  1.
</event>
<event>
12    1  0.8113184E-002  0.1876227E+03  0.7818608E-02  0.1160690E+00
         21   -1    0    0  503  502  0.00000000000E+00  0.00000000000E+00  0.63543057474E+02  0.63543057474E+02  0.00000000000E+00 0. -1.
         21   -1    0    0  501  503 -0.00000000000E+00 -0.00000000000E+00 -0.69765264063E+03  0.69765264063E+03  0.00000000000E+00 0. -1.
          6    2    1    2  501    0 -0.67022089321E+02  0.38675997888E+02 -0.14362914647E+03  0.23605446003E+03  0.17060065391E+03 0.  0.
         24    2    3    3    0    0 -0.67490162134E+02  0.54038119132E+02 -0.32051126145E+02  0.12332487882E+03  0.81894509851E+02 0.  0.
         -6    2    1    2    0  502  0.67022089321E+02 -0.38675997888E+02 -0.49048043668E+03  0.52514123807E+03  0.17092240311E+03 0.  0.
        -24    2    5    5    0    0  0.38947330242E+02 -0.37539759014E+02 -0.12205749889E+03  0.15561852668E+03  0.79956017741E+02 0.  0.
          5    1    3    3  501    0  0.46807281273E+00 -0.15362121245E+02 -0.11157802032E+03  0.11272958121E+03  0.47000000000E+01 0. -1.
        -11    1    4    4    0    0  0.51452858872E+01 -0.10804596616E+02 -0.22506611959E+02  0.25490407152E+02  0.00000000000E+00 0.  1.
         12    1    4    4    0    0 -0.72635448021E+02  0.64842715748E+02 -0.95445141863E+01  0.97834471664E+02  0.00000000000E+00 0. -1.
         -5    1    5    5    0  502  0.28074759079E+02 -0.11362388740E+01 -0.36842293780E+03  0.36952271139E+03  0.47000000000E+01 0.  1.
         13    1    6    6    0    0 -0.94072272702E+01 -0.45918328939E+02 -0.51069514273E+02  0.69318714252E+02  0.00000000000E+00 0. -1.
        -14    1    6    6    0    0  0.48354557512E+02  0.83785699259E+01 -0.70987984614E+02  0.86299812431E+02  0.00000000000E+00 0.  1.
</event>
<event>
12    1  0.8113184E-002  0.2299962E+03  0.7818608E-02  0.1127979E+00
         21   -1    0    0  501  502  0.00000000000E+00  0.00000000000E+00  0.20709422931E+04  0.20709422931E+04  0.00000000000E+00 0. -1.
         21   -1    0    0  502  503 -0.00000000000E+00 -0.00000000000E+00 -0.26788002887E+02  0.26788002887E+02  0.00000000000E+00 0.  1.
         -6    2    1    2    0  503 -0.92402774087E+02 -0.10622662898E+03  0.71519006903E+03  0.74901083879E+03  0.17233117078E+03 0.  0.
        -24    2    3    3    0    0 -0.98619737235E+02 -0.13560953106E+03  0.66395030182E+03  0.68943224104E+03  0.79818633290E+02 0.  0.
          6    2    1    2  501    0  0.92402774087E+02  0.10622662898E+03  0.13289642211E+04  0.13487194572E+04  0.18186781924E+03 0.  0.
         24    2    5    5    0    0 -0.71778560249E+01 -0.47306009458E+01  0.49574477165E+03  0.50225353948E+03  0.80136378172E+02 0.  0.
          5    1    5    5  501    0  0.99580630112E+02  0.11095722992E+03  0.83321944950E+03  0.84646591768E+03  0.47000000000E+01 0. -1.
        -11    1    6    6    0    0  0.29838534436E+02 -0.10953920295E+02  0.36043713537E+03  0.36183595048E+03  0.00000000000E+00 0.  1.
         12    1    6    6    0    0 -0.37016390461E+02  0.62233193489E+01  0.13530763628E+03  0.14041758901E+03  0.00000000000E+00 0. -1.
         -5    1    3    3    0  503  0.62169631476E+01  0.29382902081E+02  0.51239767209E+02  0.59578597744E+02  0.47000000000E+01 0.  1.
         13    1    4    4    0    0 -0.15785333647E+02 -0.69083386212E+02  0.37345488705E+03  0.38011872313E+03  0.00000000000E+00 0. -1.
        -14    1    4    4    0    0 -0.82834403588E+02 -0.66526144845E+02  0.29049541477E+03  0.30931351792E+03  0.00000000000E+00 0.  1.
</event>
<event>
12    1  0.8113184E-002  0.2044280E+03  0.7818608E-02  0.1146280E+00
         21   -1    0    0  503  502  0.00000000000E+00  0.00000000000E+00  0.20517335707E+03  0.20517335707E+03  0.00000000000E+00 0. -1.
         21   -1    0    0  501  503 -0.00000000000E+00 -0.00000000000E+00 -0.27529384973E+03  0.27529384973E+03  0.00000000000E+00 0. -1.
          6    2    1    2  501    0 -0.27670041350E+02 -0.10363328195E+03 -0.15843897304E+03  0.25777690836E+03  0.17274414024E+03 0.  0.
         24    2    3    3    0    0  0.47849351323E+02 -0.31217606202E+02 -0.71426099526E+02  0.12161326078E+03  0.80149848067E+02 0.  0.
         -6    2    1    2    0  502  0.27670041350E+02  0.10363328195E+03  0.88318480388E+02  0.22269029844E+03  0.17402679887E+03 0.  0.
        -24    2    5    5    0    0  0.72495574456E+02  0.10706058263E+03  0.95967133087E+02  0.17684635995E+03  0.73125698124E+02 0.  0.
          5    1    3    3  501    0 -0.75519392673E+02 -0.72415675748E+02 -0.87012873517E+02  0.13616364758E+03  0.47000000000E+01 0. -1.
        -13    1    4    4    0    0 -0.36384757281E+01  0.47501555350E+01  0.14207640330E+02  0.15416209877E+02  0.00000000000E+00 0.  1.
         14    1    4    4    0    0  0.51487827051E+02 -0.35967761737E+02 -0.85633739857E+02  0.10619705090E+03  0.00000000000E+00 0. -1.
         -5    1    5    5    0  502 -0.44825533106E+02 -0.34273006804E+01 -0.76486526990E+01  0.45843938491E+02  0.47000000000E+01 0.  1.
         11    1    6    6    0    0 -0.93457564494E+01  0.35487141748E+02  0.94337988012E+01  0.37890327960E+02  0.00000000000E+00 0. -1.
        -12    1    6    6    0    0  0.81841330906E+02  0.71573440882E+02  0.86533334286E+02  0.13895603199E+03  0.00000000000E+00 0.  1.
</event>
<event>
12    1  0.8113184E-002  0.2383099E+03  0.7818608E-02  0.1121581E+00
         21   -1    0    0  501  502  0.00000000000E+00  0.00000000000E+00  0.83539983456E+03  0.83539983456E+03  0.00000000000E+00 0.  1.
         21   -1    0    0  502  503 -0.00000000000E+00 -0.00000000000E+00 -0.79038668860E+02  0.79038668860E+02  0.00000000000E+00 0. -1.
         -6    2    1    2    0  503 -0.15550432872E+03 -0.43120797246E+02  0.20148000830E+03  0.31206695836E+03  0.17535847100E+03 0.  0.
        -24    2    3    3    0    0 -0.98670610637E+02 -0.96158962654E+02  0.10826687898E+03  0.19060134192E+03  0.74998126344E+02 0.  0.
          6    2    1    2  501    0  0.15550432872E+03  0.43120797246E+02  0.55488115741E+03  0.60237154506E+03  0.17005111011E+03 0.  0.
         24    2    5    5    0    0  0.94823072263E+02  0.69305133656E+02  0.48752605274E+03  0.50789067672E+03  0.80477765956E+02 0.  0.
          5    1    5    5  501    0  0.60681256455E+02 -0.26184336410E+02  0.67355104666E+02  0.94480868343E+02  0.47000000000E+01 0. -1.
        -13    1    6    6    0    0  0.97731771108E+02  0.30517980895E+02  0.37976851535E+03  0.39332807107E+03  0.00000000000E+00 0.  1.
         14    1    6    6    0    0 -0.29086988450E+01  0.38787152762E+02  0.10775753739E+03  0.11456260564E+03  0.00000000000E+00 0. -1.
         -5    1    3    3    0  503 -0.56833718081E+02  0.53038165408E+02  0.93213129314E+02  0.12146561644E+03  0.47000000000E+01 0.  1.
         11    1    4    4    0    0 -0.91150918553E+02 -0.84802078254E+02  0.55864636388E+02  0.13645783242E+03  0.00000000000E+00 0. -1.
        -12    1    4    4    0    0 -0.75196920842E+01 -0.11356884400E+02  0.52402242596E+02  0.54143509504E+02  0.00000000000E+00 0.  1.
</event>
<event>
12    1  0.8113184E-002  0.1940813E+03  0.7818608E-02  0.1154981E+00
         21   -1    0    0  503  502  0.00000000000E+00  0.00000000000E+00  0.75375153021E+03  0.75375153021E+03  0.00000000000E+00 0. -1.
         21   -1    0    0  501  503 -0.00000000000E+00 -0.00000000000E+00 -0.49914373025E+02  0.49914373025E+02  0.00000000000E+00 0. -1.
          6    2    1    2  501    0 -0.88014356623E+02  0.23858633591E+02  0.33314947319E+03  0.38555948348E+03  0.17132361904E+03 0.  0.
         24    2    3    3    0    0 -0.10833646922E+02 -0.30554650950E+02  0.87773154753E+02  0.12259694786E+03  0.79214457834E+02 0.  0.
         -6    2    1    2    0  502  0.88014356623E+02 -0.23858633591E+02  0.37068768399E+03  0.41810641976E+03  0.17055162799E+03 0.  0.
        -24    2    5    5    0    0  0.42807381705E+02  0.38295845426E+02  0.29077495407E+03  0.30713352105E+03  0.80510136846E+02 0.  0.
          5    1    3    3  501    0 -0.77180709702E+02  0.54413284541E+02  0.24537631844E+03  0.26296253561E+03  0.47000000000E+01 0. -1.
        -11    1    4    4    0    0  0.33250539693E+02 -0.66456031238E+01  0.47046929268E+02  0.57992895981E+02  0.00000000000E+00 0.  1.
         12    1    4    4    0    0 -0.44084186614E+02 -0.23909047826E+02  0.40726225486E+02  0.64604051883E+02  0.00000000000E+00 0. -1.
         -5    1    5    5    0  502  0.45206974918E+02 -0.62154479017E+02  0.79912729919E+02  0.11097289870E+03  0.47000000000E+01 0.  1.
         13    1    6    6    0    0  0.65133412922E+02  0.38284388931E+02  0.20427634905E+03  0.21780009801E+03  0.00000000000E+00 0. -1.
        -14    1    6    6    0    0 -0.22326031217E+02  0.11456495478E-01  0.86498605025E+02  0.89333423042E+02  0.00000000000E+00 0.  1.
</event>
<event>
12    1  0.8113184E-002  0.1964494E+03  0.7818608E-02  0.1154244E+00
         21   -1    0    0  503  502  0.00000000000E+00  0.00000000000E+00  0.83619500588E+02  0.83619500588E+02  0.00000000000E+00 0. -1.
         21   -1    0    0  501  503 -0.00000000000E+00 -0.00000000000E+00 -0.46757248187E+03  0.46757248187E+03  0.00000000000E+00 0. -1.
          6    2    1    2  501    0  0.31171932016E+02 -0.75020496595E+02 -0.25446117455E+03  0.32146983843E+03  0.17886476292E+03 0.  0.
         24    2    3    3    0    0  0.64196932175E+02  0.25370991497E+01 -0.72561336853E+02  0.12093188131E+03  0.72330417794E+02 0.  0.
         -6    2    1    2    0  502 -0.31171932016E+02  0.75020496595E+02 -0.12949180674E+03  0.22972214403E+03  0.17147702817E+03 0.  0.
        -24    2    5    5    0    0 -0.33291037941E+02  0.10628279374E+03 -0.13794377794E+03  0.19692965023E+03  0.85723251308E+02 0.  0.
          5    1    3    3  501    0 -0.33025000159E+02 -0.77557595744E+02 -0.18189983770E+03  0.20053795712E+03  0.47000000000E+01 0. -1.
        -13    1    4    4    0    0  0.96218971286E+01  0.27056196550E+02 -0.48666101890E+02  0.56506708888E+02  0.00000000000E+00 0.  1.
         14    1    4    4    0    0  0.54575035046E+02 -0.24519097400E+02 -0.23895234962E+02  0.64425172421E+02  0.00000000000E+00 0. -1.
         -5    1    5    5    0  502  0.21191059251E+01 -0.31262297140E+02  0.84519712067E+01  0.32792493801E+02  0.47000000000E+01 0.  1.
         13    1    6    6    0    0  0.27024109435E+02  0.43029164851E+02 -0.34066635474E+02  0.61174726571E+02  0.00000000000E+00 0. -1.
        -14    1    6    6    0    0 -0.60315147376E+02  0.63253628884E+02 -0.10387714247E+03  0.13575492366E+03  0.00000000000E+00 0.  1.
</event>
<event>
12    1  0.8113184E-002  0.1755298E+03  0.7818608E-02  0.1173017E+00
         21   -1    0    0  501  502  0.00000000000E+00  0.00000000000E+00  0.28044932365E+04  0.28044932365E+04  0.00000000000E+00 0.  1.
         21   -1    0    0  502  503 -0.00000000000E+00 -0.00000000000E+00 -0.31624234481E+02  0.31624234481E+02  0.00000000000E+00 0.  1.
         -6    2    1    2    0  503  0.33078003735E+00  0.20903883486E+02  0.23091881147E+03  0.28811403721E+03  0.17102373865E+03 0.  0.
        -24    2    3    3    0    0  0.59518148627E+02  0.43534043901E+01  0.90912244357E+02  0.13514021005E+03  0.80227663884E+02 0.  0.
          6    2    1    2  501    0 -0.33078003735E+00 -0.20903883486E+02  0.25419501905E+04  0.25480034338E+04  0.17428036481E+03 0.  0.
         24    2    5    5    0    0  0.63504758540E+02 -0.12894678070E+00  0.11641488519E+04  0.11685596354E+04  0.79096151780E+02 0.  0.
          5    1    5    5  501    0 -0.63835538577E+02 -0.20774936705E+02  0.13778013387E+04  0.13794437984E+04  0.47000000000E+01 0. -1.
        -11    1    6    6    0    0 -0.17500957978E+02  0.63194214322E+01  0.30851904558E+03  0.30907963392E+03  0.00000000000E+00 0.  1.
         12    1    6    6    0    0  0.81005716518E+02 -0.64483682129E+01  0.85562980627E+03  0.85948000148E+03  0.00000000000E+00 0. -1.
         -5    1    3    3    0  503 -0.59187368589E+02  0.16550479095E+02  0.14000656712E+03  0.15297382716E+03  0.47000000000E+01 0.  1.
         11    1    4    4    0    0 -0.10862708957E+02 -0.21944380004E+02  0.27523270812E+02  0.36838630482E+02  0.00000000000E+00 0. -1.
        -12    1    4    4    0    0  0.70380857583E+02  0.26297784394E+02  0.63388973545E+02  0.98301579566E+02  0.00000000000E+00 0.  1.
</event>
<event>
12    1  0.8113184E-002  0.1752728E+03  0.7818608E-02  0.1172708E+00
         21   -1    0    0  503  502  0.00000000000E+00  0.00000000000E+00  0.80446374145E+03  0.80446374145E+03  0.00000000000E+00 0.  1.
         21   -1    0    0  501  503 -0.00000000000E+00 -0.00000000000E+00 -0.50689637054E+02  0.50689637054E+02  0.00000000000E+00 0.  1.
          6    2    1    2  501    0 -0.98390977719E+01  0.30873712708E+02  0.16191226368E+03  0.23788438712E+03  0.17124078522E+03 0.  0.
         24    2    3    3    0    0  0.16775812166E+00  0.80410819105E+01  0.83305768776E+01  0.82221640403E+02  0.81402165194E+02 0.  0.
         -6    2    1    2    0  502  0.98390977719E+01 -0.30873712708E+02  0.59186184071E+03  0.61726899138E+03  0.17225148838E+03 0.  0.
        -24    2    5    5    0    0  0.33572350871E+02 -0.36936430478E+02  0.18960459850E+03  0.21423921239E+03  0.86354697094E+02 0.  0.
          5    1    3    3  501    0 -0.10006855894E+02  0.22832630797E+02  0.15358168681E+03  0.15566274672E+03  0.47000000000E+01 0. -1.
        -13    1    4    4    0    0  0.61574343669E+01  0.83050959599E+01  0.44435457392E+02  0.45622346394E+02  0.00000000000E+00 0.  1.
         14    1    4    4    0    0 -0.59896762452E+01 -0.26401404934E+00 -0.36104880515E+02  0.36599294008E+02  0.00000000000E+00 0. -1.
         -5    1    5    5    0  502 -0.23733253099E+02  0.60627177701E+01  0.40225724220E+03  0.40302977899E+03  0.47000000000E+01 0.  1.
         13    1    6    6    0    0  0.24203068820E+02  0.21589963888E+02  0.11192341240E+03  0.11652795941E+03  0.00000000000E+00 0. -1.
        -14    1    6    6    0    0  0.93692820513E+01 -0.58526394366E+02  0.77681186107E+02  0.97711252978E+02  0.00000000000E+00 0.  1.
</event>
<event>
12    1  0.8113184E-002  0.2116395E+03  0.7818608E-02  0.1140350E+00
         21   -1    0    0  503  502  0.00000000000E+00  0.00000000000E+00  0.24637740645E+03  0.24637740645E+03  0.00000000000E+00 0. -1.
         21   -1    0    0  501  503 -0.00000000000E+00 -0.00000000000E+00 -0.20715108845E+03  0.20715108845E+03  0.00000000000E+00 0. -1.
          6    2    1    2  501    0 -0.11227321779E+03  0.51050636518E+02  0.99472802006E+02  0.23385067047E+03  0.17198794963E+03 0.  0.
         24    2    3    3    0    0 -0.28418954183E+02  0.81324225642E+02  0.27014857043E+02  0.11887123095E+03  0.77325936225E+02 0.  0.
         -6    2    1    2    0  502  0.11227321779E+03 -0.51050636518E+02 -0.60246484009E+02  0.21967782443E+03  0.17151461975E+03 0.  0.
        -24    2    5    5    0    0  0.32202584726E+02 -0.19488456955E+02 -0.92251579422E+02  0.12773276698E+03  0.79928089155E+02 0.  0.
          5    1    3    3  501    0 -0.83854263606E+02 -0.30273589124E+02  0.72457944962E+02  0.11497943952E+03  0.47000000000E+01 0. -1.
        -13    1    4    4    0    0  0.20556409855E+02  0.49537951012E+02 -0.20040807491E+01  0.53671136715E+02  0.00000000000E+00 0.  1.
         14    1    4    4    0    0 -0.48975364038E+02  0.31786274630E+02  0.29018937792E+02  0.65200094234E+02  0.00000000000E+00 0. -1.
         -5    1    5    5    0  502  0.80070633063E+02 -0.31562179563E+02  0.32005095413E+02  0.91945057454E+02  0.47000000000E+01 0.  1.
         11    1    6    6    0    0  0.97757124809E+01  0.10381258425E+02  0.10950590279E+02  0.17979168736E+02  0.00000000000E+00 0. -1.
        -12    1    6    6    0    0  0.22426872246E+02 -0.29869715380E+02 -0.10320216970E+03  0.10975359824E+03  0.00000000000E+00 0.  1.
</event>
<event>
12    1  0.8113184E-002  0.2067510E+03  0.7818608E-02  0.1145213E+00
         21   -1    0    0  501  502  0.00000000000E+00  0.00000000000E+00  0.10980906966E+04  0.10980906966E+04  0.00000000000E+00 0. -1.
         21   -1    0    0  502  503 -0.00000000000E+00 -0.00000000000E+00 -0.39150521847E+02  0.39150521847E+02  0.00000000000E+00 0. -1.
         -6    2    1    2    0  503  0.66904293965E+02 -0.91103571985E+02  0.42430211478E+03  0.46977477394E+03  0.16697307640E+03 0.  0.
        -24    2    3    3    0    0 -0.19952172568E+02 -0.16758182934E+02  0.20347839674E+03  0.22106512977E+03  0.82385725562E+02 0.  0.
          6    2    1    2  501    0 -0.66904293965E+02  0.91103571985E+02  0.63463806000E+03  0.66746644454E+03  0.17311828904E+03 0.  0.
         24    2    5    5    0    0 -0.88458805996E+02  0.46951963133E+02  0.58177333017E+03  0.59514265030E+03  0.75532240184E+02 0.  0.
          5    1    5    5  501    0  0.21554512032E+02  0.44151608852E+02  0.52864729837E+02  0.72323794244E+02  0.47000000000E+01 0. -1.
        -13    1    6    6    0    0  0.44787775958E+01  0.30023234469E+01  0.19088660354E+03  0.19096274193E+03  0.00000000000E+00 0.  1.
         14    1    6    6    0    0 -0.92937583592E+02  0.43949639687E+02  0.39088672663E+03  0.40417990836E+03  0.00000000000E+00 0. -1.
         -5    1    3    3    0  503  0.86856466533E+02 -0.74345389051E+02  0.22082371804E+03  0.24870964416E+03  0.47000000000E+01 0.  1.
         11    1    4    4    0    0 -0.17932968344E+01  0.22888513626E+02  0.15144309271E+03  0.15317346473E+03  0.00000000000E+00 0. -1.
        -12    1    4    4    0    0 -0.18158875734E+02 -0.39646696561E+02  0.52035304029E+02  0.67891665037E+02  0.00000000000E+00 0.  1.
</event>
<event>
12    1  0.8113184E-002  0.3810090E+03  0.7818608E-02  0.1050587E+00
         21   -1    0    0  501  502  0.00000000000E+00  0.00000000000E+00  0.69849913054E+02  0.69849913054E+02  0.00000000000E+00 0.  1.
         21   -1    0    0  502  503 -0.00000000000E+00 -0.00000000000E+00 -0.20891073891E+04  0.20891073891E+04  0.00000000000E+00 0. -1.
         -6    2    1    2    0  503  0.25838445188E+03  0.22039976938E+03 -0.10922227151E+04  0.11566792411E+04  0.17209829834E+03 0.  0.
        -24    2    3    3    0    0  0.25337978886E+03  0.19768860653E+03 -0.83403794860E+03  0.89740659083E+03  0.80232082179E+02 0.  0.
          6    2    1    2  501    0 -0.25838445188E+03 -0.22039976938E+03 -0.92703476103E+03  0.10022780610E+04  0.17271155197E+03 0.  0.
         24    2    5    5    0    0 -0.18665706484E+03 -0.22673448589E+03 -0.81187858794E+03  0.86638111155E+03  0.72249580848E+02 0.  0.
          5    1    5    5  501    0 -0.71727387037E+02  0.63347165099E+01 -0.11515617308E+03  0.13589694950E+03  0.47000000000E+01 0. -1.
        -13    1    6    6    0    0 -0.56561259495E+02 -0.93078632268E+02 -0.21460396631E+03  0.24066090297E+03  0.00000000000E+00 0.  1.
         14    1    6    6    0    0 -0.13009580535E+03 -0.13365585363E+03 -0.59727462163E+03  0.62572020858E+03  0.00000000000E+00 0. -1.
         -5    1    3    3    0  503  0.50046630234E+01  0.22711162855E+02 -0.25818476646E+03  0.25927265031E+03  0.47000000000E+01 0.  1.
         11    1    4    4    0    0  0.11841469396E+03  0.46005412960E+02 -0.35829081214E+03  0.38014581917E+03  0.00000000000E+00 0. -1.
        -12    1    4    4    0    0  0.13496509490E+03  0.15168319357E+03 -0.47574713646E+03  0.51726077167E+03  0.00000000000E+00 0.  1.
</event>
<event>
12    1  0.8113184E-002  0.2593534E+03  0.7818608E-02  0.1107892E+00
         21   -1    0    0  501  502  0.00000000000E+00  0.00000000000E+00  0.52220407588E+03  0.52220407588E+03  0.00000000000E+00 0.  1.
         21   -1    0    0  502  503 -0.00000000000E+00 -0.00000000000E+00 -0.12819086853E+03  0.12819086853E+03  0.00000000000E+00 0. -1.
         -6    2    1    2    0  503 -0.19107875040E+03 -0.10319081503E+02  0.17461412871E+03  0.31068898217E+03  0.17152252738E+03 0.  0.
        -24    2    3    3    0    0 -0.16779092724E+02 -0.20959701139E+01  0.72960927088E+02  0.10869033459E+03  0.78767765662E+02 0.  0.
          6    2    1    2  501    0  0.19107875040E+03  0.10319081503E+02  0.21939907863E+03  0.33970596223E+03  0.17506173989E+03 0.  0.
         24    2    5    5    0    0  0.20919264748E+03  0.30354360087E+02  0.21585512551E+03  0.31206224216E+03  0.78143821502E+02 0.  0.
          5    1    5    5  501    0 -0.18113897081E+02 -0.20035278584E+02  0.35439531249E+01  0.27643720067E+02  0.47000000000E+01 0. -1.
        -13    1    6    6    0    0  0.17399217344E+03  0.50637828393E+02  0.19569275119E+03  0.26670792817E+03  0.00000000000E+00 0.  1.
         14    1    6    6    0    0  0.35200474044E+02 -0.20283468306E+02  0.20162374321E+02  0.45354313992E+02  0.00000000000E+00 0. -1.
         -5    1    3    3    0  503 -0.17429965767E+03 -0.82231113894E+01  0.10165320163E+03  0.20199864759E+03  0.47000000000E+01 0.  1.
         13    1    4    4    0    0 -0.38962790837E+02 -0.11686245721E+02  0.10934203566E+02  0.42121541003E+02  0.00000000000E+00 0. -1.
        -14    1    4    4    0    0  0.22183698113E+02  0.95902756070E+01  0.62026723522E+02  0.66568793582E+02  0.00000000000E+00 0.  1.
</event>
<event>
12    1  0.8113184E-002  0.2043846E+03  0.7818608E-02  0.1146424E+00
         21   -1    0    0  503  502  0.00000000000E+00  0.00000000000E+00  0.40829647904E+02  0.40829647904E+02  0.00000000000E+00 0. -1.
         21   -1    0    0  501  503 -0.00000000000E+00 -0.00000000000E+00 -0.10416295977E+04  0.10416295977E+04  0.00000000000E+00 0. -1.
          6    2    1    2  501    0  0.10506200162E+03 -0.16837284486E+02 -0.58880317021E+03  0.62326740487E+03  0.17450377185E+03 0.  0.
         24    2    3    3    0    0  0.42687358683E+02 -0.52193393135E+02 -0.17711575889E+03  0.20535681020E+03  0.79088978803E+02 0.  0.
         -6    2    1    2    0  502 -0.10506200162E+03  0.16837284486E+02 -0.41199677961E+03  0.45919184076E+03  0.17261020213E+03 0.  0.
        -24    2    5    5    0    0 -0.13542655664E+03 -0.15298179069E+02 -0.33139437542E+03  0.36714005218E+03  0.79969990178E+02 0.  0.
          5    1    3    3  501    0  0.62374642933E+02  0.35356108650E+02 -0.41168741132E+03  0.41791059467E+03  0.47000000000E+01 0. -1.
        -13    1    4    4    0    0 -0.21522659362E+02 -0.55956438589E+00 -0.35903744727E+02  0.41864267147E+02  0.00000000000E+00 0.  1.
         14    1    4    4    0    0  0.64210018044E+02 -0.51633828749E+02 -0.14121201416E+03  0.16349254305E+03  0.00000000000E+00 0. -1.
         -5    1    5    5    0  502  0.30364555025E+02  0.32135463554E+02 -0.80602404190E+02  0.92051788581E+02  0.47000000000E+01 0.  1.
         11    1    6    6    0    0 -0.79790822034E+02  0.99969818698E+01 -0.26485038963E+03  0.27678916852E+03  0.00000000000E+00 0. -1.
        -12    1    6    6    0    0 -0.55635734607E+02 -0.25295160938E+02 -0.66543985793E+02  0.90350883655E+02  0.00000000000E+00 0.  1.
</event>
<event>
12    1  0.8113184E-002  0.2022698E+03  0.7818608E-02  0.1147984E+00
         21   -1    0    0  501  502  0.00000000000E+00  0.00000000000E+00  0.91919724094E+02  0.91919724094E+02  0.00000000000E+00 0.  1.
         21   -1    0    0  502  503 -0.00000000000E+00 -0.00000000000E+00 -0.47935161628E+03  0.47935161628E+03  0.00000000000E+00 0. -1.
         -6    2    1    2    0  503  0.10373877395E+03  0.28054763146E+02 -0.27208268299E+03  0.33903105293E+03  0.17136004643E+03 0.  0.
        -24    2    3    3    0    0  0.98602266441E+02  0.51367209510E+02 -0.28160596268E+03  0.31290373541E+03  0.79030577965E+02 0.  0.
          6    2    1    2  501    0 -0.10373877395E+03 -0.28054763146E+02 -0.11534920919E+03  0.23224028744E+03  0.17053242535E+03 0.  0.
         24    2    5    5    0    0  0.11296322543E-01 -0.25956014905E+02 -0.11713960464E+02  0.85506390184E+02  0.80625126698E+02 0.  0.
          5    1    5    5  501    0 -0.10375007027E+03 -0.20987482411E+01 -0.10363524873E+03  0.14673389726E+03  0.47000000000E+01 0. -1.
        -11    1    6    6    0    0  0.23018281683E+02  0.21149094132E+02 -0.10809375408E+02  0.33075188148E+02  0.00000000000E+00 0.  1.
         12    1    6    6    0    0 -0.23006985361E+02 -0.47105109037E+02 -0.90458505521E+00  0.52431202036E+02  0.00000000000E+00 0. -1.
         -5    1    3    3    0  503  0.51365075090E+01 -0.23312446364E+02  0.95232796905E+01  0.26127317523E+02  0.47000000000E+01 0.  1.
         11    1    4    4    0    0  0.94712183846E+02  0.11199189734E+02 -0.18304395303E+03  0.20639987490E+03  0.00000000000E+00 0. -1.
        -12    1    4    4    0    0  0.38900825946E+01  0.40168019776E+02 -0.98562009653E+02  0.10650386050E+03  0.00000000000E+00 0.  1.
</event>
<event>
12    1  0.8113184E-002  0.2920583E+03  0.7818608E-02  0.1089302E+00
         21   -1    0    0  503  502  0.00000000000E+00  0.00000000000E+00  0.20321750956E+03  0.20321750956E+03  0.00000000000E+00 0. -1.
         21   -1    0    0  501  503 -0.00000000000E+00 -0.00000000000E+00 -0.45657488343E+03  0.45657488343E+03  0.00000000000E+00 0.  1.
          6    2    1    2  501    0 -0.22595780388E+03 -0.70876076041E+02 -0.22074391102E+03  0.36609549959E+03  0.17093183812E+03 0.  0.
         24    2    3    3    0    0 -0.70996474948E+02  0.18657622421E+02 -0.91483165443E+02  0.14527945179E+03  0.85722477928E+02 0.  0.
         -6    2    1    2    0  502  0.22595780388E+03  0.70876076041E+02 -0.32613462852E+02  0.29369689340E+03  0.17062789909E+03 0.  0.
        -24    2    5    5    0    0  0.11454175717E+03  0.98905079996E+02 -0.44127899583E+02  0.17813810845E+03  0.82969182083E+02 0.  0.
          5    1    3    3  501    0 -0.15496132893E+03 -0.89533698462E+02 -0.12926074558E+03  0.22081604781E+03  0.47000000000E+01 0. -1.
        -11    1    4    4    0    0 -0.47309964492E+02 -0.24466089353E+02 -0.77667770877E+02  0.94175925276E+02  0.00000000000E+00 0.  1.
         12    1    4    4    0    0 -0.23686510456E+02  0.43123711774E+02 -0.13815394566E+02  0.51103526510E+02  0.00000000000E+00 0. -1.
         -5    1    5    5    0  502  0.11141604671E+03 -0.28029003955E+02  0.11514436731E+02  0.11555878495E+03  0.47000000000E+01 0.  1.
         11    1    6    6    0    0  0.11496298368E+03  0.79451507367E+02 -0.60909054363E+02  0.15244324368E+03  0.00000000000E+00 0. -1.
        -12    1    6    6    0    0 -0.42122651216E+00  0.19453572629E+02  0.16781154780E+02  0.25694864770E+02  0.00000000000E+00 0.  1.
</event>
<event>
12    1  0.8113184E-002  0.2221699E+03  0.7818608E-02  0.1132451E+00
         21   -1    0    0  503  502  0.00000000000E+00  0.00000000000E+00  0.16667247376E+04  0.16667247376E+04  0.00000000000E+00 0.  1.
         21   -1    0    0  501  503 -0.00000000000E+00 -0.00000000000E+00 -0.41518548136E+02  0.41518548136E+02  0.00000000000E+00 0. -1.
          6    2    1    2  501    0  0.36491198139E+01  0.13962191810E+03  0.12711347065E+04  0.12902407992E+04  0.17155256311E+03 0.  0.
         24    2    3    3    0    0  0.55584363605E+02  0.92767218226E+02  0.10452251602E+04  0.10537036023E+04  0.78104210323E+02 0.  0.
         -6    2    1    2    0  502 -0.36491198139E+01 -0.13962191810E+03  0.35407148299E+03  0.41800248650E+03  0.17277693008E+03 0.  0.
        -24    2    5    5    0    0  0.46941768915E+02 -0.30027155273E+02  0.14336654838E+03  0.17512574918E+03  0.83725152197E+02 0.  0.
          5    1    3    3  501    0 -0.51935243791E+02  0.46854699874E+02  0.22590954628E+03  0.23653719696E+03  0.47000000000E+01 0. -1.
        -11    1    4    4    0    0 -0.17131758516E+02  0.88319589579E+01  0.25293482691E+03  0.25366814407E+03  0.00000000000E+00 0.  1.
         12    1    4    4    0    0  0.72716122120E+02  0.83935259268E+02  0.79229033329E+03  0.80003545821E+03  0.00000000000E+00 0. -1.
         -5    1    5    5    0  502 -0.50590888729E+02 -0.10959476283E+03  0.21070493461E+03  0.24287673732E+03  0.47000000000E+01 0.  1.
         13    1    6    6    0    0  0.14880590900E+02 -0.71278088583E+00 -0.85108929425E+01  0.17157369868E+02  0.00000000000E+00 0. -1.
        -14    1    6    6    0    0  0.32061178016E+02 -0.29314374387E+02  0.15187744132E+03  0.15796837931E+03  0.00000000000E+00 0.  1.
</event>
<event>
12    1  0.8113184E-002  0.2779088E+03  0.7818608E-02  0.1097371E+00
         21   -1    0    0  503  502  0.00000000000E+00  0.00000000000E+00  0.15003157768E+03  0.15003157768E+03  0.00000000000E+00 0. -1.
         21   -1    0    0  501  503 -0.00000000000E+00 -0.00000000000E+00 -0.61582197434E+03  0.61582197434E+03  0.00000000000E+00 0.  1.
          6    2    1    2  501    0 -0.17246808732E+03 -0.13486989528E+03 -0.39201829338E+03  0.47831981636E+03  0.16485258442E+03 0.  0.
         24    2    3    3    0    0 -0.59587633931E+02 -0.12561856933E+03 -0.24253214472E+03  0.29071442617E+03  0.79764185479E+02 0.  0.
         -6    2    1    2    0  502  0.17246808732E+03  0.13486989528E+03 -0.73772103284E+02  0.28753373565E+03  0.17116715842E+03 0.  0.
        -24    2    5    5    0    0  0.15693237523E+03  0.42457753700E+02 -0.30771865697E+02  0.18432291891E+03  0.81225608463E+02 0.  0.
          5    1    3    3  501    0 -0.11288045339E+03 -0.92513259479E+01 -0.14948614866E+03  0.18760539019E+03  0.47000000000E+01 0. -1.
        -13    1    4    4    0    0 -0.64991972007E+02 -0.51423557196E+02 -0.15562307176E+03  0.17631471613E+03  0.00000000000E+00 0.  1.
         14    1    4    4    0    0  0.54043380762E+01 -0.74195012131E+02 -0.86909072963E+02  0.11439971005E+03  0.00000000000E+00 0. -1.
         -5    1    5    5    0  502  0.15535712083E+02  0.92412141575E+02 -0.43000237588E+02  0.10321081674E+03  0.47000000000E+01 0.  1.
         13    1    6    6    0    0  0.17844429141E+02  0.24571394698E+02  0.18648377550E+02  0.35636204540E+02  0.00000000000E+00 0. -1.
        -14    1    6    6    0    0  0.13908794609E+03  0.17886359002E+02 -0.49420243247E+02  0.14868671437E+03  0.00000000000E+00 0.  1.
</event>
<event>
12    1  0.8113184E-002  0.1884485E+03  0.7818608E-02  0.1161334E+00
         21   -1    0    0  503  502  0.00000000000E+00  0.00000000000E+00  0.13495463670E+03  0.13495463670E+03  0.00000000000E+00 0. -1.
         21   -1    0    0  501  503 -0.00000000000E+00 -0.00000000000E+00 -0.30657781381E+03  0.30657781381E+03  0.00000000000E+00 0. -1.
          6    2    1    2  501    0  0.42979593679E+02 -0.40120121753E+02 -0.17808909454E+03  0.25928469189E+03  0.17904177225E+03 0.  0.
         24    2    3    3    0    0 -0.42839708184E+02  0.70681612390E+01 -0.71825519032E+02  0.11469657307E+03  0.78174159337E+02 0.  0.
         -6    2    1    2    0  502 -0.42979593679E+02  0.40120121753E+02  0.64659174282E+01  0.18224775862E+03  0.17238204022E+03 0.  0.
        -24    2    5    5    0    0  0.28025011106E+02  0.50953303354E+02  0.33669559614E+02  0.10529881534E+03  0.81071332149E+02 0.  0.
          5    1    3    3  501    0  0.85819301863E+02 -0.47188282992E+02 -0.10626357551E+03  0.14458811882E+03  0.47000000000E+01 0. -1.
        -13    1    4    4    0    0 -0.30535283506E+02  0.34656655364E+02 -0.12071796300E+02  0.47741130754E+02  0.00000000000E+00 0.  1.
         14    1    4    4    0    0 -0.12304424678E+02 -0.27588494125E+02 -0.59753722732E+02  0.66955442311E+02  0.00000000000E+00 0. -1.
         -5    1    5    5    0  502 -0.71004604785E+02 -0.10833181601E+02 -0.27203642186E+02  0.76948943284E+02  0.47000000000E+01 0.  1.
         13    1    6    6    0    0 -0.26183481214E+02  0.20384703912E+01  0.13602146132E+02  0.29576146291E+02  0.00000000000E+00 0. -1.
        -14    1    6    6    0    0  0.54208492321E+02  0.48914832963E+02  0.20067413482E+02  0.75722669045E+02  0.00000000000E+00 0.  1.
</event>
<event>
12    1  0.8113184E-002  0.1727231E+03  0.7818608E-02  0.1175378E+00
         21   -1    0    0  503  502  0.00000000000E+00  0.00000000000E+00  0.46958381308E+02  0.46958381308E+02  0.00000000000E+00 0. -1.
         21   -1    0    0  501  503 -0.00000000000E+00 -0.00000000000E+00 -0.97814588478E+03  0.97814588478E+03  0.00000000000E+00 0. -1.
          6    2    1    2  501    0 -0.17204150480E+02  0.17018855049E+01 -0.77002758850E+03  0.78887178138E+03  0.17052073541E+03 0.  0.
         24    2    3    3    0    0 -0.35992276206E+02  0.59260333224E+02 -0.56911371442E+03  0.57898027758E+03  0.80749680146E+02 0.  0.
         -6    2    1    2    0  502  0.17204150480E+02 -0.17018855049E+01 -0.16115991498E+03  0.23623248471E+03  0.17185572271E+03 0.  0.
        -24    2    5    5    0    0  0.61771505928E+01  0.41556934860E+02 -0.16774751820E+03  0.19086281662E+03  0.80772822682E+02 0.  0.
          5    1    3    3  501    0  0.18788125726E+02 -0.57558447719E+02 -0.20091387408E+03  0.20989150381E+03  0.47000000000E+01 0. -1.
        -13    1    4    4    0    0 -0.39816910752E+02  0.46613485290E+02 -0.19018455028E+03  0.19982083615E+03  0.00000000000E+00 0.  1.
         14    1    4    4    0    0  0.38246345459E+01  0.12646847934E+02 -0.37892916414E+03  0.37915944143E+03  0.00000000000E+00 0. -1.
         -5    1    5    5    0  502  0.11026999887E+02 -0.43258820365E+02  0.65876032198E+01  0.45369668084E+02  0.47000000000E+01 0.  1.
         13    1    6    6    0    0 -0.25213885993E+01  0.53049217938E+02 -0.52364096535E+02  0.74582675805E+02  0.00000000000E+00 0. -1.
        -14    1    6    6    0    0  0.86985391921E+01 -0.11492283078E+02 -0.11538342166E+03  0.11628014082E+03  0.00000000000E+00 0.  1.
</event>
<event>
12    1  0.8113184E-002  0.2452979E+03  0.7818608E-02  0.1116370E+00
         21   -1    0    0  501  502  0.00000000000E+00  0.00000000000E+00  0.14045194435E+03  0.14045194435E+03  0.00000000000E+00 0.  1.
         21   -1    0    0  502  503 -0.00000000000E+00 -0.00000000000E+00 -0.19873551858E+04  0.19873551858E+04  0.00000000000E+00 0.  1.
         -6    2    1    2    0  503  0.16962596312E+03  0.43113396008E+02 -0.18657746807E+04  0.18817843647E+04  0.17136365907E+03 0.  0.
        -24    2    3    3    0    0  0.17157714922E+02  0.24479780862E+02 -0.89222362618E+03  0.89617920838E+03  0.78616331437E+02 0.  0.
          6    2    1    2  501    0 -0.16962596312E+03 -0.43113396008E+02  0.18871439216E+02  0.24602276552E+03  0.17187011856E+03 0.  0.
         24    2    5    5    0    0 -0.11279636239E+03  0.41908294731E+02  0.13848346754E+02  0.14352587350E+03  0.76997240995E+02 0.  0.
          5    1    5    5  501    0 -0.56829600730E+02 -0.85021690739E+02  0.50230924617E+01  0.10249689202E+03  0.47000000000E+01 0. -1.
        -11    1    6    6    0    0 -0.34720789436E+02 -0.13803222989E+02  0.27841316628E+02  0.46596148935E+02  0.00000000000E+00 0.  1.
         12    1    6    6    0    0 -0.78075572953E+02  0.55711517720E+02 -0.13992969874E+02  0.96929724566E+02  0.00000000000E+00 0. -1.
         -5    1    3    3    0  503  0.15246824820E+03  0.18633615146E+02 -0.97355105454E+03  0.98560515630E+03  0.47000000000E+01 0.  1.
         13    1    4    4    0    0 -0.37624105884E+01  0.18323100800E+02 -0.45770620990E+02  0.49445338528E+02  0.00000000000E+00 0. -1.
        -14    1    4    4    0    0  0.20920125510E+02  0.61566800616E+01 -0.84645300519E+03  0.84673386985E+03  0.00000000000E+00 0.  1.
</event>
<event>
12    1  0.8113184E-002  0.2099817E+03  0.7818608E-02  0.1141713E+00
         21   -1    0    0  503  502  0.00000000000E+00  0.00000000000E+00  0.42968025169E+03  0.42968025169E+03  0.00000000000E+00 0. -1.
         21   -1    0    0  501  503 -0.00000000000E+00 -0.00000000000E+00 -0.14848401453E+03  0.14848401453E+03  0.00000000000E+00 0. -1.
          6    2    1    2  501    0  0.11949640927E+03  0.14150646261E+01 -0.20487964293E+02  0.21097885222E+03  0.17265840601E+03 0.  0.
         24    2    3    3    0    0  0.10112504399E+03  0.45425215027E+02 -0.60799209793E+02  0.14835707554E+03  0.77611553708E+02 0.  0.
         -6    2    1    2    0  502 -0.11949640927E+03 -0.14150646261E+01  0.30168420145E+03  0.36718541399E+03  0.17184404734E+03 0.  0.
        -24    2    5    5    0    0 -0.36962560908E+02  0.30265356710E+02  0.64449724674E+02  0.11397054043E+03  0.80952420278E+02 0.  0.
          5    1    3    3  501    0  0.18371365280E+02 -0.44010150401E+02  0.40311245500E+02  0.62621776678E+02  0.47000000000E+01 0. -1.
        -13    1    4    4    0    0  0.57191989568E+02  0.16116208605E+02 -0.73028071323E+02  0.94147517502E+02  0.00000000000E+00 0.  1.
         14    1    4    4    0    0  0.43933054427E+02  0.29309006422E+02  0.12228861530E+02  0.54209558041E+02  0.00000000000E+00 0. -1.
         -5    1    5    5    0  502 -0.82533848366E+02 -0.31680421336E+02  0.23723447678E+03  0.25321487357E+03  0.47000000000E+01 0.  1.
         11    1    6    6    0    0 -0.56178466275E+02  0.78855412458E+01  0.62503153965E+02  0.84408803387E+02  0.00000000000E+00 0. -1.
        -12    1    6    6    0    0  0.19215905366E+02  0.22379815464E+02  0.19465707096E+01  0.29561737040E+02  0.00000000000E+00 0.  1.
</event>
<event>
12    1  0.8113184E-002  0.3591815E+03  0.7818608E-02  0.1058956E+00
         21   -1    0    0  501  502  0.00000000000E+00  0.00000000000E+00  0.55792786613E+03  0.55792786613E+03  0.00000000000E+00 0.  1.
         21   -1    0    0  502  503 -0.00000000000E+00 -0.00000000000E+00 -0.23092813971E+03  0.23092813971E+03  0.00000000000E+00 0. -1.
         -6    2    1    2    0  503  0.29672747318E+03  0.10143371552E+03  0.16183167379E+03  0.39351834277E+03  0.17415855841E+03 0.  0.
        -24    2    3    3    0    0  0.24534222508E+03  0.10661882617E+03  0.69919835335E+02  0.28798538515E+03  0.80538296399E+02 0.  0.
          6    2    1    2  501    0 -0.29672747318E+03 -0.10143371552E+03  0.16516805263E+03  0.39533766308E+03  0.17514391299E+03 0.  0.
         24    2    5    5    0    0 -0.72467849409E+02  0.82017454154E+01  0.36915716501E+02  0.11465445220E+03  0.80399101107E+02 0.  0.
          5    1    5    5  501    0 -0.22425962377E+03 -0.10963546093E+03  0.12825233613E+03  0.28068321088E+03  0.47000000000E+01 0. -1.
        -11    1    6    6    0    0 -0.22573747862E+02 -0.35954950743E+01  0.55576919503E+02  0.60094056768E+02  0.00000000000E+00 0.  1.
         12    1    6    6    0    0 -0.49894101547E+02  0.11797240490E+02 -0.18661203001E+02  0.54560395433E+02  0.00000000000E+00 0. -1.
         -5    1    3    3    0  503  0.51385248100E+02 -0.51851106494E+01  0.91911838456E+02  0.10553295762E+03  0.47000000000E+01 0.  1.
         13    1    4    4    0    0  0.51148993663E+02  0.37018815184E+02 -0.15006979217E+02  0.64898548948E+02  0.00000000000E+00 0. -1.
        -14    1    4    4    0    0  0.19419323142E+03  0.69600010983E+02  0.84926814553E+02  0.22308683620E+03  0.00000000000E+00 0.  1.
</event>
<event>
12    1  0.8113184E-002  0.1785019E+03  0.7818608E-02  0.1169417E+00
         21   -1    0    0  503  502  0.00000000000E+00  0.00000000000E+00  0.28529981670E+03  0.28529981670E+03  0.00000000000E+00 0.  1.
         21   -1    0    0  501  503 -0.00000000000E+00 -0.00000000000E+00 -0.13188962425E+03  0.13188962425E+03  0.00000000000E+00 0.  1.
          6    2    1    2  501    0 -0.28804921401E+02 -0.38753476992E+02 -0.58613198667E+01  0.17796079745E+03  0.17118450538E+03 0.  0.
         24    2    3    3    0    0  0.20037160144E+02 -0.15667886686E+01 -0.52848077479E+02  0.10051246558E+03  0.83101707747E+02 0.  0.
         -6    2    1    2    0  502  0.28804921401E+02  0.38753476992E+02  0.15927151232E+03  0.23922864351E+03  0.17184694866E+03 0.  0.
        -24    2    5    5    0    0  0.72043008409E+02  0.32482263514E+02  0.15995178298E+03  0.19528079880E+03  0.79402298433E+02 0.  0.
          5    1    3    3  501    0 -0.48842081545E+02 -0.37186688324E+02  0.46986757613E+02  0.77448331868E+02  0.47000000000E+01 0. -1.
        -11    1    4    4    0    0 -0.26109577504E+02  0.13347232609E+02 -0.74635795129E+00  0.29332843469E+02  0.00000000000E+00 0.  1.
         12    1    4    4    0    0  0.46146737649E+02 -0.14914021277E+02 -0.52101719528E+02  0.71179622112E+02  0.00000000000E+00 0. -1.
         -5    1    5    5    0  502 -0.43238087009E+02  0.62712134780E+01 -0.68027066276E+00  0.43947844712E+02  0.47000000000E+01 0.  1.
         13    1    6    6    0    0  0.13714639203E+02  0.44492768720E+02  0.10228924008E+03  0.11238677161E+03  0.00000000000E+00 0. -1.
        -14    1    6    6    0    0  0.58328369206E+02 -0.12010505205E+02  0.57662542902E+02  0.82894027187E+02  0.00000000000E+00 0.  1.
</event>
<event>
12    1  0.8113184E-002  0.2551918E+03  0.7818608E-02  0.1110163E+00
         21   -1    0    0  503  502  0.00000000000E+00  0.00000000000E+00  0.14510212415E+03  0.14510212415E+03  0.00000000000E+00 0.  1.
         21   -1    0    0  501  503 -0.00000000000E+00 -0.00000000000E+00 -0.45301839940E+03  0.45301839940E+03  0.00000000000E+00 0. -1.
          6    2    1    2  501    0 -0.45896446654E+02 -0.18294842757E+03 -0.18613733236E+03  0.31536100859E+03  0.17096446495E+03 0.  0.
         24    2    3    3    0    0  0.41231407772E+02 -0.93716505247E+02 -0.95730020494E+02  0.16125334811E+03  0.79721973832E+02 0.  0.
         -6    2    1    2    0  502  0.45896446654E+02  0.18294842757E+03 -0.12177894289E+03  0.28275951496E+03  0.17189014342E+03 0.  0.
        -24    2    5    5    0    0 -0.30335143742E+02  0.56826819215E+02 -0.24160335649E+02  0.10592796250E+03  0.80545037661E+02 0.  0.
          5    1    3    3  501    0 -0.87127854426E+02 -0.89231922323E+02 -0.90407311869E+02  0.15410766048E+03  0.47000000000E+01 0. -1.
        -11    1    4    4    0    0 -0.17554786619E+02 -0.29145449847E+02 -0.34366601762E+01  0.34197052697E+02  0.00000000000E+00 0.  1.
         12    1    4    4    0    0  0.58786194390E+02 -0.64571055400E+02 -0.92293360318E+02  0.12705629542E+03  0.00000000000E+00 0. -1.
         -5    1    5    5    0  502  0.76231590396E+02  0.12612160836E+03 -0.97618607242E+02  0.17683155247E+03  0.47000000000E+01 0.  1.
         13    1    6    6    0    0 -0.99860677731E+00  0.37387056447E+02 -0.49875901980E+02  0.62340956069E+02  0.00000000000E+00 0. -1.
        -14    1    6    6    0    0 -0.29336536965E+02  0.19439762768E+02  0.25715566330E+02  0.43587006427E+02  0.00000000000E+00 0.  1.
</event>
<event>
12    1  0.8113184E-002  0.1928521E+03  0.7818608E-02  0.1156065E+00
         21   -1    0    0  501  502  0.00000000000E+00  0.00000000000E+00  0.76080217051E+02  0.76080217051E+02  0.00000000000E+00 0.  1.
         21   -1    0    0  502  503 -0.00000000000E+00 -0.00000000000E+00 -0.76912779561E+03  0.76912779561E+03  0.00000000000E+00 0. -1.
         -6    2    1    2    0  503  0.58280557936E+02 -0.61363828143E+02 -0.91016469841E+02  0.21325088528E+03  0.17329108302E+03 0.  0.
        -24    2    3    3    0    0 -0.33346733038E+01 -0.58262046314E+02 -0.10961655740E+03  0.14864352480E+03  0.81691625790E+02 0.  0.
          6    2    1    2  501    0 -0.58280557936E+02  0.61363828143E+02 -0.60203110872E+03  0.63195712738E+03  0.17252887335E+03 0.  0.
         24    2    5    5    0    0  0.18541047590E+00 -0.31801435623E+02 -0.23341862431E+03  0.24725556837E+03  0.75097910983E+02 0.  0.
          5    1    5    5  501    0 -0.58465968412E+02  0.93165263766E+02 -0.36861248442E+03  0.38470155901E+03  0.47000000000E+01 0. -1.
        -11    1    6    6    0    0  0.27234393953E+01 -0.36836270069E+02 -0.23746181341E+03  0.24031737503E+03  0.00000000000E+00 0.  1.
         12    1    6    6    0    0 -0.25380289194E+01  0.50348344454E+01  0.40431891045E+01  0.69381933400E+01  0.00000000000E+00 0. -1.
         -5    1    3    3    0  503  0.61615231240E+02 -0.31017818288E+01  0.18600087555E+02  0.64607360481E+02  0.47000000000E+01 0.  1.
         11    1    4    4    0    0  0.11870558091E+02  0.18348460184E+02 -0.29966107705E+02  0.37088323654E+02  0.00000000000E+00 0. -1.
        -12    1    4    4    0    0 -0.15205231394E+02 -0.76610506498E+02 -0.79650449690E+02  0.11155520115E+03  0.00000000000E+00 0.  1.
</event>
<event>
12    1  0.8113184E-002  0.1880364E+03  0.7818608E-02  0.1160345E+00
         21   -1    0    0  503  502  0.00000000000E+00  0.00000000000E+00  0.15434352848E+03  0.15434352848E+03  0.00000000000E+00 0.  1.
         21   -1    0    0  501  503 -0.00000000000E+00 -0.00000000000E+00 -0.22875892351E+03  0.22875892351E+03  0.00000000000E+00 0.  1.
          6    2    1    2  501    0 -0.76257314074E+02  0.27384898761E+01 -0.31345286231E+02  0.19019648687E+03  0.17137531727E+03 0.  0.
         24    2    3    3    0    0  0.76729074097E+01  0.67836596849E+01 -0.56859078334E+02  0.10225509124E+03  0.84369765609E+02 0.  0.
         -6    2    1    2    0  502  0.76257314074E+02 -0.27384898761E+01 -0.43070108791E+02  0.19290596512E+03  0.17185749862E+03 0.  0.
        -24    2    5    5    0    0  0.10465464881E+03 -0.29971975313E+02 -0.60045679506E+02  0.14979759760E+03  0.83563878546E+02 0.  0.
          5    1    3    3  501    0 -0.83930221484E+02 -0.40451698088E+01  0.25513792103E+02  0.87941395626E+02  0.47000000000E+01 0. -1.
        -11    1    4    4    0    0 -0.26193296368E+02  0.23908087347E+02 -0.19622726292E+01  0.35518107059E+02  0.00000000000E+00 0.  1.
         12    1    4    4    0    0  0.33866203778E+02 -0.17124427662E+02 -0.54896805705E+02  0.66736984182E+02  0.00000000000E+00 0. -1.
         -5    1    5    5    0  502 -0.28397334739E+02  0.27233485437E+02  0.16975570715E+02  0.43108367522E+02  0.47000000000E+01 0.  1.
         11    1    6    6    0    0 -0.13586680410E+02  0.27268556165E+00  0.41265952293E+00  0.13595680559E+02  0.00000000000E+00 0. -1.
        -12    1    6    6    0    0  0.11824132922E+03 -0.30244660875E+02 -0.60458339028E+02  0.13620191704E+03  0.00000000000E+00 0.  1.
</event>
<event>
12    1  0.8113184E-002  0.2021084E+03  0.7818608E-02  0.1148015E+00
         21   -1    0    0  501  502  0.00000000000E+00  0.00000000000E+00  0.50348953729E+03  0.50348953729E+03  0.00000000000E+00 0. -1.
         21   -1    0    0  502  503 -0.00000000000E+00 -0.00000000000E+00 -0.20174888780E+03  0.20174888780E+03  0.00000000000E+00 0. -1.
         -6    2    1    2    0  503 -0.22839481824E+02 -0.10242261925E+03 -0.12184475439E+03  0.23599562622E+03  0.17273030007E+03 0.  0.
        -24    2    3    3    0    0 -0.78903782953E+02 -0.36305260095E+02 -0.70490016186E+02  0.13512883199E+03  0.75809497950E+02 0.  0.
          6    2    1    2  501    0  0.22839481824E+02  0.10242261925E+03  0.42358540388E+03  0.46924279886E+03  0.17248818812E+03 0.  0.
         24    2    5    5    0    0  0.72934922604E+02  0.25510643372E+02  0.23870680859E+03  0.26277926645E+03  0.78113421048E+02 0.  0.
          5    1    5    5  501    0 -0.50095440780E+02  0.76911975876E+02  0.18487859528E+03  0.20646353241E+03  0.47000000000E+01 0. -1.
        -11    1    6    6    0    0  0.47459245317E+02 -0.11396698323E+01  0.44381977072E+02  0.64987988907E+02  0.00000000000E+00 0.  1.
         12    1    6    6    0    0  0.25475677288E+02  0.26650313204E+02  0.19432483152E+03  0.19779127755E+03  0.00000000000E+00 0. -1.
         -5    1    3    3    0  503  0.56064301129E+02 -0.66117359153E+02 -0.51354738201E+02  0.10086679423E+03  0.47000000000E+01 0.  1.
         11    1    4    4    0    0 -0.85316681823E+02 -0.36263306558E+02 -0.35042227599E+02  0.99105606879E+02  0.00000000000E+00 0. -1.
        -12    1    4    4    0    0  0.64128988698E+01 -0.41953537448E-01 -0.35447788587E+02  0.36023225115E+02  0.00000000000E+00 0.  1.
</event>
<event>
12    1  0.8113184E-002  0.1996637E+03  0.7818608E-02  0.1150202E+00
         21   -1    0    0  501  502  0.00000000000E+00  0.00000000000E+00  0.66722702177E+02  0.66722702177E+02  0.00000000000E+00 0. -1.
         21   -1    0    0  502  503 -0.00000000000E+00 -0.00000000000E+00 -0.60156918329E+03  0.60156918329E+03  0.00000000000E+00 0. -1.
         -6    2    1    2    0  503  0.24727973361E+02 -0.97124788075E+02 -0.23295959262E+03  0.30681552192E+03  0.17268727682E+03 0.  0.
        -24    2    3    3    0    0  0.36072160547E+02 -0.12515231523E+03 -0.22973469394E+03  0.27604666051E+03  0.80370556835E+02 0.  0.
          6    2    1    2  501    0 -0.24727973361E+02  0.97124788075E+02 -0.30188688849E+03  0.36147636354E+03  0.17171130082E+03 0.  0.
         24    2    5    5    0    0  0.25255259904E+02  0.49129298082E+02 -0.26629272993E+03  0.28343198648E+03  0.79814515376E+02 0.  0.
          5    1    5    5  501    0 -0.49983233264E+02  0.47995489992E+02 -0.35594158568E+02  0.78044377064E+02  0.47000000000E+01 0. -1.
        -13    1    6    6    0    0  0.12516276965E+02 -0.20891706912E+02 -0.47908994504E+02  0.53743765788E+02  0.00000000000E+00 0.  1.
         14    1    6    6    0    0  0.12738982939E+02  0.70021004994E+02 -0.21838373542E+03  0.22968822069E+03  0.00000000000E+00 0. -1.
         -5    1    3    3    0  503 -0.11344187186E+02  0.28027527152E+02 -0.32248986782E+01  0.30768861413E+02  0.47000000000E+01 0.  1.
         13    1    4    4    0    0  0.28719317624E+02 -0.33511500738E+01 -0.64081799230E+02  0.70302961560E+02  0.00000000000E+00 0. -1.
        -14    1    4    4    0    0  0.73528429228E+01 -0.12180116515E+03 -0.16565289471E+03  0.20574369895E+03  0.00000000000E+00 0.  1.
</event>
<event>
12    1  0.8113184E-002  0.2558270E+03  0.7818608E-02  0.1109816E+00
         21   -1    0    0  503  502  0.00000000000E+00  0.00000000000E+00  0.18485916756E+04  0.18485916756E+04  0.00000000000E+00 0.  1.
         21   -1    0    0  501  503 -0.00000000000E+00 -0.00000000000E+00 -0.41335509245E+02  0.41335509245E+02  0.00000000000E+00 0.  1.
          6    2    1    2  501    0  0.96940025172E+02  0.16176281446E+03  0.54053860471E+03  0.59763433092E+03  0.17152327449E+03 0.  0.
         24    2    3    3    0    0  0.48997367101E+01  0.10464002384E+03  0.20162938588E+03  0.24180294316E+03  0.82708597269E+02 0.  0.
         -6    2    1    2    0  502 -0.96940025172E+02 -0.16176281446E+03  0.12667175616E+04  0.12922928539E+04  0.17286660377E+03 0.  0.
        -24    2    5    5    0    0 -0.58365967428E+02 -0.53029920480E+02  0.31901885068E+03  0.33758570672E+03  0.77280810489E+02 0.  0.
          5    1    3    3  501    0  0.92040288462E+02  0.57122790626E+02  0.33890921883E+03  0.35583138776E+03  0.47000000000E+01 0. -1.
        -13    1    4    4    0    0  0.91114778772E+01 -0.12007924976E+02  0.12631538646E+02  0.19666343328E+02  0.00000000000E+00 0.  1.
         14    1    4    4    0    0 -0.42117411671E+01  0.11664794881E+03  0.18899784724E+03  0.22213659983E+03  0.00000000000E+00 0. -1.
         -5    1    5    5    0  502 -0.38574057744E+02 -0.10873289398E+03  0.94769871097E+03  0.95470714721E+03  0.47000000000E+01 0.  1.
         11    1    6    6    0    0 -0.10293393379E+01 -0.15801395230E+02  0.55969832007E+01  0.16794935297E+02  0.00000000000E+00 0. -1.
        -12    1    6    6    0    0 -0.57336628091E+02 -0.37228525250E+02  0.31342186748E+03  0.32079077142E+03  0.00000000000E+00 0.  1.
</event>
<event>
12    1  0.8113184E-002  0.1882919E+03  0.7818608E-02  0.1160153E+00
         21   -1    0    0  503  502  0.00000000000E+00  0.00000000000E+00  0.93972158752E+03  0.93972158752E+03  0.00000000000E+00 0.  1.
         21   -1    0    0  501  503 -0.00000000000E+00 -0.00000000000E+00 -0.18106719630E+03  0.18106719630E+03  0.00000000000E+00 0.  1.
          6    2    1    2  501    0  0.43618786892E+02  0.58182654530E+02 -0.11962439643E+03  0.22255303413E+03  0.17300877701E+03 0.  0.
         24    2    3    3    0    0  0.44223490366E+02  0.10112279449E+03 -0.11512401581E+03  0.17911843143E+03  0.81537333759E+02 0.  0.
         -6    2    1    2    0  502 -0.43618786892E+02 -0.58182654530E+02  0.87827878765E+03  0.89823574969E+03  0.17368365881E+03 0.  0.
        -24    2    5    5    0    0 -0.19933308228E+02  0.32901618432E+02  0.54315807408E+03  0.55011891680E+03  0.78296078519E+02 0.  0.
          5    1    3    3  501    0 -0.60470347445E+00 -0.42940139958E+02 -0.45003806191E+01  0.43434602699E+02  0.47000000000E+01 0. -1.
        -13    1    4    4    0    0 -0.20932223338E+02  0.50641632700E+02 -0.46369853594E+02  0.71783676827E+02  0.00000000000E+00 0.  1.
         14    1    4    4    0    0  0.65155713704E+02  0.50481161788E+02 -0.68754162216E+02  0.10733475460E+03  0.00000000000E+00 0. -1.
         -5    1    5    5    0  502 -0.23685478664E+02 -0.91084272963E+02  0.33512071357E+03  0.34811683289E+03  0.47000000000E+01 0.  1.
         11    1    6    6    0    0 -0.12776966934E+02  0.19425235677E+02  0.36791311502E+02  0.43522307695E+02  0.00000000000E+00 0. -1.
        -12    1    6    6    0    0 -0.71563412934E+01  0.13476382756E+02  0.50636676258E+03  0.50659660910E+03  0.00000000000E+00 0.  1.
</event>
<event>
12    1  0.8113184E-002  0.2474669E+03  0.7818608E-02  0.1114937E+00
         21   -1    0    0  501  502  0.00000000000E+00  0.00000000000E+00  0.17065378123E+03  0.17065378123E+03  0.00000000000E+00 0. -1.
         21   -1    0    0  502  503 -0.00000000000E+00 -0.00000000000E+00 -0.11218091638E+04  0.11218091638E+04  0.00000000000E+00 0. -1.
         -6    2    1    2    0  503  0.52403922590E+02 -0.17066647306E+03 -0.10085429802E+04  0.10384291156E+04  0.17118080851E+03 0.  0.
        -24    2    3    3    0    0 -0.21931640938E+02 -0.12230195581E+03 -0.76762481698E+03  0.78166355351E+03  0.79443602480E+02 0.  0.
          6    2    1    2  501    0 -0.52403922590E+02  0.17066647306E+03  0.57387597611E+02  0.25403382939E+03  0.17136695710E+03 0.  0.
         24    2    5    5    0    0 -0.38074732169E+01  0.57044789515E+02 -0.33283987436E+02  0.10068804954E+03  0.75905563938E+02 0.  0.
          5    1    5    5  501    0 -0.48596449373E+02  0.11362168354E+03  0.90671585047E+02  0.15334577985E+03  0.47000000000E+01 0. -1.
        -11    1    6    6    0    0 -0.15961768052E+02  0.73138494592E+02 -0.26257474949E+02  0.79331408794E+02  0.00000000000E+00 0.  1.
         12    1    6    6    0    0  0.12154294835E+02 -0.16093705077E+02 -0.70265124866E+01  0.21356640742E+02  0.00000000000E+00 0. -1.
         -5    1    3    3    0  503  0.74335563528E+02 -0.48364517249E+02 -0.24091816318E+03  0.25676556211E+03  0.47000000000E+01 0.  1.
         13    1    4    4    0    0  0.22515666629E+02 -0.80977836441E+02 -0.36944386998E+03  0.37888406974E+03  0.00000000000E+00 0. -1.
        -14    1    4    4    0    0 -0.44447307567E+02 -0.41324119370E+02 -0.39818094700E+03  0.40277948377E+03  0.00000000000E+00 0.  1.
</event>
<event>
12    1  0.8113184E-002  0.1834786E+03  0.7818608E-02  0.1164933E+00
         21   -1    0    0  503  502  0.00000000000E+00  0.00000000000E+00  0.12479050208E+04  0.12479050208E+04  0.00000000000E+00 0. -1.
         21   -1    0    0  501  503 -0.00000000000E+00 -0.00000000000E+00 -0.30304114082E+02  0.30304114082E+02  0.00000000000E+00 0. -1.
          6    2    1    2  501    0  0.42457627571E+02 -0.46187970475E+02  0.39108157331E+03  0.43198286770E+03  0.17241932099E+03 0.  0.
         24    2    3    3    0    0  0.40303394759E+02  0.19628390285E+02  0.10214456814E+03  0.13559947239E+03  0.77097774138E+02 0.  0.
         -6    2    1    2    0  502 -0.42457627571E+02  0.46187970475E+02  0.82651933336E+03  0.84622626713E+03  0.17037813241E+03 0.  0.
        -24    2    5    5    0    0 -0.88017241878E+02  0.20538641330E+02  0.67866915953E+03  0.68933353166E+03  0.80125021796E+02 0.  0.
          5    1    3    3  501    0  0.21542328118E+01 -0.65816360760E+02  0.28893700517E+03  0.29638339531E+03  0.47000000000E+01 0. -1.
        -13    1    4    4    0    0  0.34404393014E+02  0.46666891854E+02  0.85503905302E+02  0.10330720631E+03  0.00000000000E+00 0.  1.
         14    1    4    4    0    0  0.58990017457E+01 -0.27038501569E+02  0.16640662838E+02  0.32292266077E+02  0.00000000000E+00 0. -1.
         -5    1    5    5    0  502  0.45559614307E+02  0.25649329146E+02  0.14785017383E+03  0.15689273547E+03  0.47000000000E+01 0.  1.
         11    1    6    6    0    0 -0.96786579020E+02  0.35741697958E+02  0.57221252174E+03  0.58143983428E+03  0.00000000000E+00 0. -1.
        -12    1    6    6    0    0  0.87693371422E+01 -0.15203056628E+02  0.10645663779E+03  0.10789369738E+03  0.00000000000E+00 0.  1.
</event>
<event>
12    1  0.8113184E-002  0.2311031E+03  0.7818608E-02  0.1125868E+00
         21   -1    0    0  501  502  0.00000000000E+00  0.00000000000E+00  0.23771207241E+03  0.23771207241E+03  0.00000000000E+00 0.  1.
         21   -1    0    0  502  503 -0.00000000000E+00 -0.00000000000E+00 -0.23344132157E+03  0.23344132157E+03  0.00000000000E+00 0. -1.
         -6    2    1    2    0  503  0.14075868441E+03 -0.62957290155E+02 -0.43536242507E+02  0.23515728771E+03  0.17212471621E+03 0.  0.
        -24    2    3    3    0    0  0.15301721936E+03 -0.44798664755E+02 -0.77554603754E+02  0.19442221366E+03  0.79775251914E+02 0.  0.
          6    2    1    2  501    0 -0.14075868441E+03  0.62957290155E+02  0.47806993350E+02  0.23599610627E+03  0.17213955368E+03 0.  0.
         24    2    5    5    0    0 -0.27105166495E+02 -0.12250322031E+02 -0.13291540331E+02  0.86569107762E+02  0.80204644091E+02 0.  0.
          5    1    5    5  501    0 -0.11365351791E+03  0.75207612186E+02  0.61098533681E+02  0.14942699851E+03  0.47000000000E+01 0. -1.
        -11    1    6    6    0    0 -0.41696212994E+02 -0.20874706812E+02  0.18799760096E+02  0.50276819134E+02  0.00000000000E+00 0.  1.
         12    1    6    6    0    0  0.14591046499E+02  0.86243847807E+01 -0.32091300427E+02  0.36292288628E+02  0.00000000000E+00 0. -1.
         -5    1    3    3    0  503 -0.12258534949E+02 -0.18158625400E+02  0.34018361247E+02  0.40735074045E+02  0.47000000000E+01 0.  1.
         13    1    4    4    0    0  0.63645315582E+02  0.15486806418E+02 -0.76737427664E+01  0.65950388146E+02  0.00000000000E+00 0. -1.
        -14    1    4    4    0    0  0.89371903775E+02 -0.60285471173E+02 -0.69880860987E+02  0.12847182552E+03  0.00000000000E+00 0.  1.
</event>
<event>
12    1  0.8113184E-002  0.1744573E+03  0.7818608E-02  0.1173425E+00
         21   -1    0    0  501  502  0.00000000000E+00  0.00000000000E+00  0.46813399731E+02  0.46813399731E+02  0.00000000000E+00 0. -1.
         21   -1    0    0  502  503 -0.00000000000E+00 -0.00000000000E+00 -0.90682505225E+03  0.90682505225E+03  0.00000000000E+00 0. -1.
         -6    2    1    2    0  503  0.30524613535E+02 -0.71332456909E+01 -0.68424557604E+03  0.70599141513E+03  0.17102407635E+03 0.  0.
        -24    2    3    3    0    0  0.80887622704E+01 -0.16382883363E+02 -0.15138408703E+03  0.17255690211E+03  0.80776950410E+02 0.  0.
          6    2    1    2  501    0 -0.30524613535E+02  0.71332456909E+01 -0.17576607648E+03  0.24764703685E+03  0.17161790697E+03 0.  0.
         24    2    5    5    0    0 -0.61311564886E+02  0.23741918604E+02 -0.18410446875E+03  0.21137992812E+03  0.80400447213E+02 0.  0.
          5    1    5    5  501    0  0.30786951351E+02 -0.16608672913E+02  0.83383922691E+01  0.36267108722E+02  0.47000000000E+01 0. -1.
        -13    1    6    6    0    0 -0.24939630147E+02 -0.19504388210E+02 -0.12759523157E+03  0.13146463187E+03  0.00000000000E+00 0.  1.
         14    1    6    6    0    0 -0.36371934739E+02  0.43246306813E+02 -0.56509237175E+02  0.79915296257E+02  0.00000000000E+00 0. -1.
         -5    1    3    3    0  503  0.22435851264E+02  0.92496376724E+01 -0.53286148901E+03  0.53343451302E+03  0.47000000000E+01 0.  1.
         13    1    4    4    0    0  0.38543779955E+02 -0.26045604785E+02 -0.61150450840E+02  0.76833418118E+02  0.00000000000E+00 0. -1.
        -14    1    4    4    0    0 -0.30455017685E+02  0.96627214217E+01 -0.90233636189E+02  0.95723483990E+02  0.00000000000E+00 0.  1.
</event>
<event>
12    1  0.8113184E-002  0.2722801E+03  0.7818608E-02  0.1100057E+00
         21   -1    0    0  503  502  0.00000000000E+00  0.00000000000E+00  0.17711536713E+03  0.17711536713E+03  0.00000000000E+00 0.  1.
         21   -1    0    0  501  503 -0.00000000000E+00 -0.00000000000E+00 -0.45954595850E+03  0.45954595850E+03  0.00000000000E+00 0. -1.
          6    2    1    2  501    0  0.19451487303E+03 -0.75723121633E+02 -0.23733276197E+03  0.36119701257E+03  0.17483253417E+03 0.  0.
         24    2    3    3    0    0  0.34313315203E+02  0.12714778446E+02 -0.78123860235E+02  0.11859576424E+03  0.81379042548E+02 0.  0.
         -6    2    1    2    0  502 -0.19451487303E+03  0.75723121633E+02 -0.45097829402E+02  0.27546431306E+03  0.17400214531E+03 0.  0.
        -24    2    5    5    0    0 -0.11210403773E+03  0.10391809108E+03  0.86875294152E+01  0.17298769670E+03  0.80516986486E+02 0.  0.
          5    1    3    3  501    0  0.16020155783E+03 -0.88437900079E+02 -0.15920890174E+03  0.24260124833E+03  0.47000000000E+01 0. -1.
        -13    1    4    4    0    0  0.23644062040E+02 -0.91707226478E+01  0.99320066333E+01  0.27235795920E+02  0.00000000000E+00 0.  1.
         14    1    4    4    0    0  0.10669253163E+02  0.21885501093E+02 -0.88055866868E+02  0.91359968318E+02  0.00000000000E+00 0. -1.
         -5    1    5    5    0  502 -0.82410835304E+02 -0.28194969450E+02 -0.53785358818E+02  0.10247661636E+03  0.47000000000E+01 0.  1.
         13    1    6    6    0    0 -0.24606321630E+00  0.19521647381E+02 -0.22133287352E+02  0.29513347363E+02  0.00000000000E+00 0. -1.
        -14    1    6    6    0    0 -0.11185797451E+03  0.84396443702E+02  0.30820816767E+02  0.14347434933E+03  0.00000000000E+00 0.  1.
</event>
<event>
12    1  0.8113184E-002  0.2138787E+03  0.7818608E-02  0.1138606E+00
         21   -1    0    0  501  502  0.00000000000E+00  0.00000000000E+00  0.55642152687E+03  0.55642152687E+03  0.00000000000E+00 0. -1.
         21   -1    0    0  502  503 -0.00000000000E+00 -0.00000000000E+00 -0.95805200011E+02  0.95805200011E+02  0.00000000000E+00 0.  1.
         -6    2    1    2    0  503  0.43540797158E+02  0.11767986250E+03  0.10696964782E+03  0.23913719454E+03  0.17320433367E+03 0.  0.
        -24    2    3    3    0    0  0.24540048748E+02  0.94777548060E+02 -0.28316954297E+01  0.12527776618E+03  0.78112115522E+02 0.  0.
          6    2    1    2  501    0 -0.43540797158E+02 -0.11767986250E+03  0.35364667904E+03  0.41308953234E+03  0.17272126991E+03 0.  0.
         24    2    5    5    0    0 -0.85820810959E+02 -0.63954839659E+02  0.15291207513E+03  0.20098001145E+03  0.74534751437E+02 0.  0.
          5    1    5    5  501    0  0.42280013801E+02 -0.53725022845E+02  0.20073460391E+03  0.21210952089E+03  0.47000000000E+01 0. -1.
        -13    1    6    6    0    0  0.97958989646E+01 -0.10117256524E+01  0.36132957369E+02  0.37450952372E+02  0.00000000000E+00 0.  1.
         14    1    6    6    0    0 -0.95616709924E+02 -0.62943114007E+02  0.11677911776E+03  0.16352905908E+03  0.00000000000E+00 0. -1.
         -5    1    3    3    0  503  0.19000748410E+02  0.22902314444E+02  0.10980134325E+03  0.11385942836E+03  0.47000000000E+01 0.  1.
         13    1    4    4    0    0  0.43703534713E+02  0.22584674426E+02  0.78775553390E+01  0.49820902676E+02  0.00000000000E+00 0. -1.
        -14    1    4    4    0    0 -0.19163485965E+02  0.72192873634E+02 -0.10709250769E+02  0.75456863504E+02  0.00000000000E+00 0.  1.
</event>
<event>
12    1  0.8113184E-002  0.2075943E+03  0.7818608E-02  0.1143671E+00
         21   -1    0    0  503  502  0.00000000000E+00  0.00000000000E+00  0.11429980774E+03  0.11429980774E+03  0.00000000000E+00 0. -1.
         21   -1    0    0  501  503 -0.00000000000E+00 -0.00000000000E+00 -0.37640061721E+03  0.37640061721E+03  0.00000000000E+00 0.  1.
          6    2    1    2  501    0 -0.11625807651E+03 -0.67238251114E+00 -0.14423262071E+03  0.25278138733E+03  0.17198543093E+03 0.  0.
         24    2    3    3    0    0 -0.72819948142E+02 -0.48779950552E+01 -0.73394925559E+01  0.10902333814E+03  0.80657798287E+02 0.  0.
         -6    2    1    2    0  502  0.11625807651E+03  0.67238251114E+00 -0.11786818876E+03  0.23791903762E+03  0.17086885641E+03 0.  0.
        -24    2    5    5    0    0  0.95035074862E+01 -0.19810285693E+02 -0.14746529767E+02  0.88011585314E+02  0.83939352723E+02 0.  0.
          5    1    3    3  501    0 -0.43438128370E+02  0.42056125440E+01 -0.13689312815E+03  0.14375804919E+03  0.47000000000E+01 0. -1.
        -13    1    4    4    0    0  0.39692184213E+01 -0.16699722698E+02 -0.24055427852E+02  0.29551633495E+02  0.00000000000E+00 0.  1.
         14    1    4    4    0    0 -0.76789166564E+02  0.11821727643E+02  0.16715935297E+02  0.79471704643E+02  0.00000000000E+00 0. -1.
         -5    1    5    5    0  502  0.10675456903E+03  0.20482668204E+02 -0.10312165899E+03  0.14990745231E+03  0.47000000000E+01 0.  1.
         11    1    6    6    0    0  0.31059421492E+00 -0.52637870081E+02 -0.76744342976E+01  0.53195289051E+02  0.00000000000E+00 0. -1.
        -12    1    6    6    0    0  0.91929132713E+01  0.32827584388E+02 -0.70720954693E+01  0.34816296263E+02  0.00000000000E+00 0.  1.
</event>
<event>
12    1  0.8113184E-002  0.1863259E+03  0.7818608E-02  0.1165338E+00
         21   -1    0    0  501  502  0.00000000000E+00  0.00000000000E+00  0.20346082898E+03  0.20346082898E+03  0.00000000000E+00 0.  1.
         21   -1    0    0  502  503 -0.00000000000E+00 -0.00000000000E+00 -0.66113929300E+03  0.66113929300E+03  0.00000000000E+00 0.  1.
         -6    2    1    2    0  503 -0.26933307115E+01 -0.41729206198E+01 -0.60383719069E+03  0.62778858566E+03  0.17168135639E+03 0.  0.
        -24    2    3    3    0    0 -0.31447058445E+02  0.34271662631E+02 -0.19386670199E+03  0.21499002165E+03  0.80454626517E+02 0.  0.
          6    2    1    2  501    0  0.26933307115E+01  0.41729206198E+01  0.14615872667E+03  0.23681153633E+03  0.18625966568E+03 0.  0.
         24    2    5    5    0    0 -0.38705368993E+02 -0.31207281564E+02  0.15565619516E+02  0.95240844868E+02  0.79727849643E+02 0.  0.
          5    1    5    5  501    0  0.41398699704E+02  0.35380202184E+02  0.13059310715E+03  0.14157069146E+03  0.47000000000E+01 0. -1.
        -13    1    6    6    0    0 -0.14594904139E+02 -0.46930003251E+02  0.35152564534E+02  0.60424657428E+02  0.00000000000E+00 0.  1.
         14    1    6    6    0    0 -0.24110464853E+02  0.15722721687E+02 -0.19586945018E+02  0.34816187440E+02  0.00000000000E+00 0. -1.
         -5    1    3    3    0  503  0.28753727733E+02 -0.38444583251E+02 -0.40997048870E+03  0.41279856401E+03  0.47000000000E+01 0.  1.
         11    1    4    4    0    0  0.14316675146E+02  0.41443197518E+02 -0.68416811031E+02  0.81261096715E+02  0.00000000000E+00 0. -1.
        -12    1    4    4    0    0 -0.45763733590E+02 -0.71715348876E+01 -0.12544989096E+03  0.13372892494E+03  0.00000000000E+00 0.  1.
</event>
<event>
12    1  0.8113184E-002  0.1999229E+03  0.7818608E-02  0.1150379E+00
         21   -1    0    0  503  502  0.00000000000E+00  0.00000000000E+00  0.72320880737E+03  0.72320880737E+03  0.00000000000E+00 0.  1.
         21   -1    0    0  501  503 -0.00000000000E+00 -0.00000000000E+00 -0.58960970144E+02  0.58960970144E+02  0.00000000000E+00 0.  1.
          6    2    1    2  501    0  0.84632197211E+00  0.10066477627E+03  0.22690631682E+03  0.30241633410E+03  0.17272825210E+03 0.  0.
         24    2    3    3    0    0  0.54627070355E+02  0.58082250861E+02  0.74282640543E+02  0.13501944964E+03  0.79716224282E+02 0.  0.
         -6    2    1    2    0  502 -0.84632197211E+00 -0.10066477627E+03  0.43734152040E+03  0.47975344341E+03  0.16959259287E+03 0.  0.
        -24    2    5    5    0    0 -0.26531228545E+02 -0.50370105340E+02  0.10744988681E+03  0.14502990336E+03  0.79038858126E+02 0.  0.
          5    1    3    3  501    0 -0.53780748383E+02  0.42582525408E+02  0.15262367628E+03  0.16739688446E+03  0.47000000000E+01 0. -1.
        -13    1    4    4    0    0 -0.12429168473E+01  0.56540362734E+02  0.32407143783E+02  0.65181135527E+02  0.00000000000E+00 0.  1.
         14    1    4    4    0    0  0.55869987202E+02  0.15418881270E+01  0.41875496761E+02  0.69838314111E+02  0.00000000000E+00 0. -1.
         -5    1    5    5    0  502  0.25684906573E+02 -0.50294670929E+02  0.32989163359E+03  0.33472354005E+03  0.47000000000E+01 0.  1.
         13    1    6    6    0    0 -0.42724447303E+01  0.21615524098E+02  0.22945717204E+02  0.31811799760E+02  0.00000000000E+00 0. -1.
        -14    1    6    6    0    0 -0.22258783814E+02 -0.71985629437E+02  0.84504169604E+02  0.11321810360E+03  0.00000000000E+00 0.  1.
</event>
<event>
12    1  0.8113184E-002  0.1881763E+03  0.7818608E-02  0.1160136E+00
         21   -1    0    0  501  502  0.00000000000E+00  0.00000000000E+00  0.91701264688E+03  0.91701264688E+03  0.00000000000E+00 0.  1.
         21   -1    0    0  502  503 -0.00000000000E+00 -0.00000000000E+00 -0.54122562739E+02  0.54122562739E+02  0.00000000000E+00 0.  1.
         -6    2    1    2    0  503  0.64530218657E+02  0.40745219963E+02  0.17131235297E+03  0.25441346264E+03  0.17191266860E+03 0.  0.
        -24    2    3    3    0    0  0.99520474758E+02 -0.83445603410E+01  0.11320479971E+03  0.17055225410E+03  0.79364904825E+02 0.  0.
          6    2    1    2  501    0 -0.64530218657E+02 -0.40745219963E+02  0.69157773117E+03  0.71672174697E+03  0.17200576231E+03 0.  0.
         24    2    5    5    0    0 -0.20378104240E+02 -0.11303616958E+02  0.14688859172E+03  0.16943337159E+03  0.81168775662E+02 0.  0.
          5    1    5    5  501    0 -0.44152114417E+02 -0.29441603005E+02  0.54468913945E+03  0.54728837538E+03  0.47000000000E+01 0. -1.
        -13    1    6    6    0    0  0.22333439356E+02  0.41749475622E+01  0.10569110016E+03  0.10810560278E+03  0.00000000000E+00 0.  1.
         14    1    6    6    0    0 -0.42711543596E+02 -0.15478564520E+02  0.41197491562E+02  0.61327768808E+02  0.00000000000E+00 0. -1.
         -5    1    3    3    0  503 -0.34990256101E+02  0.49089780304E+02  0.58107553258E+02  0.83861208541E+02  0.47000000000E+01 0.  1.
         11    1    4    4    0    0  0.55276284403E+02  0.35141994832E+02  0.59860006021E+02  0.88733577292E+02  0.00000000000E+00 0. -1.
        -12    1    4    4    0    0  0.44244190355E+02 -0.43486555173E+02  0.53344793691E+02  0.81818676810E+02  0.00000000000E+00 0.  1.
</event>
<event>
12    1  0.8113184E-002  0.2052226E+03  0.7818608E-02  0.1145618E+00
         21   -1    0    0  501  502  0.00000000000E+00  0.00000000000E+00  0.24835972503E+02  0.24835972503E+02  0.00000000000E+00 0.  1.
         21   -1    0    0  502  503 -0.00000000000E+00 -0.00000000000E+00 -0.19809572823E+04  0.19809572823E+04  0.00000000000E+00 0.  1.
         -6    2    1    2    0  503 -0.11488996174E+02  0.11093705815E+03 -0.13621297124E+04  0.13773488739E+04  0.17103666048E+03 0.  0.
        -24    2    3    3    0    0  0.11931563880E+02  0.95428043307E+02 -0.13231721355E+04  0.13290908697E+04  0.80306700156E+02 0.  0.
          6    2    1    2  501    0  0.11488996174E+02 -0.11093705815E+03 -0.59399159742E+03  0.62844438089E+03  0.17227099048E+03 0.  0.
         24    2    5    5    0    0 -0.31962604036E+02 -0.21646010842E+02 -0.16150375112E+03  0.18467782076E+03  0.80822509322E+02 0.  0.
          5    1    5    5  501    0  0.43451600210E+02 -0.89291047311E+02 -0.43248784630E+03  0.44376656013E+03  0.47000000000E+01 0. -1.
        -11    1    6    6    0    0  0.16053823381E+02 -0.33769500400E+02 -0.92242144089E+02  0.99532494938E+02  0.00000000000E+00 0.  1.
         12    1    6    6    0    0 -0.48016427418E+02  0.12123489559E+02 -0.69261607030E+02  0.85145325823E+02  0.00000000000E+00 0. -1.
         -5    1    3    3    0  503 -0.23420560054E+02  0.15509014845E+02 -0.38957576883E+02  0.48258004220E+02  0.47000000000E+01 0.  1.
         13    1    4    4    0    0 -0.23470518979E+02 -0.40461370831E-01 -0.24862234967E+03  0.24972773104E+03  0.00000000000E+00 0. -1.
        -14    1    4    4    0    0  0.35402082859E+02  0.95468504678E+02 -0.10745497858E+04  0.10793631386E+04  0.00000000000E+00 0.  1.
</event>
<event>
12    1  0.8113184E-002  0.3169008E+03  0.7818608E-02  0.1077171E+00
         21   -1    0    0  503  502  0.00000000000E+00  0.00000000000E+00  0.13495347365E+03  0.13495347365E+03  0.00000000000E+00 0. -1.
         21   -1    0    0  501  503 -0.00000000000E+00 -0.00000000000E+00 -0.90508424379E+03  0.90508424379E+03  0.00000000000E+00 0.  1.
          6    2    1    2  501    0 -0.17646108412E+03 -0.19914474422E+03 -0.60589321457E+03  0.68376362375E+03  0.17213065486E+03 0.  0.
         24    2    3    3    0    0 -0.18944573545E+03 -0.17323912063E+03 -0.44098148210E+03  0.51625937900E+03  0.78470371803E+02 0.  0.
         -6    2    1    2    0  502  0.17646108412E+03  0.19914474422E+03 -0.16423755557E+03  0.35627409369E+03  0.17076332105E+03 0.  0.
        -24    2    5    5    0    0  0.50978059177E+02  0.50929539104E+02 -0.96814548804E+01  0.10803345472E+03  0.79905671262E+02 0.  0.
          5    1    3    3  501    0  0.12984651327E+02 -0.25905623589E+02 -0.16491173247E+03  0.16750424475E+03  0.47000000000E+01 0. -1.
        -13    1    4    4    0    0 -0.14212004799E+02 -0.25008302355E+02 -0.10851640764E+03  0.11226400578E+03  0.00000000000E+00 0.  1.
         14    1    4    4    0    0 -0.17523373065E+03 -0.14823081828E+03 -0.33246507446E+03  0.40399537322E+03  0.00000000000E+00 0. -1.
         -5    1    5    5    0  502  0.12548302495E+03  0.14821520512E+03 -0.15455610068E+03  0.24824063897E+03  0.47000000000E+01 0.  1.
         11    1    6    6    0    0  0.67120487989E+02  0.56082738401E+02 -0.17775268084E+02  0.89254655956E+02  0.00000000000E+00 0. -1.
        -12    1    6    6    0    0 -0.16142428812E+02 -0.51531992966E+01  0.80938132039E+01  0.18778798766E+02  0.00000000000E+00 0.  1.
</event>
<event>
12    1  0.8113184E-002  0.1755810E+03  0.7818608E-02  0.1175487E+00
         21   -1    0    0  501  502  0.00000000000E+00  0.00000000000E+00  0.83311692679E+03  0.83311692679E+03  0.00000000000E+00 0. -1.
         21   -1    0    0  502  503 -0.00000000000E+00 -0.00000000000E+00 -0.37239481809E+02  0.37239481809E+02  0.00000000000E+00 0. -1.
         -6    2    1    2    0  503 -0.69910042967E+01  0.49886427404E+02  0.26290252937E+03  0.30920495482E+03  0.15476574025E+03 0.  0.
        -24    2    3    3    0    0 -0.12671561439E+02  0.72132101171E+02  0.12686741327E+03  0.17116589678E+03  0.88537083662E+02 0.  0.
          6    2    1    2  501    0  0.69910042967E+01 -0.49886427404E+02  0.53297491562E+03  0.56115145378E+03  0.16819977297E+03 0.  0.
         24    2    5    5    0    0  0.12744890655E+02 -0.95709465165E+02  0.31424532686E+03  0.33755006516E+03  0.76597565727E+02 0.  0.
          5    1    5    5  501    0 -0.57538863587E+01  0.45823037761E+02  0.21872958876E+03  0.22360138863E+03  0.47000000000E+01 0. -1.
        -13    1    6    6    0    0 -0.70454064883E+00 -0.68477732041E+00 -0.45330580714E+01  0.46383092807E+01  0.00000000000E+00 0.  1.
         14    1    6    6    0    0  0.13449431304E+02 -0.95024687844E+02  0.31877838493E+03  0.33291175587E+03  0.00000000000E+00 0. -1.
         -5    1    3    3    0  503  0.56805571423E+01 -0.22245673767E+02  0.13603511610E+03  0.13803905804E+03  0.47000000000E+01 0.  1.
         13    1    4    4    0    0 -0.49548713518E+02  0.41100500959E+02  0.55211874107E+02  0.84809652946E+02  0.00000000000E+00 0. -1.
        -14    1    4    4    0    0  0.36877152079E+02  0.31031600212E+02  0.71655539158E+02  0.86356243835E+02  0.00000000000E+00 0.  1.
</event>
<event>
12    1  0.8113184E-002  0.2157633E+03  0.7818608E-02  0.1137207E+00
         21   -1    0    0  501  502  0.00000000000E+00  0.00000000000E+00  0.81156769210E+03  0.81156769210E+03  0.00000000000E+00 0. -1.
         21   -1    0    0  502  503 -0.00000000000E+00 -0.00000000000E+00 -0.88925939362E+02  0.88925939362E+02  0.00000000000E+00 0.  1.
         -6    2    1    2    0  503  0.10612023723E+03 -0.73218863087E+02  0.92694930315E+02  0.23483221024E+03  0.17300667674E+03 0.  0.
        -24    2    3    3    0    0 -0.12615976011E+02 -0.65787470859E+01  0.41322104585E+02  0.89228465029E+02  0.77793058046E+02 0.  0.
          6    2    1    2  501    0 -0.10612023723E+03  0.73218863087E+02  0.62994682243E+03  0.66566142123E+03  0.17219065586E+03 0.  0.
         24    2    5    5    0    0 -0.88996895599E+01  0.27569265918E+02  0.13477656841E+03  0.15895500616E+03  0.79137233292E+02 0.  0.
          5    1    5    5  501    0 -0.97220547668E+02  0.45649597169E+02  0.49517025401E+03  0.50670641507E+03  0.47000000000E+01 0. -1.
        -11    1    6    6    0    0  0.19714131371E+01 -0.26440414569E+02  0.63917543001E+02  0.69198513680E+02  0.00000000000E+00 0.  1.
         12    1    6    6    0    0 -0.10871102697E+02  0.54009680486E+02  0.70859025412E+02  0.89756492481E+02  0.00000000000E+00 0. -1.
         -5    1    3    3    0  503  0.11873621324E+03 -0.66640116001E+02  0.51372825730E+02  0.14560374521E+03  0.47000000000E+01 0.  1.
         11    1    4    4    0    0  0.37329121218E+01 -0.18851720789E+01  0.62176568908E+02  0.62317046045E+02  0.00000000000E+00 0. -1.
        -12    1    4    4    0    0 -0.16348888133E+02 -0.46935750071E+01 -0.20854464323E+02  0.26911418984E+02  0.00000000000E+00 0.  1.
</event>
<event>
12    1  0.8113184E-002  0.2227891E+03  0.7818608E-02  0.1132456E+00
         21   -1    0    0  503  502  0.00000000000E+00  0.00000000000E+00  0.24374451584E+03  0.24374451584E+03  0.00000000000E+00 0. -1.
         21   -1    0    0  501  503 -0.00000000000E+00 -0.00000000000E+00 -0.32599209096E+03  0.32599209096E+03  0.00000000000E+00 0.  1.
          6    2    1    2  501    0  0.13626892015E+03 -0.24988195190E+02 -0.21805820387E+03  0.31174410130E+03  0.17447457100E+03 0.  0.
         24    2    3    3    0    0  0.70355575730E+02  0.34447153511E+02 -0.51722665566E+02  0.12315266208E+03  0.79717191508E+02 0.  0.
         -6    2    1    2    0  502 -0.13626892015E+03  0.24988195190E+02  0.13581062875E+03  0.25799250550E+03  0.17006462747E+03 0.  0.
        -24    2    5    5    0    0 -0.75767379604E+02 -0.50870017517E+02  0.86621707800E+02  0.14910474316E+03  0.80002810427E+02 0.  0.
          5    1    3    3  501    0  0.65913344420E+02 -0.59435348702E+02 -0.16633553830E+03  0.18859143923E+03  0.47000000000E+01 0. -1.
        -13    1    4    4    0    0  0.36563487036E+02  0.32242312073E+02 -0.69510731494E+02  0.84901101670E+02  0.00000000000E+00 0.  1.
         14    1    4    4    0    0  0.33792088694E+02  0.22048414384E+01  0.17788065927E+02  0.38251560406E+02  0.00000000000E+00 0. -1.
         -5    1    5    5    0  502 -0.60501540547E+02  0.75858212708E+02  0.49188920948E+02  0.10888776234E+03  0.47000000000E+01 0.  1.
         13    1    6    6    0    0 -0.46102023232E+02 -0.16507810443E+02  0.91162829082E+02  0.10348220020E+03  0.00000000000E+00 0. -1.
        -14    1    6    6    0    0 -0.29665356372E+02 -0.34362207074E+02 -0.45411212822E+01  0.45622542961E+02  0.00000000000E+00 0.  1.
</event>
<event>
12    1  0.8113184E-002  0.2701750E+03  0.7818608E-02  0.1101783E+00
         21   -1    0    0  501  502  0.00000000000E+00  0.00000000000E+00  0.75700409680E+03  0.75700409680E+03  0.00000000000E+00 0. -1.
         21   -1    0    0  502  503 -0.00000000000E+00 -0.00000000000E+00 -0.15387445240E+03  0.15387445240E+03  0.00000000000E+00 0. -1.
         -6    2    1    2    0  503  0.16239174984E+03  0.12502377732E+03  0.18253009192E+02  0.26661524492E+03  0.16955380022E+03 0.  0.
        -24    2    3    3    0    0  0.16880642838E+03  0.14476955649E+03 -0.10964774252E+02  0.23046537957E+03  0.59499833226E+02 0.  0.
          6    2    1    2  501    0 -0.16239174984E+03 -0.12502377732E+03  0.58487663521E+03  0.64426330427E+03  0.17604687303E+03 0.  0.
         24    2    5    5    0    0 -0.22385435943E+02 -0.51697784421E+01  0.22633604618E+03  0.24110056671E+03  0.79835099512E+02 0.  0.
          5    1    5    5  501    0 -0.14000631390E+03 -0.11985399888E+03  0.35854058903E+03  0.40316273756E+03  0.47000000000E+01 0. -1.
        -11    1    6    6    0    0 -0.47816491641E+01  0.11081113809E+02 -0.13621809796E+01  0.12145401970E+02  0.00000000000E+00 0.  1.
         12    1    6    6    0    0 -0.17603786779E+02 -0.16250892251E+02  0.22769822716E+03  0.22895516474E+03  0.00000000000E+00 0. -1.
         -5    1    3    3    0  503 -0.64146785427E+01 -0.19745779172E+02  0.29217783443E+02  0.36149865356E+02  0.47000000000E+01 0.  1.
         13    1    4    4    0    0  0.76397553036E+02  0.53365801059E+02 -0.32542822119E+02  0.98709321262E+02  0.00000000000E+00 0. -1.
        -14    1    4    4    0    0  0.92408875347E+02  0.91403755433E+02  0.21578047867E+02  0.13175605830E+03  0.00000000000E+00 0.  1.
</event>
<event>
12    1  0.8113184E-002  0.2403851E+03  0.7818608E-02  0.1121948E+00
         21   -1    0    0  503  502  0.00000000000E+00  0.00000000000E+00  0.71093939459E+03  0.71093939459E+03  0.00000000000E+00 0. -1.
         21   -1    0    0  501  503 -0.00000000000E+00 -0.00000000000E+00 -0.18169982082E+03  0.18169982082E+03  0.00000000000E+00 0.  1.
          6    2    1    2  501    0  0.12269080596E+03 -0.75811592911E+02 -0.78122386206E+02  0.23943668125E+03  0.17443160727E+03 0.  0.
         24    2    3    3    0    0  0.12065557112E+03 -0.90735123743E+02 -0.10941258921E+02  0.17042763969E+03  0.78327770936E+02 0.  0.
         -6    2    1    2    0  502 -0.12269080596E+03  0.75811592911E+02  0.60736195998E+03  0.65320253416E+03  0.19231372473E+03 0.  0.
        -24    2    5    5    0    0 -0.11288533541E+03  0.12638033401E+03  0.45670969349E+03  0.49391807093E+03  0.81585714976E+02 0.  0.
          5    1    3    3  501    0  0.20352348380E+01  0.14923530832E+02 -0.67181127285E+02  0.69009041557E+02  0.47000000000E+01 0. -1.
        -11    1    4    4    0    0  0.11243196366E+03 -0.75151666050E+02 -0.35859134591E+02  0.13990924522E+03  0.00000000000E+00 0.  1.
         12    1    4    4    0    0  0.82236074593E+01 -0.15583457693E+02  0.24917875671E+02  0.30518394474E+02  0.00000000000E+00 0. -1.
         -5    1    5    5    0  502 -0.98054705469E+01 -0.50568741100E+02  0.15065226648E+03  0.15928446323E+03  0.47000000000E+01 0.  1.
         13    1    6    6    0    0  0.16807029559E+01  0.50013270282E+02  0.10889400249E+03  0.11984179465E+03  0.00000000000E+00 0. -1.
        -14    1    6    6    0    0 -0.11456603837E+03  0.76367063729E+02  0.34781569100E+03  0.37407627628E+03  0.00000000000E+00 0.  1.
</event>
<event>
12    1  0.8113184E-002  0.2539894E+03  0.7818608E-02  0.1110826E+00
         21   -1    0    0  503  502  0.00000000000E+00  0.00000000000E+00  0.30327785381E+03  0.30327785381E+03  0.00000000000E+00 0. -1.
         21   -1    0    0  501  503 -0.00000000000E+00 -0.00000000000E+00 -0.38372975269E+03  0.38372975269E+03  0.00000000000E+00 0. -1.
          6    2    1    2  501    0 -0.94211471975E+02  0.16165169693E+03 -0.26959973297E+03  0.37032559733E+03  0.17160990487E+03 0.  0.
         24    2    3    3    0    0 -0.93483941591E+02  0.61768066256E+02 -0.89181416786E+02  0.16404877413E+03  0.80025832382E+02 0.  0.
         -6    2    1    2    0  502  0.94211471975E+02 -0.16165169693E+03  0.18914783409E+03  0.31668200917E+03  0.17176588492E+03 0.  0.
        -24    2    5    5    0    0  0.47175846285E+02 -0.14487847314E+02  0.10683368388E+03  0.14156131353E+03  0.78681073235E+02 0.  0.
          5    1    3    3  501    0 -0.72753038350E+00  0.99883630672E+02 -0.18041831618E+03  0.20627682320E+03  0.47000000000E+01 0. -1.
        -11    1    4    4    0    0  0.39409724545E+01  0.36749154878E+02 -0.20674785004E+02  0.42349479136E+02  0.00000000000E+00 0.  1.
         12    1    4    4    0    0 -0.97424914046E+02  0.25018911378E+02 -0.68506631783E+02  0.12169929499E+03  0.00000000000E+00 0. -1.
         -5    1    5    5    0  502  0.47035625690E+02 -0.14716384961E+03  0.82314150213E+02  0.17512069564E+03  0.47000000000E+01 0.  1.
         13    1    6    6    0    0 -0.26551579079E+01 -0.18327390747E+02  0.85047943599E+02  0.87040771053E+02  0.00000000000E+00 0. -1.
        -14    1    6    6    0    0  0.49831004193E+02  0.38395434332E+01  0.21785740278E+02  0.54520542478E+02  0.00000000000E+00 0.  1.
</event>
<event>
12    1  0.8113184E-002  0.2383391E+03  0.7818608E-02  0.1120976E+00
         21   -1    0    0  503  502  0.00000000000E+00  0.00000000000E+00  0.15921235713E+04  0.15921235713E+04  0.00000000000E+00 0. -1.
         21   -1    0    0  501  503 -0.00000000000E+00 -0.00000000000E+00 -0.21385429512E+03  0.21385429512E+03  0.00000000000E+00 0. -1.
          6    2    1    2  501    0 -0.10297580154E+03  0.12879886272E+03 -0.13513759479E+03  0.27398486403E+03  0.17208246120E+03 0.  0.
         24    2    3    3    0    0 -0.89997341403E+02  0.15389489517E+02 -0.51529490440E+02  0.13241321620E+03  0.80880242285E+02 0.  0.
         -6    2    1    2    0  502  0.10297580154E+03 -0.12879886272E+03  0.15134068710E+04  0.15319930024E+04  0.17149063965E+03 0.  0.
        -24    2    5    5    0    0  0.12138888565E+03 -0.85873616812E+02  0.79944334581E+03  0.81648784959E+03  0.73710282488E+02 0.  0.
          5    1    3    3  501    0 -0.12978460133E+02  0.11340937320E+03 -0.83608104352E+02  0.14157164783E+03  0.47000000000E+01 0. -1.
        -13    1    4    4    0    0 -0.18415677811E+02 -0.22298163222E+02 -0.41948287271E+02  0.50950996823E+02  0.00000000000E+00 0.  1.
         14    1    4    4    0    0 -0.71581663592E+02  0.37687652739E+02 -0.95812031697E+01  0.81462219377E+02  0.00000000000E+00 0. -1.
         -5    1    5    5    0  502 -0.18413084115E+02 -0.42925245905E+02  0.71396352515E+03  0.71550515278E+03  0.47000000000E+01 0.  1.
         13    1    6    6    0    0  0.79899093160E+02 -0.84388041899E+02  0.68409465887E+03  0.69389531559E+03  0.00000000000E+00 0. -1.
        -14    1    6    6    0    0  0.41489792491E+02 -0.14855749126E+01  0.11534868694E+03  0.12259253400E+03  0.00000000000E+00 0.  1.
</event>
<event>
12    1  0.8113184E-002  0.1813997E+03  0.7818608E-02  0.1166733E+00
         21   -1    0    0  501  502  0.00000000000E+00  0.00000000000E+00  0.81649784951E+03  0.81649784951E+03  0.00000000000E+00 0.  1.
         21   -1    0    0  502  503 -0.00000000000E+00 -0.00000000000E+00 -0.40871458289E+02  0.40871458289E+02  0.00000000000E+00 0.  1.
         -6    2    1    2    0  503 -0.45418836613E+02  0.26533917041E+02  0.32805229374E+03  0.37486552888E+03  0.17360569644E+03 0.  0.
        -24    2    3    3    0    0  0.30229835146E+02  0.54128990889E+02  0.17723234174E+03  0.20383056882E+03  0.79320912997E+02 0.  0.
          6    2    1    2  501    0  0.45418836613E+02 -0.26533917041E+02  0.44757409747E+03  0.48250377892E+03  0.17239606860E+03 0.  0.
         24    2    5    5    0    0  0.96291591130E+02 -0.19769773303E+02  0.34883407048E+03  0.37112391663E+03  0.79905183243E+02 0.  0.
          5    1    5    5  501    0 -0.50872754517E+02 -0.67641437380E+01  0.98740026991E+02  0.11137986229E+03  0.47000000000E+01 0. -1.
        -13    1    6    6    0    0  0.78898666393E+02  0.19202252652E+02  0.18931960789E+03  0.20599912621E+03  0.00000000000E+00 0.  1.
         14    1    6    6    0    0  0.17392924737E+02 -0.38972025955E+02  0.15951446259E+03  0.16512479043E+03  0.00000000000E+00 0. -1.
         -5    1    3    3    0  503 -0.75648671759E+02 -0.27595073848E+02  0.15081995200E+03  0.17103496005E+03  0.47000000000E+01 0.  1.
         13    1    4    4    0    0  0.17471430311E+02  0.63279277785E+01  0.14171326279E+03  0.14292635306E+03  0.00000000000E+00 0. -1.
        -14    1    4    4    0    0  0.12758404835E+02  0.47801063110E+02  0.35519078953E+02  0.60904215766E+02  0.00000000000E+00 0.  1.
</event>
<event>
12    1  0.8113184E-002  0.1762073E+03  0.7818608E-02  0.1172096E+00
         21   -1    0    0  501  502  0.00000000000E+00  0.00000000000E+00  0.28075391732E+02  0.28075391732E+02  0.00000000000E+00 0. -1.
         21   -1    0    0  502  503 -0.00000000000E+00 -0.00000000000E+00 -0.11402966040E+04  0.11402966040E+04  0.00000000000E+00 0. -1.
         -6    2    1    2    0  503 -0.26483044285E+02  0.20271419985E+02 -0.67330862834E+03  0.69540975445E+03  0.17069837576E+03 0.  0.
        -24    2    3    3    0    0  0.12371550288E+01  0.69485402696E+02 -0.54284693811E+03  0.55316781914E+03  0.80511403991E+02 0.  0.
          6    2    1    2  501    0  0.26483044285E+02 -0.20271419985E+02 -0.43891258398E+03  0.47296224133E+03  0.17302237788E+03 0.  0.
         24    2    5    5    0    0  0.35373485480E+02  0.53459335623E+02 -0.24412537195E+03  0.26444506641E+03  0.78897477007E+02 0.  0.
          5    1    5    5  501    0 -0.88904411948E+01 -0.73730755609E+02 -0.19478721203E+03  0.20851717492E+03  0.47000000000E+01 0. -1.
        -13    1    6    6    0    0  0.53348289374E+02  0.18085648868E+02 -0.18381565590E+03  0.19225328613E+03  0.00000000000E+00 0.  1.
         14    1    6    6    0    0 -0.17974803894E+02  0.35373686755E+02 -0.60309716045E+02  0.72191780274E+02  0.00000000000E+00 0. -1.
         -5    1    3    3    0  503 -0.27720199314E+02 -0.49213982711E+02 -0.13046169022E+03  0.14224193531E+03  0.47000000000E+01 0.  1.
         13    1    4    4    0    0  0.19484641276E+01  0.27216122032E+02 -0.39266587413E+02  0.47816092458E+02  0.00000000000E+00 0. -1.
        -14    1    4    4    0    0 -0.71130909884E+00  0.42269280664E+02 -0.50358035070E+03  0.50535172668E+03  0.00000000000E+00 0.  1.
</event>
<event>
12    1  0.8113184E-002  0.1923483E+03  0.7818608E-02  0.1156451E+00
         21   -1    0    0  501  502  0.00000000000E+00  0.00000000000E+00  0.90710927498E+03  0.90710927498E+03  0.00000000000E+00 0. -1.
         21   -1    0    0  502  503 -0.00000000000E+00 -0.00000000000E+00 -0.42338663402E+02  0.42338663402E+02  0.00000000000E+00 0. -1.
         -6    2    1    2    0  503  0.46814421224E+02  0.71862331034E+02  0.52620727367E+03  0.56026063203E+03  0.17216880173E+03 0.  0.
        -24    2    3    3    0    0 -0.63810671537E+01  0.20480672202E+02  0.43438811693E+03  0.44226621525E+03  0.80288187595E+02 0.  0.
          6    2    1    2  501    0 -0.46814421224E+02 -0.71862331034E+02  0.33856333791E+03  0.38918730635E+03  0.17171441695E+03 0.  0.
         24    2    5    5    0    0 -0.79931778294E+02 -0.61856938542E+02  0.32842197446E+03  0.35283067737E+03  0.80081980233E+02 0.  0.
          5    1    5    5  501    0  0.33117357070E+02 -0.10005392493E+02  0.10141363453E+02  0.36356628982E+02  0.47000000000E+01 0. -1.
        -13    1    6    6    0    0 -0.22963714104E+02 -0.31627059362E+02  0.24125066318E+03  0.24439616513E+03  0.00000000000E+00 0.  1.
         14    1    6    6    0    0 -0.56968064190E+02 -0.30229879180E+02  0.87171311282E+02  0.10843451223E+03  0.00000000000E+00 0. -1.
         -5    1    3    3    0  503  0.53195488378E+02  0.51381658833E+02  0.91819156735E+02  0.11799441678E+03  0.47000000000E+01 0.  1.
         13    1    4    4    0    0  0.20355935184E+02 -0.12428793460E+02  0.30867121010E+03  0.30959127079E+03  0.00000000000E+00 0. -1.
        -14    1    4    4    0    0 -0.26737002337E+02  0.32909465661E+02  0.12571690683E+03  0.13267494446E+03  0.00000000000E+00 0.  1.
</event>
<event>
12    1  0.8113184E-002  0.1739419E+03  0.7818608E-02  0.1173918E+00
         21   -1    0    0  501  502  0.00000000000E+00  0.00000000000E+00  0.27138744487E+03  0.27138744487E+03  0.00000000000E+00 0. -1.
         21   -1    0    0  502  503 -0.00000000000E+00 -0.00000000000E+00 -0.18107689828E+03  0.18107689828E+03  0.00000000000E+00 0. -1.
         -6    2    1    2    0  503 -0.15051182762E+02 -0.14367894924E+02 -0.95361058219E+02  0.19836715282E+03  0.17269285273E+03 0.  0.
        -24    2    3    3    0    0 -0.24480418083E+02 -0.70649399613E+02 -0.87528615350E+02  0.14057480548E+03  0.80680783934E+02 0.  0.
          6    2    1    2  501    0  0.15051182762E+02  0.14367894924E+02  0.18567160480E+03  0.25409719034E+03  0.17221632559E+03 0.  0.
         24    2    5    5    0    0  0.11368953550E+02  0.50816271629E+02  0.38529858162E+02  0.10239080754E+03  0.79295529080E+02 0.  0.
          5    1    5    5  501    0  0.36822292115E+01 -0.36448376706E+02  0.14714174664E+03  0.15170638279E+03  0.47000000000E+01 0. -1.
        -11    1    6    6    0    0  0.34437541013E+02 -0.46660910742E+01  0.15265852324E+02  0.37957382472E+02  0.00000000000E+00 0.  1.
         12    1    6    6    0    0 -0.23068587463E+02  0.55482362704E+02  0.23264005838E+02  0.64433425071E+02  0.00000000000E+00 0. -1.
         -5    1    3    3    0  503  0.94292353215E+01  0.56281504689E+02 -0.78324428689E+01  0.57792347332E+02  0.47000000000E+01 0.  1.
         11    1    4    4    0    0 -0.26313562630E+01 -0.53353511624E+02 -0.52151202817E+01  0.53672327301E+02  0.00000000000E+00 0. -1.
        -12    1    4    4    0    0 -0.21849061820E+02 -0.17295887990E+02 -0.82313495069E+02  0.86902478182E+02  0.00000000000E+00 0.  1.
</event>
<event>
12    1  0.8113184E-002  0.2788878E+03  0.7818608E-02  0.1096524E+00
         21   -1    0    0  503  502  0.00000000000E+00  0.00000000000E+00  0.20018261442E+03  0.20018261442E+03  0.00000000000E+00 0. -1.
         21   -1    0    0  501  503 -0.00000000000E+00 -0.00000000000E+00 -0.38625761184E+03  0.38625761184E+03  0.00000000000E+00 0. -1.
          6    2    1    2  501    0  0.15316665248E+03  0.15641925577E+03 -0.94262346477E+02  0.29438716817E+03  0.17277559959E+03 0.  0.
         24    2    3    3    0    0  0.91728956557E+02  0.28830864528E+02 -0.19736859181E+01  0.12529348134E+03  0.80306542750E+02 0.  0.
         -6    2    1    2    0  502 -0.15316665248E+03 -0.15641925577E+03 -0.91812650942E+02  0.29205305809E+03  0.17011295911E+03 0.  0.
        -24    2    5    5    0    0 -0.13744670922E+03 -0.17091289015E+03 -0.11532935889E+03  0.25992351396E+03  0.78463738071E+02 0.  0.
          5    1    3    3  501    0  0.61437695923E+02  0.12758839125E+03 -0.92288660559E+02  0.16909368684E+03  0.47000000000E+01 0. -1.
        -13    1    4    4    0    0  0.68129320901E+02 -0.10001428086E+02 -0.26347760637E+02  0.73728131815E+02  0.00000000000E+00 0.  1.
         14    1    4    4    0    0  0.23599635656E+02  0.38832292614E+02  0.24374074719E+02  0.51565349521E+02  0.00000000000E+00 0. -1.
         -5    1    5    5    0  502 -0.15719943262E+02  0.14493634378E+02  0.23516707945E+02  0.32129544133E+02  0.47000000000E+01 0.  1.
         13    1    6    6    0    0 -0.47843662994E+02 -0.67114988459E+02 -0.26864278417E+01  0.82466081871E+02  0.00000000000E+00 0. -1.
        -14    1    6    6    0    0 -0.89603046224E+02 -0.10379790169E+03 -0.11264293105E+03  0.17745743209E+03  0.00000000000E+00 0.  1.
</event>
<event>
12    1  0.8113184E-002  0.2096607E+03  0.7818608E-02  0.1142051E+00
         21   -1    0    0  503  502  0.00000000000E+00  0.00000000000E+00  0.20034318690E+04  0.20034318690E+04  0.00000000000E+00 0.  1.
         21   -1    0    0  501  503 -0.00000000000E+00 -0.00000000000E+00 -0.48541182965E+02  0.48541182965E+02  0.00000000000E+00 0. -1.
          6    2    1    2  501    0  0.74021498055E+02  0.93527926285E+02  0.21519042375E+03  0.29968466372E+03  0.17110617764E+03 0.  0.
         24    2    3    3    0    0  0.99615541262E+02  0.11394812787E+03  0.19895903228E+03  0.26283920607E+03  0.81193102021E+02 0.  0.
         -6    2    1    2    0  502 -0.74021498055E+02 -0.93527926285E+02  0.17397002623E+04  0.17522883882E+04  0.17242661571E+03 0.  0.
        -24    2    5    5    0    0 -0.53421563655E+02  0.10134016092E+02  0.62577441451E+03  0.63335003429E+03  0.81130058178E+02 0.  0.
          5    1    3    3  501    0 -0.25594043207E+02 -0.20420201587E+02  0.16231391470E+02  0.36845457652E+02  0.47000000000E+01 0. -1.
        -13    1    4    4    0    0  0.55257762537E+02  0.10834083758E+03  0.17191811584E+03  0.21058726448E+03  0.00000000000E+00 0.  1.
         14    1    4    4    0    0  0.44357778726E+02  0.56072902925E+01  0.27040916439E+02  0.52251941588E+02  0.00000000000E+00 0. -1.
         -5    1    5    5    0  502 -0.20599934400E+02 -0.10366194238E+03  0.11139258478E+04  0.11189383539E+04  0.47000000000E+01 0.  1.
         13    1    6    6    0    0 -0.13101580783E+02 -0.10991920207E+02  0.22014959345E+02  0.27877090304E+02  0.00000000000E+00 0. -1.
        -14    1    6    6    0    0 -0.40319982872E+02  0.21125936299E+02  0.60375945516E+03  0.60547294399E+03  0.00000000000E+00 0.  1.
</event>
<event>
12    1  0.8113184E-002  0.1929261E+03  0.7818608E-02  0.1156083E+00
         21   -1    0    0  503  502  0.00000000000E+00  0.00000000000E+00  0.22341579041E+04  0.22341579041E+04  0.00000000000E+00 0. -1.
         21   -1    0    0  501  503 -0.00000000000E+00 -0.00000000000E+00 -0.20955701585E+02  0.20955701585E+02  0.00000000000E+00 0. -1.
          6    2    1    2  501    0 -0.28267014260E+02  0.82951213883E+02  0.58827844091E+03  0.61877693487E+03  0.17068521643E+03 0.  0.
         24    2    3    3    0    0  0.93418201206E+01  0.86170069170E+01  0.13013810589E+03  0.15310037832E+03  0.79638413002E+02 0.  0.
         -6    2    1    2    0  502  0.28267014260E+02 -0.82951213883E+02  0.16249237616E+04  0.16363366708E+04  0.17187361998E+03 0.  0.
        -24    2    5    5    0    0  0.34799511686E+02 -0.10910526089E+03  0.15609273306E+04  0.15667353714E+04  0.71067775042E+02 0.  0.
          5    1    3    3  501    0 -0.37608834380E+02  0.74334206966E+02  0.45814033502E+03  0.46567655655E+03  0.47000000000E+01 0. -1.
        -11    1    4    4    0    0  0.45983063645E+01 -0.32314085624E+02  0.89336052555E+02  0.95111906916E+02  0.00000000000E+00 0.  1.
         12    1    4    4    0    0  0.47435137561E+01  0.40931092542E+02  0.40802053340E+02  0.57988471407E+02  0.00000000000E+00 0. -1.
         -5    1    5    5    0  502 -0.65324974266E+01  0.26154047011E+02  0.63996431040E+02  0.69601299438E+02  0.47000000000E+01 0.  1.
         13    1    6    6    0    0  0.78576640942E+01 -0.61539028205E+02  0.42615360367E+03  0.43064566501E+03  0.00000000000E+00 0. -1.
        -14    1    6    6    0    0  0.26941847592E+02 -0.47566232689E+02  0.11347737269E+04  0.11360897064E+04  0.00000000000E+00 0.  1.
</event>
<event>
12    1  0.8113184E-002  0.1910838E+03  0.7818608E-02  0.1157824E+00
         21   -1    0    0  501  502  0.00000000000E+00  0.00000000000E+00  0.34650252518E+03  0.34650252518E+03  0.00000000000E+00 0.  1.
         21   -1    0    0  502  503 -0.00000000000E+00 -0.00000000000E+00 -0.17521442605E+03  0.17521442605E+03  0.00000000000E+00 0.  1.
         -6    2    1    2    0  503  0.82256972745E+02 -0.98520586392E+01 -0.79812505032E+02  0.20708227349E+03  0.17219105496E+03 0.  0.
        -24    2    3    3    0    0  0.98606233998E+02 -0.34549753038E+01 -0.14228405092E+01  0.12661333214E+03  0.79333379870E+02 0.  0.
          6    2    1    2  501    0 -0.82256972745E+02  0.98520586392E+01  0.25110060416E+03  0.31463467774E+03  0.17052915997E+03 0.  0.
         24    2    5    5    0    0 -0.87823525916E+02  0.45779518830E+02  0.24674830999E+03  0.27771853798E+03  0.80212977808E+02 0.  0.
          5    1    5    5  501    0  0.55665531707E+01 -0.35927460191E+02  0.43522941766E+01  0.36916139757E+02  0.47000000000E+01 0. -1.
        -13    1    6    6    0    0 -0.41359947304E+02 -0.92313113925E+01  0.15719039183E+03  0.16280258485E+03  0.00000000000E+00 0.  1.
         14    1    6    6    0    0 -0.46463578612E+02  0.55010830222E+02  0.89557918161E+02  0.11491595313E+03  0.00000000000E+00 0. -1.
         -5    1    3    3    0  503 -0.16349261253E+02 -0.63970833354E+01 -0.78389664523E+02  0.80468941355E+02  0.47000000000E+01 0.  1.
         11    1    4    4    0    0  0.83524820966E+02 -0.32430223222E+02 -0.15699082928E+02  0.90964698100E+02  0.00000000000E+00 0. -1.
        -12    1    4    4    0    0  0.15081413032E+02  0.28975247918E+02  0.14276242419E+02  0.35648634035E+02  0.00000000000E+00 0.  1.
</event>
<event>
12    1  0.8113184E-002  0.4007622E+03  0.7818608E-02  0.1043639E+00
         21   -1    0    0  501  502  0.00000000000E+00  0.00000000000E+00  0.24713984371E+03  0.24713984371E+03  0.00000000000E+00 0. -1.
         21   -1    0    0  502  503 -0.00000000000E+00 -0.00000000000E+00 -0.11918509807E+04  0.11918509807E+04  0.00000000000E+00 0.  1.
         -6    2    1    2    0  503 -0.23440072091E+03 -0.27471443573E+03 -0.95902787848E+03  0.10393963796E+04  0.17377756800E+03 0.  0.
        -24    2    3    3    0    0 -0.95515377619E+02 -0.57895727916E+02 -0.26858359294E+03  0.30248736757E+03  0.82984085626E+02 0.  0.
          6    2    1    2  501    0  0.23440072091E+03  0.27471443573E+03  0.14316741489E+02  0.39959444478E+03  0.17046709960E+03 0.  0.
         24    2    5    5    0    0  0.18322892443E+03  0.28167372588E+03  0.26906552435E+02  0.34623174419E+03  0.78990705299E+02 0.  0.
          5    1    5    5  501    0  0.51171796481E+02 -0.69592901442E+01 -0.12589810946E+02  0.53362700588E+02  0.47000000000E+01 0. -1.
        -11    1    6    6    0    0  0.75134436097E+02  0.99790607298E+02 -0.27206647516E+02  0.12784189635E+03  0.00000000000E+00 0.  1.
         12    1    6    6    0    0  0.10809448833E+03  0.18188311858E+03  0.54113199951E+02  0.21838984784E+03  0.00000000000E+00 0. -1.
         -5    1    3    3    0  503 -0.13888534329E+03 -0.21681870782E+03 -0.69044428554E+03  0.73690901207E+03  0.47000000000E+01 0.  1.
         11    1    4    4    0    0 -0.60128958617E+02 -0.77909440811E+02 -0.18542404961E+03  0.20992248762E+03  0.00000000000E+00 0. -1.
        -12    1    4    4    0    0 -0.35386419002E+02  0.20013712896E+02 -0.83159543329E+02  0.92564879951E+02  0.00000000000E+00 0.  1.
</event>
<event>
12    1  0.8113184E-002  0.1768093E+03  0.7818608E-02  0.1171011E+00
         21   -1    0    0  501  502  0.00000000000E+00  0.00000000000E+00  0.60954296688E+02  0.60954296688E+02  0.00000000000E+00 0. -1.
         21   -1    0    0  502  503 -0.00000000000E+00 -0.00000000000E+00 -0.68065721108E+03  0.68065721108E+03  0.00000000000E+00 0. -1.
         -6    2    1    2    0  503  0.30964840885E+02  0.27268095507E+02 -0.49426822005E+03  0.52482731124E+03  0.17158165073E+03 0.  0.
        -24    2    3    3    0    0  0.20015082610E+02  0.76014524066E+02 -0.41118783247E+03  0.42776778155E+03  0.87926275703E+02 0.  0.
          6    2    1    2  501    0 -0.30964840885E+02 -0.27268095507E+02 -0.12543469434E+03  0.21678419653E+03  0.17192776075E+03 0.  0.
         24    2    5    5    0    0 -0.13049518953E+02  0.37035820482E+02 -0.19309663679E+02  0.91322790092E+02  0.80156390482E+02 0.  0.
          5    1    5    5  501    0 -0.17915321932E+02 -0.64303915989E+02 -0.10612503066E+03  0.12546140643E+03  0.47000000000E+01 0. -1.
        -11    1    6    6    0    0  0.14727612795E+02  0.17116421109E+02 -0.43797107310E+02  0.49275359551E+02  0.00000000000E+00 0.  1.
         12    1    6    6    0    0 -0.27777131748E+02  0.19919399373E+02  0.24487443631E+02  0.42047430541E+02  0.00000000000E+00 0. -1.
         -5    1    3    3    0  503  0.10949758275E+02 -0.48746428559E+02 -0.83080387585E+02  0.97059529696E+02  0.47000000000E+01 0.  1.
         13    1    4    4    0    0  0.28186325431E+01 -0.18055110886E+02 -0.11724888325E+03  0.11866436846E+03  0.00000000000E+00 0. -1.
        -14    1    4    4    0    0  0.17196450067E+02  0.94069634952E+02 -0.29393894922E+03  0.30910341309E+03  0.00000000000E+00 0.  1.
</event>
<event>
12    1  0.8113184E-002  0.1766756E+03  0.7818608E-02  0.1171680E+00
         21   -1    0    0  503  502  0.00000000000E+00  0.00000000000E+00  0.20176580463E+03  0.20176580463E+03  0.00000000000E+00 0.  1.
         21   -1    0    0  501  503 -0.00000000000E+00 -0.00000000000E+00 -0.34693476925E+03  0.34693476925E+03  0.00000000000E+00 0.  1.
          6    2    1    2  501    0  0.40197856798E+02  0.16066731385E+02 -0.27772123925E+03  0.32782871152E+03  0.16872631630E+03 0.  0.
         24    2    3    3    0    0 -0.26536915822E+02 -0.18392804630E+02 -0.20623001150E+03  0.22403046902E+03  0.81340827657E+02 0.  0.
         -6    2    1    2    0  502 -0.40197856798E+02 -0.16066731385E+02  0.13255227463E+03  0.22087186237E+03  0.17129000708E+03 0.  0.
        -24    2    5    5    0    0 -0.47513927395E+02 -0.63916650432E+02  0.12953725389E+03  0.17214486788E+03  0.80691039723E+02 0.  0.
          5    1    3    3  501    0  0.66734772621E+02  0.34459536015E+02 -0.71491227756E+02  0.10379824250E+03  0.47000000000E+01 0. -1.
        -13    1    4    4    0    0 -0.30411796086E+02  0.19704820022E+02 -0.15974396655E+03  0.16380260108E+03  0.00000000000E+00 0.  1.
         14    1    4    4    0    0  0.38748802633E+01 -0.38097624652E+02 -0.46486044947E+02  0.60227867935E+02  0.00000000000E+00 0. -1.
         -5    1    5    5    0  502  0.73160705968E+01  0.47849919047E+02  0.30150207410E+01  0.48726994488E+02  0.47000000000E+01 0.  1.
         11    1    6    6    0    0 -0.21399876853E+02 -0.41730087724E+01 -0.52407269267E+01  0.22423959290E+02  0.00000000000E+00 0. -1.
        -12    1    6    6    0    0 -0.26114050542E+02 -0.59743641659E+02  0.13477798082E+03  0.14972090859E+03  0.00000000000E+00 0.  1.
</event>
<event>
12    1  0.8113184E-002  0.1845786E+03  0.7818608E-02  0.1164162E+00
         21   -1    0    0  503  502  0.00000000000E+00  0.00000000000E+00  0.12339336017E+03  0.12339336017E+03  0.00000000000E+00 0. -1.
         21   -1    0    0  501  503 -0.00000000000E+00 -0.00000000000E+00 -0.28478792643E+03  0.28478792643E+03  0.00000000000E+00 0.  1.
          6    2    1    2  501    0 -0.77955799527E+01 -0.65701935555E+02 -0.12529196701E+03  0.22308595218E+03  0.17231294108E+03 0.  0.
         24    2    3    3    0    0 -0.34180167431E+02 -0.10193318609E+03 -0.11394455796E+03  0.17661334021E+03  0.81549073449E+02 0.  0.
         -6    2    1    2    0  502  0.77955799527E+01  0.65701935555E+02 -0.36102599256E+02  0.18509533441E+03  0.16905433962E+03 0.  0.
        -24    2    5    5    0    0  0.32043690666E+02  0.86376936716E+02  0.17488194999E+02  0.12256942158E+03  0.78928149826E+02 0.  0.
          5    1    3    3  501    0  0.26384587479E+02  0.36231250531E+02 -0.11347409050E+02  0.46472611973E+02  0.47000000000E+01 0. -1.
        -13    1    4    4    0    0  0.70218986601E+01  0.36205784297E+01 -0.41225763671E+02  0.41975936431E+02  0.00000000000E+00 0.  1.
         14    1    4    4    0    0 -0.41202066091E+02 -0.10555376452E+03 -0.72718794285E+02  0.13463740378E+03  0.00000000000E+00 0. -1.
         -5    1    5    5    0  502 -0.24248110713E+02 -0.20675001161E+02 -0.53590794254E+02  0.62525912828E+02  0.47000000000E+01 0.  1.
         11    1    6    6    0    0 -0.11004220029E+02  0.15643680493E+02  0.33175144166E+02  0.38293704290E+02  0.00000000000E+00 0. -1.
        -12    1    6    6    0    0  0.43047910694E+02  0.70733256224E+02 -0.15686949167E+02  0.84275717293E+02  0.00000000000E+00 0.  1.
</event>
<event>
12    1  0.8113184E-002  0.2279296E+03  0.7818608E-02  0.1128452E+00
         21   -1    0    0  503  502  0.00000000000E+00  0.00000000000E+00  0.88814649140E+02  0.88814649140E+02  0.00000000000E+00 0. -1.
         21   -1    0    0  501  503 -0.00000000000E+00 -0.00000000000E+00 -0.15169995106E+04  0.15169995106E+04  0.00000000000E+00 0. -1.
          6    2    1    2  501    0  0.12797675372E+03 -0.77561313261E+02 -0.13439486949E+04  0.13628169293E+04  0.16934604068E+03 0.  0.
         24    2    3    3    0    0  0.63920667008E+02 -0.51679767598E+00 -0.38281732484E+03  0.39646573014E+03  0.80931157342E+02 0.  0.
         -6    2    1    2    0  502 -0.12797675372E+03  0.77561313261E+02 -0.84236166523E+02  0.24299723039E+03  0.17192473766E+03 0.  0.
        -24    2    5    5    0    0 -0.11276329255E+03  0.77891505336E+02 -0.16128829632E+01  0.15885297679E+03  0.80305791154E+02 0.  0.
          5    1    3    3  501    0  0.64056086713E+02 -0.77044515585E+02 -0.96113137005E+03  0.96635119916E+03  0.47000000000E+01 0. -1.
        -13    1    4    4    0    0  0.72856959317E+00  0.61787763835E+01  0.19237297413E+01  0.65122060293E+01  0.00000000000E+00 0.  1.
         14    1    4    4    0    0  0.63192097415E+02 -0.66955740595E+01 -0.38474105458E+03  0.38995352411E+03  0.00000000000E+00 0. -1.
         -5    1    5    5    0  502 -0.15213461167E+02 -0.33019207475E+00 -0.82623283560E+02  0.84144253599E+02  0.47000000000E+01 0.  1.
         11    1    6    6    0    0 -0.20741498208E+02 -0.81459156068E+01  0.21279354936E+02  0.30811956048E+02  0.00000000000E+00 0. -1.
        -12    1    6    6    0    0 -0.92021794346E+02  0.86037420943E+02 -0.22892237899E+02  0.12804102074E+03  0.00000000000E+00 0.  1.
</event>
<event>
12    1  0.8113184E-002  0.1811869E+03  0.7818608E-02  0.1167505E+00
         21   -1    0    0  503  502  0.00000000000E+00  0.00000000000E+00  0.97197858180E+02  0.97197858180E+02  0.00000000000E+00 0. -1.
         21   -1    0    0  501  503 -0.00000000000E+00 -0.00000000000E+00 -0.61143987458E+03  0.61143987458E+03  0.00000000000E+00 0. -1.
          6    2    1    2  501    0 -0.30961525366E+02 -0.33546279266E+02 -0.49830938732E+03  0.53022723931E+03  0.17534169759E+03 0.  0.
         24    2    3    3    0    0  0.19601259930E+01 -0.18601419540E+02 -0.11352922752E+03  0.14372362312E+03  0.86126299333E+02 0.  0.
         -6    2    1    2    0  502  0.30961525366E+02  0.33546279266E+02 -0.15932629084E+02  0.17841049345E+03  0.17173376662E+03 0.  0.
        -24    2    5    5    0    0  0.35885320955E+02 -0.38137962482E+01  0.51844768829E+02  0.10071953726E+03  0.78448988712E+02 0.  0.
          5    1    3    3  501    0 -0.32921651359E+02 -0.14944859726E+02 -0.38478015980E+03  0.38650361620E+03  0.47000000000E+01 0. -1.
        -13    1    4    4    0    0 -0.34092325989E+02 -0.68191011778E+01 -0.95687116484E+02  0.10180771628E+03  0.00000000000E+00 0.  1.
         14    1    4    4    0    0  0.36052451982E+02 -0.11782318362E+02 -0.17842111038E+02  0.41915906840E+02  0.00000000000E+00 0. -1.
         -5    1    5    5    0  502 -0.49237955894E+01  0.37360075515E+02 -0.67777397912E+02  0.77690956187E+02  0.47000000000E+01 0.  1.
         11    1    6    6    0    0 -0.69501771586E+01 -0.32422113417E+01  0.57051775374E+02  0.57564936987E+02  0.00000000000E+00 0. -1.
        -12    1    6    6    0    0  0.42835498114E+02 -0.57158490653E+00 -0.52070065455E+01  0.43154600277E+02  0.00000000000E+00 0.  1.
</event>
<event>
12    1  0.8113184E-002  0.2733235E+03  0.7818608E-02  0.1099572E+00
         21   -1    0    0  501  502  0.00000000000E+00  0.00000000000E+00  0.36669496057E+03  0.36669496057E+03  0.00000000000E+00 0. -1.
         21   -1    0    0  502  503 -0.00000000000E+00 -0.00000000000E+00 -0.24960812041E+03  0.24960812041E+03  0.00000000000E+00 0.  1.
         -6    2    1    2    0  503 -0.18936952059E+03  0.95961474490E+02 -0.74817953307E+02  0.28337866843E+03  0.17215203650E+03 0.  0.
        -24    2    3    3    0    0 -0.22168050752E+02  0.13942557601E+02 -0.43410268341E+02  0.94455491139E+02  0.79696744114E+02 0.  0.
          6    2    1    2  501    0  0.18936952059E+03 -0.95961474490E+02  0.19190479347E+03  0.33292441254E+03  0.17012288146E+03 0.  0.
         24    2    5    5    0    0  0.20224133533E+03 -0.51803218234E+02  0.16924461311E+03  0.28143452048E+03  0.83525559683E+02 0.  0.
          5    1    5    5  501    0 -0.12871814735E+02 -0.44158256256E+02  0.22660180363E+02  0.51489892059E+02  0.47000000000E+01 0. -1.
        -11    1    6    6    0    0  0.37124667638E+02  0.22179137724E+02  0.24313815344E+02  0.49611659053E+02  0.00000000000E+00 0.  1.
         12    1    6    6    0    0  0.16511666769E+03 -0.73982355959E+02  0.14493079776E+03  0.23182286143E+03  0.00000000000E+00 0. -1.
         -5    1    3    3    0  503 -0.16720146984E+03  0.82018916889E+02 -0.31407684967E+02  0.18892317729E+03  0.47000000000E+01 0.  1.
         11    1    4    4    0    0 -0.54868825179E+01 -0.33197415287E+02 -0.20964223586E+02  0.39644330390E+02  0.00000000000E+00 0. -1.
        -12    1    4    4    0    0 -0.16681168235E+02  0.47139972888E+02 -0.22446044755E+02  0.54811160750E+02  0.00000000000E+00 0.  1.
</event>
<event>
12    1  0.8113184E-002  0.3446444E+03  0.7818608E-02  0.1065009E+00
         21   -1    0    0  501  502  0.00000000000E+00  0.00000000000E+00  0.33487291771E+03  0.33487291771E+03  0.00000000000E+00 0. -1.
         21   -1    0    0  502  503 -0.00000000000E+00 -0.00000000000E+00 -0.39230639410E+03  0.39230639410E+03  0.00000000000E+00 0. -1.
         -6    2    1    2    0  503 -0.27974667250E+03 -0.10028743166E+03 -0.14375535428E+03  0.37188892848E+03  0.17123084862E+03 0.  0.
        -24    2    3    3    0    0 -0.20802736487E+03 -0.13918955328E+02 -0.13108813558E+03  0.25881496499E+03  0.79573644877E+02 0.  0.
          6    2    1    2  501    0  0.27974667250E+03  0.10028743166E+03  0.86321877893E+02  0.35529038332E+03  0.17453945158E+03 0.  0.
         24    2    5    5    0    0  0.68340302633E+02  0.79270326798E+01 -0.33123521188E+01  0.10774345503E+03  0.82851949970E+02 0.  0.
          5    1    5    5  501    0  0.21140636986E+03  0.92360398981E+02  0.89634230012E+02  0.24754692829E+03  0.47000000000E+01 0. -1.
        -11    1    6    6    0    0  0.44476848982E+02 -0.39800908639E+01 -0.41635726787E+02  0.61053787465E+02  0.00000000000E+00 0.  1.
         12    1    6    6    0    0  0.23863453651E+02  0.11907123544E+02  0.38323374668E+02  0.46689667564E+02  0.00000000000E+00 0. -1.
         -5    1    3    3    0  503 -0.71719307623E+02 -0.86368476333E+02 -0.12667218702E+02  0.11307396349E+03  0.47000000000E+01 0.  1.
         13    1    4    4    0    0 -0.11972919943E+03  0.13604843883E+02 -0.35074638979E+02  0.12550061065E+03  0.00000000000E+00 0. -1.
        -14    1    4    4    0    0 -0.88298165439E+02 -0.27523799211E+02 -0.96013496603E+02  0.13331435434E+03  0.00000000000E+00 0.  1.
</event>
<event>
12    1  0.8113184E-002  0.1996873E+03  0.7818608E-02  0.1150125E+00
         21   -1    0    0  503  502  0.00000000000E+00  0.00000000000E+00  0.10049223851E+03  0.10049223851E+03  0.00000000000E+00 0.  1.
         21   -1    0    0  501  503 -0.00000000000E+00 -0.00000000000E+00 -0.55652862719E+03  0.55652862719E+03  0.00000000000E+00 0. -1.
          6    2    1    2  501    0 -0.45852831776E+02  0.90511917794E+02 -0.40487338418E+03  0.45143935549E+03  0.17198879331E+03 0.  0.
         24    2    3    3    0    0  0.38115645917E+02  0.48764569333E+02 -0.16661915987E+03  0.19535204274E+03  0.81053627195E+02 0.  0.
         -6    2    1    2    0  502  0.45852831776E+02 -0.90511917794E+02 -0.51163004507E+02  0.20558151021E+03  0.17132196259E+03 0.  0.
        -24    2    5    5    0    0 -0.62229648673E+01  0.51328030083E+01 -0.45066976261E+02  0.96407095747E+02  0.84842352647E+02 0.  0.
          5    1    3    3  501    0 -0.83968477692E+02  0.41747348461E+02 -0.23825422430E+03  0.25608731274E+03  0.47000000000E+01 0. -1.
        -11    1    4    4    0    0  0.18743652560E+02 -0.19882489591E+02 -0.26203735273E+02  0.37858600686E+02  0.00000000000E+00 0.  1.
         12    1    4    4    0    0  0.19371993356E+02  0.68647058924E+02 -0.14041542460E+03  0.15749344206E+03  0.00000000000E+00 0. -1.
         -5    1    5    5    0  502  0.52075796643E+02 -0.95644720803E+02 -0.60960282460E+01  0.10917441446E+03  0.47000000000E+01 0.  1.
         13    1    6    6    0    0 -0.41334565793E+02 -0.13349668434E+02 -0.12855376155E+02  0.45299234791E+02  0.00000000000E+00 0. -1.
        -14    1    6    6    0    0  0.35111600925E+02  0.18482471442E+02 -0.32211600106E+02  0.51107860956E+02  0.00000000000E+00 0.  1.
</event>
<event>
12    1  0.8113184E-002  0.2613312E+03  0.7818608E-02  0.1106431E+00
         21   -1    0    0  501  502  0.00000000000E+00  0.00000000000E+00  0.11014323626E+04  0.11014323626E+04  0.00000000000E+00 0.  1.
         21   -1    0    0  502  503 -0.00000000000E+00 -0.00000000000E+00 -0.72407945073E+02  0.72407945073E+02  0.00000000000E+00 0. -1.
         -6    2    1    2    0  503  0.23992586152E+02  0.19509245549E+03  0.29108225592E+03  0.39118137883E+03  0.17221289455E+03 0.  0.
        -24    2    3    3    0    0  0.10835326410E+02  0.17345204385E+03  0.13841570835E+03  0.23635700850E+03  0.80639390714E+02 0.  0.
          6    2    1    2  501    0 -0.23992586152E+02 -0.19509245549E+03  0.73794216162E+03  0.78265892887E+03  0.17134659218E+03 0.  0.
         24    2    5    5    0    0 -0.69396699951E+02 -0.18287868483E+03  0.63881754949E+03  0.67284777973E+03  0.79848342648E+02 0.  0.
          5    1    5    5  501    0  0.45404113800E+02 -0.12213770659E+02  0.99124612139E+02  0.10981114914E+03  0.47000000000E+01 0. -1.
        -11    1    6    6    0    0 -0.26984863297E+02 -0.80181764002E+02  0.40800841864E+03  0.41668713420E+03  0.00000000000E+00 0.  1.
         12    1    6    6    0    0 -0.42411836654E+02 -0.10269692083E+03  0.23080913085E+03  0.25616064553E+03  0.00000000000E+00 0. -1.
         -5    1    3    3    0  503  0.13157259741E+02  0.21640411642E+02  0.15266654758E+03  0.15482437033E+03  0.47000000000E+01 0.  1.
         11    1    4    4    0    0 -0.22780849217E+01  0.92766929373E+02  0.12149754398E+03  0.15288082303E+03  0.00000000000E+00 0. -1.
        -12    1    4    4    0    0  0.13113411332E+02  0.80685114474E+02  0.16918164363E+02  0.83476185465E+02  0.00000000000E+00 0.  1.
</event>
<event>
12    1  0.8113184E-002  0.2117327E+03  0.7818608E-02  0.1140363E+00
         21   -1    0    0  501  502  0.00000000000E+00  0.00000000000E+00  0.26789331567E+02  0.26789331567E+02  0.00000000000E+00 0.  1.
         21   -1    0    0  502  503 -0.00000000000E+00 -0.00000000000E+00 -0.16959050241E+04  0.16959050241E+04  0.00000000000E+00 0. -1.
         -6    2    1    2    0  503 -0.10462902999E+03  0.62682527832E+02 -0.94551097675E+03  0.96874838122E+03  0.17206419075E+03 0.  0.
        -24    2    3    3    0    0 -0.76833973273E+02  0.86530944166E+02 -0.43705516640E+03  0.45895360563E+03  0.78931171871E+02 0.  0.
          6    2    1    2  501    0  0.10462902999E+03 -0.62682527832E+02 -0.72360471576E+03  0.75394597443E+03  0.17307343665E+03 0.  0.
         24    2    5    5    0    0 -0.85637769170E+00 -0.37324350008E+02 -0.42262907325E+03  0.43397935773E+03  0.91262856041E+02 0.  0.
          5    1    5    5  501    0  0.10548540769E+03 -0.25358177824E+02 -0.30097564251E+03  0.31996661670E+03  0.47000000000E+01 0. -1.
        -13    1    6    6    0    0 -0.10203585000E+02 -0.61132702850E+02 -0.18783243723E+03  0.19779369297E+03  0.00000000000E+00 0.  1.
         14    1    6    6    0    0  0.93472073087E+01  0.23808352842E+02 -0.23479663602E+03  0.23618566476E+03  0.00000000000E+00 0. -1.
         -5    1    3    3    0  503 -0.27795056722E+02 -0.23848416333E+02 -0.50845581035E+03  0.50979477559E+03  0.47000000000E+01 0.  1.
         13    1    4    4    0    0 -0.36928790214E-01  0.57565576516E+01 -0.16299708563E+03  0.16309871012E+03  0.00000000000E+00 0. -1.
        -14    1    4    4    0    0 -0.76797044483E+02  0.80774386514E+02 -0.27405808077E+03  0.29585489550E+03  0.00000000000E+00 0.  1.
</event>
<event>
12    1  0.8113184E-002  0.1828523E+03  0.7818608E-02  0.1166407E+00
         21   -1    0    0  501  502  0.00000000000E+00  0.00000000000E+00  0.34069909366E+03  0.34069909366E+03  0.00000000000E+00 0.  1.
         21   -1    0    0  502  503 -0.00000000000E+00 -0.00000000000E+00 -0.60754126082E+03  0.60754126082E+03  0.00000000000E+00 0.  1.
         -6    2    1    2    0  503  0.24862655415E+02  0.58967890259E+02 -0.56849023504E+03  0.59549891508E+03  0.16535551639E+03 0.  0.
        -24    2    3    3    0    0 -0.44300707494E+02  0.55243956725E+02 -0.39133740205E+03  0.40522896294E+03  0.77788834157E+02 0.  0.
          6    2    1    2  501    0 -0.24862655415E+02 -0.58967890259E+02  0.30164806789E+03  0.35274143941E+03  0.17128806876E+03 0.  0.
         24    2    5    5    0    0 -0.13482032605E+02 -0.11887941897E+02  0.50155871973E+02  0.96584349485E+02  0.80559522754E+02 0.  0.
          5    1    5    5  501    0 -0.11380622810E+02 -0.47079948362E+02  0.25149219591E+03  0.25615708992E+03  0.47000000000E+01 0. -1.
        -11    1    6    6    0    0 -0.16479442955E+02 -0.29275867622E+02  0.65232963318E+02  0.73375663326E+02  0.00000000000E+00 0.  1.
         12    1    6    6    0    0  0.29974103507E+01  0.17387925725E+02 -0.15077091345E+02  0.23208686160E+02  0.00000000000E+00 0. -1.
         -5    1    3    3    0  503  0.69163362909E+02  0.37239335348E+01 -0.17715283299E+03  0.19026995214E+03  0.47000000000E+01 0.  1.
         13    1    4    4    0    0 -0.18124918045E+02  0.24255541333E+02 -0.33725784985E+02  0.45324083138E+02  0.00000000000E+00 0. -1.
        -14    1    4    4    0    0 -0.26175789449E+02  0.30988415392E+02 -0.35761161707E+03  0.35990487980E+03  0.00000000000E+00 0.  1.
</event>
<event>
12    1  0.8113184E-002  0.2739126E+03  0.7818608E-02  0.1099270E+00
         21   -1    0    0  503  502  0.00000000000E+00  0.00000000000E+00  0.24437033598E+03  0.24437033598E+03  0.00000000000E+00 0.  1.
         21   -1    0    0  501  503 -0.00000000000E+00 -0.00000000000E+00 -0.33700393947E+03  0.33700393947E+03  0.00000000000E+00 0. -1.
          6    2    1    2  501    0  0.17963368529E+03 -0.11454272952E+03 -0.13527092614E+03  0.30416305086E+03  0.16978998875E+03 0.  0.
         24    2    3    3    0    0  0.15843745862E+02 -0.21185511095E+02 -0.49079905634E+02  0.96813836968E+02  0.79146899674E+02 0.  0.
         -6    2    1    2    0  502 -0.17963368529E+03  0.11454272952E+03  0.42637322645E+02  0.27721122459E+03  0.17216220254E+03 0.  0.
        -24    2    5    5    0    0 -0.17385276267E+03  0.10176697650E+03 -0.15617174059E+02  0.21710868457E+03  0.79441703112E+02 0.  0.
          5    1    3    3  501    0  0.16378993942E+03 -0.93357218427E+02 -0.86191020502E+02  0.20734921390E+03  0.47000000000E+01 0. -1.
        -13    1    4    4    0    0  0.76028440784E+01  0.23097094284E+02  0.65999960521E+01  0.25196010603E+02  0.00000000000E+00 0.  1.
         14    1    4    4    0    0  0.82409017841E+01 -0.44282605379E+02 -0.55679901686E+02  0.71617826364E+02  0.00000000000E+00 0. -1.
         -5    1    5    5    0  502 -0.57809226153E+01  0.12775753018E+02  0.58254496704E+02  0.60102540027E+02  0.47000000000E+01 0.  1.
         11    1    6    6    0    0 -0.66169773860E+01 -0.31819806394E+01 -0.18229488937E+02  0.19652573811E+02  0.00000000000E+00 0. -1.
        -12    1    6    6    0    0 -0.16723578528E+03  0.10494895714E+03  0.26123148776E+01  0.19745611075E+03  0.00000000000E+00 0.  1.
</event>
<event>
12    1  0.8113184E-002  0.2132280E+03  0.7818608E-02  0.1139470E+00
         21   -1    0    0  501  502  0.00000000000E+00  0.00000000000E+00  0.41993515558E+02  0.41993515558E+02  0.00000000000E+00 0. -1.
         21   -1    0    0  502  503 -0.00000000000E+00 -0.00000000000E+00 -0.14009683811E+04  0.14009683811E+04  0.00000000000E+00 0. -1.
         -6    2    1    2    0  503 -0.66783405516E+02  0.10618851390E+03 -0.10266776444E+04  0.10481358550E+04  0.16966367111E+03 0.  0.
        -24    2    3    3    0    0 -0.52539337333E+02  0.12590930631E+03 -0.99869775393E+03  0.10107625035E+04  0.75033988253E+02 0.  0.
          6    2    1    2  501    0  0.66783405516E+02 -0.10618851390E+03 -0.33229722109E+03  0.39482604161E+03  0.17242429135E+03 0.  0.
         24    2    5    5    0    0  0.43411457078E+02 -0.80668017660E+02 -0.33807488513E+03  0.35942808822E+03  0.80635221649E+02 0.  0.
          5    1    5    5  501    0  0.23371948438E+02 -0.25520496238E+02  0.57776640359E+01  0.35397953383E+02  0.47000000000E+01 0. -1.
        -11    1    6    6    0    0  0.27285920555E+01  0.16061675411E+02 -0.61298892144E+02  0.63426940725E+02  0.00000000000E+00 0.  1.
         12    1    6    6    0    0  0.40682865023E+02 -0.96729693070E+02 -0.27677599298E+03  0.29600114750E+03  0.00000000000E+00 0. -1.
         -5    1    3    3    0  503 -0.14244068182E+02 -0.19720792416E+02 -0.27979890476E+02  0.37373351508E+02  0.47000000000E+01 0.  1.
         13    1    4    4    0    0 -0.64642738247E+02  0.64187046479E+02 -0.66222843381E+03  0.66846477775E+03  0.00000000000E+00 0. -1.
        -14    1    4    4    0    0  0.12103400913E+02  0.61722259835E+02 -0.33646932012E+03  0.34229772575E+03  0.00000000000E+00 0.  1.
</event>
<event>
12    1  0.8113184E-002  0.1699759E+03  0.7818608E-02  0.1178781E+00
         21   -1    0    0  503  502  0.00000000000E+00  0.00000000000E+00  0.82706121795E+03  0.82706121795E+03  0.00000000000E+00 0. -1.
         21   -1    0    0  501  503 -0.00000000000E+00 -0.00000000000E+00 -0.34379644774E+02  0.34379644774E+02  0.00000000000E+00 0. -1.
          6    2    1    2  501    0 -0.89966521280E+01 -0.22761297827E+01  0.37188309091E+03  0.40888733061E+03  0.16972240662E+03 0.  0.
         24    2    3    3    0    0  0.58413916016E+02 -0.17494983098E+02  0.22331940648E+03  0.24496949594E+03  0.80126378977E+02 0.  0.
         -6    2    1    2    0  502  0.89966521280E+01  0.22761297827E+01  0.42079848227E+03  0.45255353212E+03  0.16627452071E+03 0.  0.
        -24    2    5    5    0    0  0.42184488875E+02  0.89209503401E+01  0.40442601371E+03  0.41466245303E+03  0.80780164177E+02 0.  0.
          5    1    3    3  501    0 -0.67410568144E+02  0.15218853315E+02  0.14856368443E+03  0.16391783467E+03  0.47000000000E+01 0. -1.
        -13    1    4    4    0    0  0.47706035439E+02 -0.33682677419E+02  0.73392412545E+02  0.93791443078E+02  0.00000000000E+00 0.  1.
         14    1    4    4    0    0  0.10707880577E+02  0.16187694321E+02  0.14992699394E+03  0.15117805286E+03  0.00000000000E+00 0. -1.
         -5    1    5    5    0  502 -0.33187836747E+02 -0.66448205574E+01  0.16372468554E+02  0.37891079092E+02  0.47000000000E+01 0.  1.
         13    1    6    6    0    0  0.81385157547E+01 -0.46435426225E+01  0.83091905167E+00  0.94068248228E+01  0.00000000000E+00 0. -1.
        -14    1    6    6    0    0  0.34045973120E+02  0.13564492963E+02  0.40359509466E+03  0.40525562820E+03  0.00000000000E+00 0.  1.
</event>
<event>
12    1  0.8113184E-002  0.1947764E+03  0.7818608E-02  0.1154574E+00
         21   -1    0    0  503  502  0.00000000000E+00  0.00000000000E+00  0.63047919984E+03  0.63047919984E+03  0.00000000000E+00 0.  1.
         21   -1    0    0  501  503 -0.00000000000E+00 -0.00000000000E+00 -0.71546170544E+02  0.71546170544E+02  0.00000000000E+00 0.  1.
          6    2    1    2  501    0 -0.68281980975E+02  0.56875874503E+02  0.13554510797E+03  0.23598333181E+03  0.17151781998E+03 0.  0.
         24    2    3    3    0    0 -0.75682307750E+01 -0.29306041957E+02  0.67378697240E+02  0.11035597914E+03  0.81990432838E+02 0.  0.
         -6    2    1    2    0  502  0.68281980975E+02 -0.56875874503E+02  0.42338792133E+03  0.46604203858E+03  0.17332211564E+03 0.  0.
        -24    2    5    5    0    0 -0.30385447172E+02 -0.12524167753E+02  0.15420011568E+03  0.17589293902E+03  0.77977690022E+02 0.  0.
          5    1    3    3  501    0 -0.60713750200E+02  0.86181916460E+02  0.68166410734E+02  0.12562735268E+03  0.47000000000E+01 0. -1.
        -13    1    4    4    0    0 -0.12811876373E+02  0.27387441924E+02  0.27211546501E+02  0.40677812310E+02  0.00000000000E+00 0.  1.
         14    1    4    4    0    0  0.52436455979E+01 -0.56693483881E+02  0.40167150739E+02  0.69678166826E+02  0.00000000000E+00 0. -1.
         -5    1    5    5    0  502  0.98667428147E+02 -0.44351706750E+02  0.26918780564E+03  0.29014909956E+03  0.47000000000E+01 0.  1.
         11    1    6    6    0    0 -0.12692294683E+02  0.86078695611E+01 -0.35597974093E+01  0.15743631103E+02  0.00000000000E+00 0. -1.
        -12    1    6    6    0    0 -0.17693152489E+02 -0.21132037314E+02  0.15775991309E+03  0.16014930791E+03  0.00000000000E+00 0.  1.
</event>
<event>
12    1  0.8113184E-002  0.2650726E+03  0.7818608E-02  0.1104301E+00
         21   -1    0    0  503  502  0.00000000000E+00  0.00000000000E+00  0.27143411325E+03  0.27143411325E+03  0.00000000000E+00 0. -1.
         21   -1    0    0  501  503 -0.00000000000E+00 -0.00000000000E+00 -0.60561698656E+03  0.60561698656E+03  0.00000000000E+00 0. -1.
          6    2    1    2  501    0 -0.19893976825E+03 -0.24389903180E+02 -0.49929572768E+03  0.56475996015E+03  0.17171397769E+03 0.  0.
         24    2    3    3    0    0 -0.24216256670E+02 -0.21457035255E+02 -0.12086129821E+03  0.14790073376E+03  0.78869146012E+02 0.  0.
         -6    2    1    2    0  502  0.19893976825E+03  0.24389903180E+02  0.16511285437E+03  0.31229113967E+03  0.17346931276E+03 0.  0.
        -24    2    5    5    0    0  0.18309124053E+03  0.50591366412E+02  0.18387110588E+03  0.27607436861E+03  0.79539830967E+02 0.  0.
          5    1    3    3  501    0 -0.17472351158E+03 -0.29328679256E+01 -0.37843442948E+03  0.41685922639E+03  0.47000000000E+01 0. -1.
        -13    1    4    4    0    0  0.14570127907E+02 -0.11673483922E+02 -0.10196622832E+03  0.10366132631E+03  0.00000000000E+00 0.  1.
         14    1    4    4    0    0 -0.38786384577E+02 -0.97835513324E+01 -0.18895069882E+02  0.44239407445E+02  0.00000000000E+00 0. -1.
         -5    1    5    5    0  502  0.15848527715E+02 -0.26201463231E+02 -0.18758251511E+02  0.36216771059E+02  0.47000000000E+01 0.  1.
         11    1    6    6    0    0  0.13828425123E+03  0.52417587276E+02  0.92881579773E+02  0.17463426197E+03  0.00000000000E+00 0. -1.
        -12    1    6    6    0    0  0.44806989302E+02 -0.18262208641E+01  0.90989526106E+02  0.10144010663E+03  0.00000000000E+00 0.  1.
</event>
<event>
12    1  0.8113184E-002  0.1797739E+03  0.7818608E-02  0.1168460E+00
         21   -1    0    0  503  502  0.00000000000E+00  0.00000000000E+00  0.75097902173E+03  0.75097902173E+03  0.00000000000E+00 0.  1.
         21   -1    0    0  501  503 -0.00000000000E+00 -0.00000000000E+00 -0.45668706060E+02  0.45668706060E+02  0.00000000000E+00 0.  1.
          6    2    1    2  501    0  0.50345047926E+02 -0.31559140924E+01  0.25116594423E+03  0.30887371701E+03  0.17255160931E+03 0.  0.
         24    2    3    3    0    0  0.60657620749E+02  0.43005719834E+02  0.99653898972E+02  0.15008065840E+03  0.84050375084E+02 0.  0.
         -6    2    1    2    0  502 -0.50345047926E+02  0.31559140924E+01  0.45414437144E+03  0.48777401078E+03  0.17068037918E+03 0.  0.
        -24    2    5    5    0    0 -0.68687336596E+02  0.50076329332E+02  0.37937848648E+03  0.39749670204E+03  0.82764745877E+02 0.  0.
          5    1    3    3  501    0 -0.10312572822E+02 -0.46161633926E+02  0.15151204526E+03  0.15879305861E+03  0.47000000000E+01 0. -1.
        -11    1    4    4    0    0  0.79594214181E+02  0.25097365367E+02  0.88755301691E+02  0.12183029286E+03  0.00000000000E+00 0.  1.
         12    1    4    4    0    0 -0.18936593432E+02  0.17908354467E+02  0.10898597281E+02  0.28250365541E+02  0.00000000000E+00 0. -1.
         -5    1    5    5    0  502  0.18342288670E+02 -0.46920415239E+02  0.74765884965E+02  0.90277308746E+02  0.47000000000E+01 0.  1.
         11    1    6    6    0    0 -0.27944016444E+02 -0.20700536693E+02  0.81126930666E+02  0.88266410109E+02  0.00000000000E+00 0. -1.
        -12    1    6    6    0    0 -0.40743320153E+02  0.70776866024E+02  0.29825155581E+03  0.30923029193E+03  0.00000000000E+00 0.  1.
</event>
<event>
12    1  0.8113184E-002  0.2088993E+03  0.7818608E-02  0.1142472E+00
         21   -1    0    0  503  502  0.00000000000E+00  0.00000000000E+00  0.95575341631E+02  0.95575341631E+02  0.00000000000E+00 0. -1.
         21   -1    0    0  501  503 -0.00000000000E+00 -0.00000000000E+00 -0.48375529817E+03  0.48375529817E+03  0.00000000000E+00 0. -1.
          6    2    1    2  501    0  0.73033519935E+02 -0.93160757793E+02 -0.26322723995E+03  0.33604687151E+03  0.17212233490E+03 0.  0.
         24    2    3    3    0    0  0.24971387956E+02 -0.99273140873E+01 -0.39267211438E+02  0.92288878711E+02  0.79077186711E+02 0.  0.
         -6    2    1    2    0  502 -0.73033519935E+02  0.93160757793E+02 -0.12495271658E+03  0.24328376829E+03  0.17193309369E+03 0.  0.
        -24    2    5    5    0    0  0.14124666891E+02  0.86674174987E+02 -0.50363181792E+02  0.12828675099E+03  0.78797979509E+02 0.  0.
          5    1    3    3  501    0  0.48062131979E+02 -0.83233443705E+02 -0.22396002852E+03  0.24375799280E+03  0.47000000000E+01 0. -1.
        -13    1    4    4    0    0  0.51165256697E+02  0.10033757510E+01 -0.38245422235E+02  0.63887421123E+02  0.00000000000E+00 0.  1.
         14    1    4    4    0    0 -0.26193868741E+02 -0.10930689838E+02 -0.10217892032E+01  0.28401457588E+02  0.00000000000E+00 0. -1.
         -5    1    5    5    0  502 -0.87158186826E+02  0.64865828057E+01 -0.74589534792E+02  0.11499701730E+03  0.47000000000E+01 0.  1.
         11    1    6    6    0    0  0.44866734504E+01  0.57032887813E+02  0.12103748202E+02  0.58475475641E+02  0.00000000000E+00 0. -1.
        -12    1    6    6    0    0  0.96379934410E+01  0.29641287174E+02 -0.62466929993E+02  0.69811275348E+02  0.00000000000E+00 0.  1.
</event>
<event>
12    1  0.8113184E-002  0.1748731E+03  0.7818608E-02  0.1173197E+00
         21   -1    0    0  501  502  0.00000000000E+00  0.00000000000E+00  0.25225167747E+04  0.25225167747E+04  0.00000000000E+00 0. -1.
         21   -1    0    0  502  503 -0.00000000000E+00 -0.00000000000E+00 -0.15582467605E+02  0.15582467605E+02  0.00000000000E+00 0. -1.
         -6    2    1    2    0  503  0.25522420303E+01  0.30979983757E+02  0.64386193650E+03  0.66683783827E+03  0.17072854462E+03 0.  0.
        -24    2    3    3    0    0  0.34876526215E+02  0.72419975206E+02  0.51419211168E+03  0.52684324656E+03  0.81910035076E+02 0.  0.
          6    2    1    2  501    0 -0.25522420303E+01 -0.30979983757E+02  0.18630723706E+04  0.18712614040E+04  0.17208809025E+03 0.  0.
         24    2    5    5    0    0 -0.50697312194E+02 -0.28595882770E+02  0.67194142921E+03  0.67914620773E+03  0.79663951788E+02 0.  0.
          5    1    5    5  501    0  0.48145070163E+02 -0.23841009864E+01  0.11911309414E+04  0.11921151963E+04  0.47000000000E+01 0. -1.
        -11    1    6    6    0    0 -0.30579895234E+02  0.26151778422E+02  0.28933173749E+03  0.29211624369E+03  0.00000000000E+00 0.  1.
         12    1    6    6    0    0 -0.20117416960E+02 -0.54747661192E+02  0.38260969171E+03  0.38702996404E+03  0.00000000000E+00 0. -1.
         -5    1    3    3    0  503 -0.32324284184E+02 -0.41439991449E+02  0.12966982482E+03  0.13999459171E+03  0.47000000000E+01 0.  1.
         13    1    4    4    0    0  0.18706621290E+02  0.70303766724E+02  0.49987901675E+03  0.50514511646E+03  0.00000000000E+00 0. -1.
        -14    1    4    4    0    0  0.16169904924E+02  0.21162084821E+01  0.14313094934E+02  0.21698130108E+02  0.00000000000E+00 0.  1.
</event>
<event>
12    1  0.8113184E-002  0.1910647E+03  0.7818608E-02  0.1157661E+00
         21   -1    0    0  503  502  0.00000000000E+00  0.00000000000E+00  0.23189158410E+02  0.23189158410E+02  0.00000000000E+00 0. -1.
         21   -1    0    0  501  503 -0.00000000000E+00 -0.00000000000E+00 -0.21349677091E+04  0.21349677091E+04  0.00000000000E+00 0. -1.
          6    2    1    2  501    0 -0.32727037546E+02  0.75955912322E+02 -0.16102963327E+04  0.16215097518E+04  0.17146205566E+03 0.  0.
         24    2    3    3    0    0  0.76046859143E+00 -0.22722816414E+02 -0.62222613698E+03  0.62794862827E+03  0.81469070797E+02 0.  0.
         -6    2    1    2    0  502  0.32727037546E+02 -0.75955912322E+02 -0.50148221797E+03  0.53664711567E+03  0.17223632664E+03 0.  0.
        -24    2    5    5    0    0  0.69506645193E+02 -0.46904134643E+01 -0.22686753579E+03  0.25052332334E+03  0.80248881862E+02 0.  0.
          5    1    3    3  501    0 -0.33487506137E+02  0.98678728736E+02 -0.98807019571E+03  0.99356112354E+03  0.47000000000E+01 0. -1.
        -11    1    4    4    0    0 -0.37207295245E+02 -0.19081087743E+02 -0.22157565285E+03  0.22548667514E+03  0.00000000000E+00 0.  1.
         12    1    4    4    0    0  0.37967763837E+02 -0.36417286707E+01 -0.40065048414E+03  0.40246195313E+03  0.00000000000E+00 0. -1.
         -5    1    5    5    0  502 -0.36779607647E+02 -0.71265498858E+02 -0.27461468219E+03  0.28612379233E+03  0.47000000000E+01 0.  1.
         11    1    6    6    0    0  0.58015374231E+02 -0.11888667016E+02 -0.64396113380E+02  0.87487047436E+02  0.00000000000E+00 0. -1.
        -12    1    6    6    0    0  0.11491270962E+02  0.71982535519E+01 -0.16247142241E+03  0.16303627591E+03  0.00000000000E+00 0.  1.
</event>
<event>
12    1  0.8113184E-002  0.2493476E+03  0.7818608E-02  0.1114494E+00
         21   -1    0    0  501  502  0.00000000000E+00  0.00000000000E+00  0.20763252033E+04  0.20763252033E+04  0.00000000000E+00 0. -1.
         21   -1    0    0  502  503 -0.00000000000E+00 -0.00000000000E+00 -0.39254876058E+02  0.39254876058E+02  0.00000000000E+00 0.  1.
         -6    2    1    2    0  503  0.16111158211E+03  0.69981601234E+02  0.48015413341E+03  0.53882320505E+03  0.17008259190E+03 0.  0.
        -24    2    3    3    0    0  0.14889018829E+03  0.11151729780E+03  0.39668966651E+03  0.44467978366E+03  0.75980409331E+02 0.  0.
          6    2    1    2  501    0 -0.16111158211E+03 -0.69981601234E+02  0.15569161939E+04  0.15767568743E+04  0.17697412144E+03 0.  0.
         24    2    5    5    0    0 -0.30373851720E+02  0.23370883663E+02  0.55053442631E+03  0.55762322626E+03  0.79917074770E+02 0.  0.
          5    1    5    5  501    0 -0.13073773039E+03 -0.93352484897E+02  0.10063817676E+04  0.10191336481E+04  0.47000000000E+01 0. -1.
        -11    1    6    6    0    0 -0.12338792757E+02  0.77638555327E+01  0.12918364974E+02  0.19478383224E+02  0.00000000000E+00 0.  1.
         12    1    6    6    0    0 -0.18035058963E+02  0.15607028130E+02  0.53761606134E+03  0.53814484304E+03  0.00000000000E+00 0. -1.
         -5    1    3    3    0  503  0.12221393825E+02 -0.41535696569E+02  0.83464466895E+02  0.94143421388E+02  0.47000000000E+01 0.  1.
         11    1    4    4    0    0  0.24286666573E+02  0.54791426237E+02  0.16519236932E+03  0.17572837404E+03  0.00000000000E+00 0. -1.
        -12    1    4    4    0    0  0.12460352171E+03  0.56725871566E+02  0.23149729719E+03  0.26895140962E+03  0.00000000000E+00 0.  1.
</event>
<event>
12    1  0.8113184E-002  0.2114708E+03  0.7818608E-02  0.1143091E+00
         21   -1    0    0  503  502  0.00000000000E+00  0.00000000000E+00  0.78072344653E+03  0.78072344653E+03  0.00000000000E+00 0.  1.
         21   -1    0    0  501  503 -0.00000000000E+00 -0.00000000000E+00 -0.60936418950E+02  0.60936418950E+02  0.00000000000E+00 0.  1.
          6    2    1    2  501    0  0.71229099666E+02  0.73321749535E+02  0.49404940380E+03  0.53234227696E+03  0.16986413058E+03 0.  0.
         24    2    3    3    0    0  0.74862013622E+01  0.75816719372E+02  0.17660857686E+03  0.20852110631E+03  0.80537222503E+02 0.  0.
         -6    2    1    2    0  502 -0.71229099666E+02 -0.73321749535E+02  0.22573762379E+03  0.30931758852E+03  0.18512220877E+03 0.  0.
        -24    2    5    5    0    0 -0.53458103921E+02  0.29613650926E+02  0.14833567091E+03  0.17922278745E+03  0.79891170217E+02 0.  0.
          5    1    3    3  501    0  0.63742898304E+02 -0.24949698365E+01  0.31744082693E+03  0.32382117065E+03  0.47000000000E+01 0. -1.
        -11    1    4    4    0    0 -0.45220790275E+01  0.86292277398E+02  0.17106178752E+03  0.19164796239E+03  0.00000000000E+00 0.  1.
         12    1    4    4    0    0  0.12008280390E+02 -0.10475558026E+02  0.55467893425E+01  0.16873143924E+02  0.00000000000E+00 0. -1.
         -5    1    5    5    0  502 -0.17770995745E+02 -0.10293540046E+03  0.77401952876E+02  0.13009480108E+03  0.47000000000E+01 0.  1.
         13    1    6    6    0    0 -0.93148384259E+01  0.28293366737E+02  0.62552353013E+01  0.30436964121E+02  0.00000000000E+00 0. -1.
        -14    1    6    6    0    0 -0.44143265495E+02  0.13202841893E+01  0.14208043561E+03  0.14878582332E+03  0.00000000000E+00 0.  1.
</event>
<event>
12    1  0.8113184E-002  0.2018658E+03  0.7818608E-02  0.1149126E+00
         21   -1    0    0  501  502  0.00000000000E+00  0.00000000000E+00  0.54653839655E+02  0.54653839655E+02  0.00000000000E+00 0. -1.
         21   -1    0    0  502  503 -0.00000000000E+00 -0.00000000000E+00 -0.80179845201E+03  0.80179845201E+03  0.00000000000E+00 0.  1.
         -6    2    1    2    0  503 -0.62153002017E+01  0.10129873567E+03 -0.50641011065E+03  0.54516146085E+03  0.17449858001E+03 0.  0.
        -24    2    3    3    0    0  0.46652862102E+02  0.11428007479E+03 -0.38344697412E+03  0.41060448148E+03  0.79548935997E+02 0.  0.
          6    2    1    2  501    0  0.62153002017E+01 -0.10129873567E+03 -0.24073450170E+03  0.31129083081E+03  0.16925961489E+03 0.  0.
         24    2    5    5    0    0  0.21857279965E+02  0.97575535624E+01 -0.12004353174E+03  0.14646798306E+03  0.80433015678E+02 0.  0.
          5    1    5    5  501    0 -0.15641979763E+02 -0.11105628923E+03 -0.12069096996E+03  0.16482284775E+03  0.47000000000E+01 0. -1.
        -13    1    6    6    0    0  0.13532529500E+02 -0.28229189671E+02 -0.95457376044E+02  0.10045957966E+03  0.00000000000E+00 0.  1.
         14    1    6    6    0    0  0.83247504646E+01  0.37986743233E+02 -0.24586155693E+02  0.46008403401E+02  0.00000000000E+00 0. -1.
         -5    1    3    3    0  503 -0.52868162304E+02 -0.12981339119E+02 -0.12296313653E+03  0.13455697937E+03  0.47000000000E+01 0.  1.
         13    1    4    4    0    0  0.18402665492E+02  0.64992973717E+02 -0.94699964586E+02  0.11632208742E+03  0.00000000000E+00 0. -1.
        -14    1    4    4    0    0  0.28250196610E+02  0.49287101073E+02 -0.28874700953E+03  0.29428239406E+03  0.00000000000E+00 0.  1.
</event>
<event>
12    1  0.8113184E-002  0.2124814E+03  0.7818608E-02  0.1139753E+00
         21   -1    0    0  501  502  0.00000000000E+00  0.00000000000E+00  0.48297044241E+03  0.48297044241E+03  0.00000000000E+00 0. -1.
         21   -1    0    0  502  503 -0.00000000000E+00 -0.00000000000E+00 -0.95593709442E+02  0.95593709442E+02  0.00000000000E+00 0.  1.
         -6    2    1    2    0  503 -0.10812456177E+03 -0.61266132582E+02  0.24005292545E+03  0.32058347006E+03  0.17234817783E+03 0.  0.
        -24    2    3    3    0    0 -0.58548430057E+01 -0.73186084930E+02  0.13149715078E+03  0.17089169723E+03  0.80758834222E+02 0.  0.
          6    2    1    2  501    0  0.10812456177E+03  0.61266132582E+02  0.14732380752E+03  0.25798068179E+03  0.17147964327E+03 0.  0.
         24    2    5    5    0    0  0.85299922599E+02 -0.23430683592E+02  0.11018867828E+03  0.16260970797E+03  0.80469239940E+02 0.  0.
          5    1    5    5  501    0  0.22824639167E+02  0.84696816174E+02  0.37135129237E+02  0.95370973816E+02  0.47000000000E+01 0. -1.
        -11    1    6    6    0    0 -0.11856592051E+02 -0.18696678610E+02  0.23932611951E+02  0.32602369253E+02  0.00000000000E+00 0.  1.
         12    1    6    6    0    0  0.97156514650E+02 -0.47340049823E+01  0.86256066327E+02  0.13000733872E+03  0.00000000000E+00 0. -1.
         -5    1    3    3    0  503 -0.10226971876E+03  0.11919952348E+02  0.10855577467E+03  0.14969177283E+03  0.47000000000E+01 0.  1.
         11    1    4    4    0    0  0.10446559945E+02 -0.92234377931E+00 -0.78347792163E+01  0.13090649262E+02  0.00000000000E+00 0. -1.
        -12    1    4    4    0    0 -0.16301402951E+02 -0.72263741151E+02  0.13933193000E+03  0.15780104797E+03  0.00000000000E+00 0.  1.
</event>
<event>
12    1  0.8113184E-002  0.2426940E+03  0.7818608E-02  0.1118128E+00
         21   -1    0    0  503  502  0.00000000000E+00  0.00000000000E+00  0.10232745369E+04  0.10232745369E+04  0.00000000000E+00 0. -1.
         21   -1    0    0  501  503 -0.00000000000E+00 -0.00000000000E+00 -0.85242388449E+02  0.85242388449E+02  0.00000000000E+00 0.  1.
          6    2    1    2  501    0  0.60908485689E+02  0.15934865121E+03  0.15267009526E+03  0.28672028048E+03  0.17262249269E+03 0.  0.
         24    2    3    3    0    0  0.37064484448E+02  0.12995410197E+03  0.30459612501E+02  0.15869657949E+03  0.77427202729E+02 0.  0.
         -6    2    1    2    0  502 -0.60908485689E+02 -0.15934865121E+03  0.78536205320E+03  0.82179664487E+03  0.17162265191E+03 0.  0.
        -24    2    5    5    0    0  0.11526099324E+02 -0.65218823393E+02  0.51444053088E+03  0.52594574518E+03  0.87083415038E+02 0.  0.
          5    1    3    3  501    0  0.23844001241E+02  0.29394549243E+02  0.12221048276E+03  0.12802370100E+03  0.47000000000E+01 0. -1.
        -13    1    4    4    0    0  0.54175350450E+02  0.12547891576E+03  0.19948924498E+02  0.13812272255E+03  0.00000000000E+00 0.  1.
         14    1    4    4    0    0 -0.17110866002E+02  0.44751862062E+01  0.10510688003E+02  0.20573856936E+02  0.00000000000E+00 0. -1.
         -5    1    5    5    0  502 -0.72434585013E+02 -0.94129827816E+02  0.27092152232E+03  0.29585089969E+03  0.47000000000E+01 0.  1.
         11    1    6    6    0    0 -0.20754355868E+02 -0.57267182764E+02  0.18363234636E+03  0.19347121785E+03  0.00000000000E+00 0. -1.
        -12    1    6    6    0    0  0.32280455192E+02 -0.79516406287E+01  0.33080818452E+03  0.33247452733E+03  0.00000000000E+00 0.  1.
</event>
<event>
12    1  0.8113184E-002  0.1903001E+03  0.7818608E-02  0.1158865E+00
         21   -1    0    0  501  502  0.00000000000E+00  0.00000000000E+00  0.86249012884E+03  0.86249012884E+03  0.00000000000E+00 0.  1.
         21   -1    0    0  502  503 -0.00000000000E+00 -0.00000000000E+00 -0.55466894349E+02  0.55466894349E+02  0.00000000000E+00 0.  1.
         -6    2    1    2    0  503 -0.70748082842E+02  0.94416348725E+01  0.16947867432E+03  0.25261711594E+03  0.17319916432E+03 0.  0.
        -24    2    3    3    0    0 -0.29912483202E+01  0.67534272423E+02  0.11266317280E+03  0.14671227953E+03  0.65281520675E+02 0.  0.
          6    2    1    2  501    0  0.70748082842E+02 -0.94416348725E+01  0.63754456016E+03  0.66533990724E+03  0.17640773872E+03 0.  0.
         24    2    5    5    0    0  0.94494627097E+02 -0.50157252497E+02  0.54950648812E+03  0.56536765104E+03  0.78982376643E+02 0.  0.
          5    1    5    5  501    0 -0.23746544255E+02  0.40715617624E+02  0.88038072040E+02  0.99972256207E+02  0.47000000000E+01 0. -1.
        -13    1    6    6    0    0  0.10232935179E+03 -0.26512982896E+02  0.39660990342E+03  0.41045541779E+03  0.00000000000E+00 0.  1.
         14    1    6    6    0    0 -0.78347246968E+01 -0.23644269601E+02  0.15289658470E+03  0.15491223324E+03  0.00000000000E+00 0. -1.
         -5    1    3    3    0  503 -0.67756834521E+02 -0.58092637551E+02  0.56815501527E+02  0.10590483641E+03  0.47000000000E+01 0.  1.
         13    1    4    4    0    0 -0.23103170625E+02  0.58158272402E+02  0.10676221304E+03  0.12375100515E+03  0.00000000000E+00 0. -1.
        -14    1    4    4    0    0  0.20111922305E+02  0.93760000216E+01  0.59009597578E+01  0.22961274383E+02  0.00000000000E+00 0.  1.
</event>
<event>
12    1  0.8113184E-002  0.1979150E+03  0.7818608E-02  0.1151632E+00
         21   -1    0    0  503  502  0.00000000000E+00  0.00000000000E+00  0.37494783000E+03  0.37494783000E+03  0.00000000000E+00 0. -1.
         21   -1    0    0  501  503 -0.00000000000E+00 -0.00000000000E+00 -0.10419271164E+03  0.10419271164E+03  0.00000000000E+00 0. -1.
          6    2    1    2  501    0  0.66884048529E+02  0.71612102165E+02  0.13926629929E+03  0.24200297650E+03  0.17195513773E+03 0.  0.
         24    2    3    3    0    0  0.62045394264E+02  0.11488077973E+03  0.99148165426E+02  0.18261319877E+03  0.80436292538E+02 0.  0.
         -6    2    1    2    0  502 -0.66884048529E+02 -0.71612102165E+02  0.13148881907E+03  0.23713756513E+03  0.17129841252E+03 0.  0.
        -24    2    5    5    0    0 -0.77173614688E+02 -0.10582532481E+03  0.12911281715E+03  0.20102447664E+03  0.81153893802E+02 0.  0.
          5    1    3    3  501    0  0.48386542642E+01 -0.43268677569E+02  0.40118133864E+02  0.59389777726E+02  0.47000000000E+01 0. -1.
        -11    1    4    4    0    0  0.51709751239E+02  0.16460395372E+02  0.38666794708E+02  0.66633054875E+02  0.00000000000E+00 0.  1.
         12    1    4    4    0    0  0.10335643025E+02  0.98420384362E+02  0.60481370719E+02  0.11598014390E+03  0.00000000000E+00 0. -1.
         -5    1    5    5    0  502  0.10289566159E+02  0.34213222646E+02  0.23760019166E+01  0.36113088495E+02  0.47000000000E+01 0.  1.
         13    1    6    6    0    0 -0.50304000248E+02 -0.31025914704E+02  0.10042606759E+03  0.11652679896E+03  0.00000000000E+00 0. -1.
        -14    1    6    6    0    0 -0.26869614440E+02 -0.74799410107E+02  0.28686749561E+02  0.84497677678E+02  0.00000000000E+00 0.  1.
</event>
<event>
12    1  0.8113184E-002  0.1771878E+03  0.7818608E-02  0.1170676E+00
         21   -1    0    0  501  502  0.00000000000E+00  0.00000000000E+00  0.25088763782E+03  0.25088763782E+03  0.00000000000E+00 0.  1.
         21   -1    0    0  502  503 -0.00000000000E+00 -0.00000000000E+00 -0.12478737814E+03  0.12478737814E+03  0.00000000000E+00 0. -1.
         -6    2    1    2    0  503 -0.41764871134E+02  0.12510762373E+02  0.63016622070E+02  0.18759246567E+03  0.17122796175E+03 0.  0.
        -24    2    3    3    0    0  0.44265318118E+02  0.70908392066E+01  0.29243939978E+02  0.94892664781E+02  0.78356310627E+02 0.  0.
          6    2    1    2  501    0  0.41764871134E+02 -0.12510762373E+02  0.63083637603E+02  0.18808255028E+03  0.17174014310E+03 0.  0.
         24    2    5    5    0    0 -0.18249480671E+02  0.38232511504E+02  0.51429869148E+01  0.90328720342E+02  0.79611927018E+02 0.  0.
          5    1    5    5  501    0  0.60014351806E+02 -0.50743273877E+02  0.57940650688E+02  0.97753829943E+02  0.47000000000E+01 0. -1.
        -11    1    6    6    0    0 -0.25855889229E+02  0.26482799902E+02  0.38954983103E+02  0.53734127024E+02  0.00000000000E+00 0.  1.
         12    1    6    6    0    0  0.76064085572E+01  0.11749711602E+02 -0.33811996188E+02  0.36594593318E+02  0.00000000000E+00 0. -1.
         -5    1    3    3    0  503 -0.86030189252E+02  0.54199231666E+01  0.33772682092E+02  0.92699800893E+02  0.47000000000E+01 0.  1.
         11    1    4    4    0    0  0.30939849311E+00  0.21084847832E+02 -0.18826865009E+02  0.28268664304E+02  0.00000000000E+00 0. -1.
        -12    1    4    4    0    0  0.43955919625E+02 -0.13994008625E+02  0.48070804987E+02  0.66624000477E+02  0.00000000000E+00 0.  1.
</event>
<event>
12    1  0.8113184E-002  0.1746936E+03  0.7818608E-02  0.1173099E+00
         21   -1    0    0  501  502  0.00000000000E+00  0.00000000000E+00  0.28270004736E+02  0.28270004736E+02  0.00000000000E+00 0.  1.
         21   -1    0    0  502  503 -0.00000000000E+00 -0.00000000000E+00 -0.19947150533E+04  0.19947150533E+04  0.00000000000E+00 0.  1.
         -6    2    1    2    0  503 -0.21000701087E+02  0.22702784084E+02 -0.16692608637E+04  0.16783770972E+04  0.17193430003E+03 0.  0.
        -24    2    3    3    0    0 -0.37856108388E+02  0.76473227336E+02 -0.10741735970E+04  0.10806093244E+04  0.81156366825E+02 0.  0.
          6    2    1    2  501    0  0.21000701087E+02 -0.22702784084E+02 -0.29718418487E+03  0.34460796083E+03  0.17169671248E+03 0.  0.
         24    2    5    5    0    0  0.94810581937E+01 -0.82768759132E+02 -0.23020188177E+03  0.25378206992E+03  0.66872077043E+02 0.  0.
          5    1    5    5  501    0  0.11519642893E+02  0.60065975049E+02 -0.66982303098E+02  0.90825890908E+02  0.47000000000E+01 0. -1.
        -13    1    6    6    0    0 -0.28436892170E+02 -0.45399898215E+02 -0.11293388706E+03  0.12499548168E+03  0.00000000000E+00 0.  1.
         14    1    6    6    0    0  0.37917950364E+02 -0.37368860917E+02 -0.11726799471E+03  0.12878658824E+03  0.00000000000E+00 0. -1.
         -5    1    3    3    0  503  0.16855407301E+02 -0.53770443253E+02 -0.59508726663E+03  0.59776777282E+03  0.47000000000E+01 0.  1.
         13    1    4    4    0    0 -0.31769806192E+02  0.74439414588E+02 -0.10697683436E+04  0.10728256410E+04  0.00000000000E+00 0. -1.
        -14    1    4    4    0    0 -0.60863021963E+01  0.20338127479E+01 -0.44052534414E+01  0.77836833570E+01  0.00000000000E+00 0.  1.
</event>
<event>
12    1  0.8113184E-002  0.1920174E+03  0.7818608E-02  0.1158544E+00
         21   -1    0    0  501  502  0.00000000000E+00  0.00000000000E+00  0.13691389878E+04  0.13691389878E+04  0.00000000000E+00 0. -1.
         21   -1    0    0  502  503 -0.00000000000E+00 -0.00000000000E+00 -0.10899870491E+03  0.10899870491E+03  0.00000000000E+00 0. -1.
         -6    2    1    2    0  503  0.65620476763E+02 -0.23930859852E+02 -0.18968950223E+02  0.18469612348E+03  0.16992381803E+03 0.  0.
        -24    2    3    3    0    0  0.67242421300E+02 -0.48528033582E+02 -0.65087263901E+02  0.13219240441E+03  0.79761937016E+02 0.  0.
          6    2    1    2  501    0 -0.65620476763E+02  0.23930859852E+02  0.12791092331E+04  0.12934415692E+04  0.17886287968E+03 0.  0.
         24    2    5    5    0    0 -0.19307250425E+02 -0.46080442289E+02  0.42972747758E+03  0.43990893716E+03  0.79737011005E+02 0.  0.
          5    1    5    5  501    0 -0.46313226337E+02  0.70011302142E+02  0.84938175550E+03  0.85353263203E+03  0.47000000000E+01 0. -1.
        -13    1    6    6    0    0  0.29184659188E+02 -0.11312246368E+02  0.98615842917E+02  0.10346398274E+03  0.00000000000E+00 0.  1.
         14    1    6    6    0    0 -0.48491909613E+02 -0.34768195922E+02  0.33111163466E+03  0.33644495442E+03  0.00000000000E+00 0. -1.
         -5    1    3    3    0  503 -0.16219445371E+01  0.24597173730E+02  0.46118313678E+02  0.52503719069E+02  0.47000000000E+01 0.  1.
         13    1    4    4    0    0  0.22123700465E+02 -0.44439259431E+01 -0.65324063502E+02  0.69111792572E+02  0.00000000000E+00 0. -1.
        -14    1    4    4    0    0  0.45118720834E+02 -0.44084107639E+02  0.23679960112E+00  0.63080611840E+02  0.00000000000E+00 0.  1.
</event>
<event>
12    1  0.8113184E-002  0.2256379E+03  0.7818608E-02  0.1129753E+00
         21   -1    0    0  501  502  0.00000000000E+00  0.00000000000E+00  0.46622593977E+03  0.46622593977E+03  0.00000000000E+00 0. -1.
         21   -1    0    0  502  503 -0.00000000000E+00 -0.00000000000E+00 -0.13503781962E+03  0.13503781962E+03  0.00000000000E+00 0.  1.
         -6    2    1    2    0  503 -0.12572424696E+03  0.72860343649E+02  0.34068188980E+02  0.22819529045E+03  0.17261875081E+03 0.  0.
        -24    2    3    3    0    0 -0.81583204127E+02  0.99398388061E+02  0.71300061788E+02  0.16446930033E+03  0.73692558617E+02 0.  0.
          6    2    1    2  501    0  0.12572424696E+03 -0.72860343649E+02  0.29711993117E+03  0.37306846894E+03  0.17258219221E+03 0.  0.
         24    2    5    5    0    0  0.33972681150E+02 -0.90942709874E+02  0.12490765909E+03  0.17704684143E+03  0.79491768235E+02 0.  0.
          5    1    5    5  501    0  0.91751565807E+02  0.18082366225E+02  0.17221227208E+03  0.19602162751E+03  0.47000000000E+01 0. -1.
        -11    1    6    6    0    0  0.30731841648E+02 -0.11041194034E+02  0.51708825000E+01  0.33061943116E+02  0.00000000000E+00 0.  1.
         12    1    6    6    0    0  0.32408395019E+01 -0.79901515840E+02  0.11973677659E+03  0.14398489831E+03  0.00000000000E+00 0. -1.
         -5    1    3    3    0  503 -0.44141042831E+02 -0.26538044412E+02 -0.37231872808E+02  0.63725990115E+02  0.47000000000E+01 0.  1.
         11    1    4    4    0    0 -0.44929659303E+02  0.21899585982E+02 -0.43002075766E+01  0.50167299473E+02  0.00000000000E+00 0. -1.
        -12    1    4    4    0    0 -0.36653544824E+02  0.77498802080E+02  0.75600269365E+02  0.11430200086E+03  0.00000000000E+00 0.  1.
</event>
<event>
12    1  0.8113184E-002  0.3279272E+03  0.7818608E-02  0.1072097E+00
         21   -1    0    0  503  502  0.00000000000E+00  0.00000000000E+00  0.69937938390E+03  0.69937938390E+03  0.00000000000E+00 0. -1.
         21   -1    0    0  501  503 -0.00000000000E+00 -0.00000000000E+00 -0.41041934735E+03  0.41041934735E+03  0.00000000000E+00 0.  1.
          6    2    1    2  501    0 -0.27616615210E+03  0.40634662500E+02 -0.29444533782E+03  0.44072018310E+03  0.17209678516E+03 0.  0.
         24    2    3    3    0    0 -0.21887032038E+03  0.11080132050E+02 -0.13691304871E+03  0.27044160337E+03  0.79790296746E+02 0.  0.
         -6    2    1    2    0  502  0.27616615210E+03 -0.40634662500E+02  0.58340537436E+03  0.66907854816E+03  0.17142156634E+03 0.  0.
        -24    2    5    5    0    0  0.16953999782E+03 -0.70041205785E+01  0.48605846310E+03  0.52075909138E+03  0.78385796778E+02 0.  0.
          5    1    3    3  501    0 -0.57295831716E+02  0.29554530449E+02 -0.15753228911E+03  0.17027857973E+03  0.47000000000E+01 0. -1.
        -11    1    4    4    0    0 -0.13824233878E+03  0.36259218829E+02 -0.11428858324E+03  0.18299605308E+03  0.00000000000E+00 0.  1.
         12    1    4    4    0    0 -0.80627981601E+02 -0.25179086779E+02 -0.22624465464E+02  0.87445550291E+02  0.00000000000E+00 0. -1.
         -5    1    5    5    0  502  0.10662615428E+03 -0.33630541921E+02  0.97346911260E+02  0.14831945678E+03  0.47000000000E+01 0.  1.
         13    1    6    6    0    0  0.60040255927E+02  0.41891324226E+01  0.28750515349E+03  0.29373728815E+03  0.00000000000E+00 0. -1.
        -14    1    6    6    0    0  0.10949974189E+03 -0.11193253001E+02  0.19855330961E+03  0.22702180323E+03  0.00000000000E+00 0.  1.
</event>
<event>
12    1  0.8113184E-002  0.1874351E+03  0.7818608E-02  0.1160803E+00
         21   -1    0    0  503  502  0.00000000000E+00  0.00000000000E+00  0.71672519938E+02  0.71672519938E+02  0.00000000000E+00 0. -1.
         21   -1    0    0  501  503 -0.00000000000E+00 -0.00000000000E+00 -0.54835084561E+03  0.54835084561E+03  0.00000000000E+00 0. -1.
          6    2    1    2  501    0  0.55357938231E+02 -0.50700423493E+02 -0.33941835833E+03  0.38773281024E+03  0.17174654551E+03 0.  0.
         24    2    3    3    0    0  0.67468695801E+02 -0.94772699108E+02 -0.24537683827E+03  0.28306699241E+03  0.79895181471E+02 0.  0.
         -6    2    1    2    0  502 -0.55357938231E+02  0.50700423493E+02 -0.13725996734E+03  0.23229055531E+03  0.17170780175E+03 0.  0.
        -24    2    5    5    0    0 -0.99070256608E+02  0.53856393594E+02 -0.79871253289E+02  0.15992840066E+03  0.80512417425E+02 0.  0.
          5    1    3    3  501    0 -0.12110757570E+02  0.44072275614E+02 -0.94041520054E+02  0.10466581782E+03  0.47000000000E+01 0. -1.
        -13    1    4    4    0    0  0.55722148215E+02 -0.96364321259E+02 -0.14913306483E+03  0.18609597319E+03  0.00000000000E+00 0.  1.
         14    1    4    4    0    0  0.11746547586E+02  0.15916221514E+01 -0.96243773446E+02  0.96971019219E+02  0.00000000000E+00 0. -1.
         -5    1    5    5    0  502  0.43712318377E+02 -0.31559701009E+01 -0.57388714051E+02  0.72362154650E+02  0.47000000000E+01 0.  1.
         11    1    6    6    0    0 -0.42540744409E+02  0.47486394219E+02 -0.23815718358E+01  0.63799251212E+02  0.00000000000E+00 0. -1.
        -12    1    6    6    0    0 -0.56529512199E+02  0.63699993756E+01 -0.77489681454E+02  0.96129149446E+02  0.00000000000E+00 0.  1.
</event>
<event>
12    1  0.8113184E-002  0.3484333E+03  0.7818608E-02  0.1063452E+00
         21   -1    0    0  501  502  0.00000000000E+00  0.00000000000E+00  0.51792565894E+03  0.51792565894E+03  0.00000000000E+00 0. -1.
         21   -1    0    0  502  503 -0.00000000000E+00 -0.00000000000E+00 -0.23992738495E+03  0.23992738495E+03  0.00000000000E+00 0.  1.
         -6    2    1    2    0  503  0.29539866281E+03 -0.67471791084E+02  0.75716615982E+02  0.35656524811E+03  0.17202603769E+03 0.  0.
        -24    2    3    3    0    0  0.25154247834E+03 -0.91173435064E+02  0.17764039546E+02  0.27997723365E+03  0.80532456759E+02 0.  0.
          6    2    1    2  501    0 -0.29539866281E+03  0.67471791084E+02  0.20228165801E+03  0.40128779577E+03  0.16822964449E+03 0.  0.
         24    2    5    5    0    0 -0.28929272041E+03  0.64469464954E+02  0.13812892934E+03  0.33660426548E+03  0.79851364582E+02 0.  0.
          5    1    5    5  501    0 -0.61059424020E+01  0.30023261298E+01  0.64152728674E+02  0.64683530292E+02  0.47000000000E+01 0. -1.
        -13    1    6    6    0    0 -0.21584930079E+02  0.30041679954E+02  0.14632657942E+02  0.39780980625E+02  0.00000000000E+00 0.  1.
         14    1    6    6    0    0 -0.26770779033E+03  0.34427785000E+02  0.12349627139E+03  0.29682328485E+03  0.00000000000E+00 0. -1.
         -5    1    3    3    0  503  0.43856184474E+02  0.23701643980E+02  0.57952576436E+02  0.76588014464E+02  0.47000000000E+01 0.  1.
         11    1    4    4    0    0  0.11568611555E+02  0.30081179958E+01  0.18685608480E+02  0.22181828407E+02  0.00000000000E+00 0. -1.
        -12    1    4    4    0    0  0.23997386678E+03 -0.94181553060E+02 -0.92156893395E+00  0.25779540524E+03  0.00000000000E+00 0.  1.
</event>
<event>
12    1  0.8113184E-002  0.1864423E+03  0.7818608E-02  0.1161850E+00
         21   -1    0    0  501  502  0.00000000000E+00  0.00000000000E+00  0.18528686283E+03  0.18528686283E+03  0.00000000000E+00 0. -1.
         21   -1    0    0  502  503 -0.00000000000E+00 -0.00000000000E+00 -0.19074188795E+03  0.19074188795E+03  0.00000000000E+00 0. -1.
         -6    2    1    2    0  503  0.48811818874E+02 -0.49871708783E+02  0.23626406281E+02  0.18733205608E+03  0.17223620746E+03 0.  0.
        -24    2    3    3    0    0 -0.18723918489E+02 -0.69848965073E+02 -0.16430444163E+02  0.10617290467E+03  0.75981992238E+02 0.  0.
          6    2    1    2  501    0 -0.48811818874E+02  0.49871708783E+02 -0.29081431404E+02  0.18869669471E+03  0.17288994170E+03 0.  0.
         24    2    5    5    0    0 -0.98554072179E+01  0.76245129250E+02  0.28466549455E+02  0.11421837963E+03  0.79530151647E+02 0.  0.
          5    1    5    5  501    0 -0.38956411656E+02 -0.26373420468E+02 -0.57547980860E+02  0.74478315081E+02  0.47000000000E+01 0. -1.
        -11    1    6    6    0    0 -0.20437295660E+01 -0.54386531090E+01  0.31573022350E+02  0.32103138763E+02  0.00000000000E+00 0.  1.
         12    1    6    6    0    0 -0.78116776519E+01  0.81683782359E+02 -0.31064728942E+01  0.82115240864E+02  0.00000000000E+00 0. -1.
         -5    1    3    3    0  503  0.67535737363E+02  0.19977256290E+02  0.40056850444E+02  0.81159151409E+02  0.47000000000E+01 0.  1.
         11    1    4    4    0    0 -0.37957320423E+02 -0.13001041663E+02  0.87928688668E+01  0.41074320456E+02  0.00000000000E+00 0. -1.
        -12    1    4    4    0    0  0.19233401934E+02 -0.56847923410E+02 -0.25223313030E+02  0.65098584210E+02  0.00000000000E+00 0.  1.
</event>
<event>
12    1  0.8113184E-002  0.2439338E+03  0.7818608E-02  0.1117485E+00
         21   -1    0    0  501  502  0.00000000000E+00  0.00000000000E+00  0.26267478870E+03  0.26267478870E+03  0.00000000000E+00 0.  1.
         21   -1    0    0  502  503 -0.00000000000E+00 -0.00000000000E+00 -0.30373329776E+03  0.30373329776E+03  0.00000000000E+00 0.  1.
         -6    2    1    2    0  503  0.16181717923E+03 -0.56253143176E+02 -0.16485280538E+03  0.29441492303E+03  0.17365046460E+03 0.  0.
        -24    2    3    3    0    0  0.87054104574E+02  0.35829216495E+02 -0.86918025390E+02  0.15241281662E+03  0.82539527832E+02 0.  0.
          6    2    1    2  501    0 -0.16181717923E+03  0.56253143176E+02  0.12379429632E+03  0.27199316342E+03  0.17119006261E+03 0.  0.
         24    2    5    5    0    0 -0.15581916783E+03  0.95069296603E+02  0.85078235370E+02  0.21664252401E+03  0.79861710823E+02 0.  0.
          5    1    5    5  501    0 -0.59980113911E+01 -0.38816153427E+02  0.38716060952E+02  0.55350639411E+02  0.47000000000E+01 0. -1.
        -11    1    6    6    0    0 -0.11373331851E+02  0.42970855303E+02  0.93199798287E+01  0.45417057444E+02  0.00000000000E+00 0.  1.
         12    1    6    6    0    0 -0.14444583598E+03  0.52098441300E+02  0.75758255541E+02  0.17122546657E+03  0.00000000000E+00 0. -1.
         -5    1    3    3    0  503  0.74763074651E+02 -0.92082359671E+02 -0.77934779989E+02  0.14200210641E+03  0.47000000000E+01 0.  1.
         11    1    4    4    0    0  0.77787600636E+02  0.59849195044E+02 -0.59368268619E+02  0.11470583367E+03  0.00000000000E+00 0. -1.
        -12    1    4    4    0    0  0.92665039381E+01 -0.24019978549E+02 -0.27549756771E+02  0.37706982946E+02  0.00000000000E+00 0.  1.
</event>
<event>
12    1  0.8113184E-002  0.1731461E+03  0.7818608E-02  0.1174776E+00
         21   -1    0    0  501  502  0.00000000000E+00  0.00000000000E+00  0.51371876054E+03  0.51371876054E+03  0.00000000000E+00 0. -1.
         21   -1    0    0  502  503 -0.00000000000E+00 -0.00000000000E+00 -0.80608152516E+02  0.80608152516E+02  0.00000000000E+00 0. -1.
         -6    2    1    2    0  503 -0.17919735037E+01 -0.21030935972E+02  0.59345449128E+02  0.18240461723E+03  0.17118425926E+03 0.  0.
        -24    2    3    3    0    0 -0.57856094915E+02  0.93763186032E+01  0.67520730800E+02  0.11793204888E+03  0.76900429093E+02 0.  0.
          6    2    1    2  501    0  0.17919735037E+01  0.21030935972E+02  0.37376515889E+03  0.41192229582E+03  0.17185480020E+03 0.  0.
         24    2    5    5    0    0 -0.74455200258E+01 -0.37937951167E+02  0.11003068253E+03  0.14147706114E+03  0.80089224142E+02 0.  0.
          5    1    5    5  501    0  0.92374935295E+01  0.58968887139E+02  0.26373447637E+03  0.27044523468E+03  0.47000000000E+01 0. -1.
        -13    1    6    6    0    0  0.30561521192E+02  0.21574221723E+01  0.22668155278E+02  0.38111760806E+02  0.00000000000E+00 0.  1.
         14    1    6    6    0    0 -0.38007041218E+02 -0.40095373339E+02  0.87362527248E+02  0.10336530033E+03  0.00000000000E+00 0. -1.
         -5    1    3    3    0  503  0.56064121411E+02 -0.30407254575E+02 -0.81752816726E+01  0.64472568359E+02  0.47000000000E+01 0.  1.
         13    1    4    4    0    0 -0.15735843376E+02 -0.12701402726E+02 -0.13267565918E+02  0.24186167603E+02  0.00000000000E+00 0. -1.
        -14    1    4    4    0    0 -0.42120251539E+02  0.22077721329E+02  0.80788296718E+02  0.93745881272E+02  0.00000000000E+00 0.  1.
</event>
<event>
12    1  0.8113184E-002  0.2338806E+03  0.7818608E-02  0.1123973E+00
         21   -1    0    0  503  502  0.00000000000E+00  0.00000000000E+00  0.45897847889E+03  0.45897847889E+03  0.00000000000E+00 0. -1.
         21   -1    0    0  501  503 -0.00000000000E+00 -0.00000000000E+00 -0.12119616470E+03  0.12119616470E+03  0.00000000000E+00 0. -1.
          6    2    1    2  501    0 -0.14156088309E+03 -0.69530609356E+02  0.20719455216E+03  0.31230658683E+03  0.17242921004E+03 0.  0.
         24    2    3    3    0    0 -0.19616079146E+02 -0.63943880150E+02  0.56059097997E+02  0.11797243580E+03  0.79380493641E+02 0.  0.
         -6    2    1    2    0  502  0.14156088309E+03  0.69530609356E+02  0.13058776203E+03  0.26786805676E+03  0.17270246954E+03 0.  0.
        -24    2    5    5    0    0  0.16393651332E+03  0.84901745887E+02  0.13022805566E+03  0.24031519747E+03  0.81905804439E+02 0.  0.
          5    1    3    3  501    0 -0.12194480394E+03 -0.55867292065E+01  0.15113545417E+03  0.19433415103E+03  0.47000000000E+01 0. -1.
        -11    1    4    4    0    0 -0.24140932804E+02  0.12331353021E+02  0.18595187852E+02  0.32872905489E+02  0.00000000000E+00 0.  1.
         12    1    4    4    0    0  0.45248536585E+01 -0.76275233171E+02  0.37463910144E+02  0.85099530311E+02  0.00000000000E+00 0. -1.
         -5    1    5    5    0  502 -0.22375630232E+02 -0.15371136530E+02  0.35970636874E+00  0.27552859292E+02  0.47000000000E+01 0.  1.
         11    1    6    6    0    0  0.14836109510E+03  0.39648799675E+02  0.91590292410E+02  0.17880666520E+03  0.00000000000E+00 0. -1.
        -12    1    6    6    0    0  0.15575418217E+02  0.45252946212E+02  0.38637763246E+02  0.61508532271E+02  0.00000000000E+00 0.  1.
</event>
<event>
12    1  0.8113184E-002  0.2444263E+03  0.7818608E-02  0.1117002E+00
         21   -1    0    0  503  502  0.00000000000E+00  0.00000000000E+00  0.50656006548E+02  0.50656006548E+02  0.00000000000E+00 0. -1.
         21   -1    0    0  501  503 -0.00000000000E+00 -0.00000000000E+00 -0.19606107083E+04  0.19606107083E+04  0.00000000000E+00 0. -1.
          6    2    1    2  501    0  0.15648711046E+03 -0.74107894533E+02 -0.15921308844E+04  0.16107839594E+04  0.17252250581E+03 0.  0.
         24    2    3    3    0    0  0.78565705949E+01 -0.14948930082E+02 -0.65499769737E+03  0.66008341733E+03  0.80018360747E+02 0.  0.
         -6    2    1    2    0  502 -0.15648711046E+03  0.74107894533E+02 -0.31782381737E+03  0.40048275547E+03  0.17144755107E+03 0.  0.
        -24    2    5    5    0    0 -0.15176848179E+03  0.90289740629E+02 -0.19013455029E+03  0.27160003154E+03  0.80184291433E+02 0.  0.
          5    1    3    3  501    0  0.14863053987E+03 -0.59158964451E+02 -0.93713318700E+03  0.95070054204E+03  0.47000000000E+01 0. -1.
        -13    1    4    4    0    0  0.35855222308E+02  0.14968572907E+02 -0.24756445411E+03  0.25059492030E+03  0.00000000000E+00 0.  1.
         14    1    4    4    0    0 -0.27998651713E+02 -0.29917502989E+02 -0.40743324326E+03  0.40948849702E+03  0.00000000000E+00 0. -1.
         -5    1    5    5    0  502 -0.47186286737E+01 -0.16181846095E+02 -0.12768926708E+03  0.12888272393E+03  0.47000000000E+01 0.  1.
         11    1    6    6    0    0 -0.11243902661E+03  0.80952298829E+02 -0.18458619674E+03  0.23079833929E+03  0.00000000000E+00 0. -1.
        -12    1    6    6    0    0 -0.39329455177E+02  0.93374418001E+01 -0.55483535529E+01  0.40801692257E+02  0.00000000000E+00 0.  1.
</event>
<event>
12    1  0.8113184E-002  0.1758592E+03  0.7818608E-02  0.1172024E+00
         21   -1    0    0  503  502  0.00000000000E+00  0.00000000000E+00  0.66758290439E+02  0.66758290439E+02  0.00000000000E+00 0.  1.
         21   -1    0    0  501  503 -0.00000000000E+00 -0.00000000000E+00 -0.67864771861E+03  0.67864771861E+03  0.00000000000E+00 0. -1.
          6    2    1    2  501    0  0.96238758542E+01 -0.32217666979E+02 -0.51633079654E+03  0.54526129224E+03  0.17199357056E+03 0.  0.
         24    2    3    3    0    0 -0.19290190880E+02 -0.82440945786E+02 -0.36782192774E+03  0.38577657479E+03  0.79761984216E+02 0.  0.
         -6    2    1    2    0  502 -0.96238758542E+01  0.32217666979E+02 -0.95558631630E+02  0.20014471680E+03  0.17261476916E+03 0.  0.
        -24    2    5    5    0    0 -0.30444182850E+02 -0.29121625703E+02 -0.98662368944E+02  0.13512381866E+03  0.82153916338E+02 0.  0.
          5    1    3    3  501    0  0.28914066734E+02  0.50223278807E+02 -0.14850886880E+03  0.15948471745E+03  0.47000000000E+01 0. -1.
        -13    1    4    4    0    0  0.20260367358E+02  0.43875753890E+01 -0.57811950284E+02  0.61416242957E+02  0.00000000000E+00 0.  1.
         14    1    4    4    0    0 -0.39550558238E+02 -0.86828521175E+02 -0.31000997745E+03  0.32436033183E+03  0.00000000000E+00 0. -1.
         -5    1    5    5    0  502  0.20820306996E+02  0.61339292682E+02  0.31037373138E+01  0.65020898144E+02  0.47000000000E+01 0.  1.
         11    1    6    6    0    0  0.20969710099E+02 -0.34758707260E+02 -0.44383823030E+02  0.60148318503E+02  0.00000000000E+00 0. -1.
        -12    1    6    6    0    0 -0.51413892949E+02  0.56370815567E+01 -0.54278545914E+02  0.74975500153E+02  0.00000000000E+00 0.  1.
</event>
<event>
12    1  0.8113184E-002  0.2144791E+03  0.7818608E-02  0.1138487E+00
         21   -1    0    0  501  502  0.00000000000E+00  0.00000000000E+00  0.88750848578E+03  0.88750848578E+03  0.00000000000E+00 0. -1.
         21   -1    0    0  502  503 -0.00000000000E+00 -0.00000000000E+00 -0.73191020010E+02  0.73191020010E+02  0.00000000000E+00 0. -1.
         -6    2    1    2    0  503 -0.58278734056E+02  0.11475655878E+03  0.14596617430E+03  0.25943669077E+03  0.17156862724E+03 0.  0.
        -24    2    3    3    0    0 -0.89449853471E+02  0.47799698017E+02  0.49113938920E+02  0.13754614402E+03  0.78871257898E+02 0.  0.
          6    2    1    2  501    0  0.58278734056E+02 -0.11475655878E+03  0.66835129147E+03  0.70126281502E+03  0.16885084630E+03 0.  0.
         24    2    5    5    0    0  0.58986103477E+02 -0.12478323447E+03  0.67130381106E+03  0.68978056921E+03  0.78091042478E+02 0.  0.
          5    1    5    5  501    0 -0.70736942127E+00  0.10026675697E+02 -0.29525195821E+01  0.11482245813E+02  0.47000000000E+01 0. -1.
        -13    1    6    6    0    0  0.96918250810E+01 -0.39679141437E+02  0.74820782635E+02  0.85243857565E+02  0.00000000000E+00 0.  1.
         14    1    6    6    0    0  0.49294278396E+02 -0.85104093036E+02  0.59648302842E+03  0.60453671165E+03  0.00000000000E+00 0. -1.
         -5    1    3    3    0  503  0.31171119415E+02  0.66956860759E+02  0.96852235379E+02  0.12189054675E+03  0.47000000000E+01 0.  1.
         11    1    4    4    0    0 -0.24367062389E+02  0.30218310125E+01 -0.20703289925E+02  0.32117151272E+02  0.00000000000E+00 0. -1.
        -12    1    4    4    0    0 -0.65082791083E+02  0.44777867004E+02  0.69817228845E+02  0.10542899275E+03  0.00000000000E+00 0.  1.
</event>
<event>
12    1  0.8113184E-002  0.2949487E+03  0.7818608E-02  0.1087826E+00
         21   -1    0    0  501  502  0.00000000000E+00  0.00000000000E+00  0.27360470981E+03  0.27360470981E+03  0.00000000000E+00 0. -1.
         21   -1    0    0  502  503 -0.00000000000E+00 -0.00000000000E+00 -0.10378570702E+04  0.10378570702E+04  0.00000000000E+00 0.  1.
         -6    2    1    2    0  503  0.23678122202E+03 -0.34004060989E+02 -0.92840785177E+03  0.97413338615E+03  0.17254880911E+03 0.  0.
        -24    2    3    3    0    0  0.12976022329E+03 -0.86854710325E+01 -0.30584731687E+03  0.34191646548E+03  0.80318959012E+02 0.  0.
          6    2    1    2  501    0 -0.23678122202E+03  0.34004060989E+02  0.16415549137E+03  0.33732839387E+03  0.17210983907E+03 0.  0.
         24    2    5    5    0    0 -0.24264444940E+03  0.62026712321E+02  0.13185509268E+03  0.29391120628E+03  0.79211046218E+02 0.  0.
          5    1    5    5  501    0  0.58632273878E+01 -0.28022651332E+02  0.32300398695E+02  0.43417187598E+02  0.47000000000E+01 0. -1.
        -13    1    6    6    0    0 -0.73880230273E+02  0.15946278614E+02  0.12466023317E+01  0.75591839799E+02  0.00000000000E+00 0.  1.
         14    1    6    6    0    0 -0.16876421913E+03  0.46080433706E+02  0.13060849034E+03  0.21831936648E+03  0.00000000000E+00 0. -1.
         -5    1    3    3    0  503  0.10702099873E+03 -0.25318589957E+02 -0.62256053490E+03  0.63221692067E+03  0.47000000000E+01 0.  1.
         13    1    4    4    0    0  0.12210191902E+03 -0.18735860965E+02 -0.30521383543E+03  0.32926493353E+03  0.00000000000E+00 0. -1.
        -14    1    4    4    0    0  0.76583042605E+01  0.10050389933E+02 -0.63348144013E+00  0.12651531950E+02  0.00000000000E+00 0.  1.
</event>
<event>
12    1  0.8113184E-002  0.1758594E+03  0.7818608E-02  0.1172706E+00
         21   -1    0    0  501  502  0.00000000000E+00  0.00000000000E+00  0.19218395007E+03  0.19218395007E+03  0.00000000000E+00 0.  1.
         21   -1    0    0  502  503 -0.00000000000E+00 -0.00000000000E+00 -0.33130847839E+03  0.33130847839E+03  0.00000000000E+00 0.  1.
         -6    2    1    2    0  503 -0.10395474052E+02 -0.28287591673E+02 -0.25860547495E+03  0.31088429772E+03  0.16989408810E+03 0.  0.
        -24    2    3    3    0    0 -0.33787272513E+02 -0.31608331422E+01 -0.26068241888E+03  0.27617213954E+03  0.84641340337E+02 0.  0.
          6    2    1    2  501    0  0.10395474052E+02  0.28287591673E+02  0.11948094663E+03  0.21260813073E+03  0.17325780480E+03 0.  0.
         24    2    5    5    0    0 -0.16885153643E+02  0.74245568674E+02  0.11353742894E+03  0.15862865593E+03  0.80466078755E+02 0.  0.
          5    1    5    5  501    0  0.27280627695E+02 -0.45957977001E+02  0.59435176873E+01  0.53979474803E+02  0.47000000000E+01 0. -1.
        -11    1    6    6    0    0  0.10443052700E+02  0.57349672036E+02  0.11223795885E+03  0.12647292848E+03  0.00000000000E+00 0.  1.
         12    1    6    6    0    0 -0.27328206344E+02  0.16895896639E+02  0.12994700935E+01  0.32155727448E+02  0.00000000000E+00 0. -1.
         -5    1    3    3    0  503  0.23391798461E+02 -0.25126758531E+02  0.20769439327E+01  0.34712158181E+02  0.47000000000E+01 0.  1.
         13    1    4    4    0    0  0.53662317108E+01  0.11536786166E+02 -0.58845521213E+00  0.12737352840E+02  0.00000000000E+00 0. -1.
        -14    1    4    4    0    0 -0.39153504224E+02 -0.14697619309E+02 -0.26009396367E+03  0.26343478670E+03  0.00000000000E+00 0.  1.
</event>
<event>
12    1  0.8113184E-002  0.1851485E+03  0.7818608E-02  0.1164702E+00
         21   -1    0    0  501  502  0.00000000000E+00  0.00000000000E+00  0.38752434659E+03  0.38752434659E+03  0.00000000000E+00 0.  1.
         21   -1    0    0  502  503 -0.00000000000E+00 -0.00000000000E+00 -0.85515091652E+02  0.85515091652E+02  0.00000000000E+00 0. -1.
         -6    2    1    2    0  503 -0.63929387595E+02 -0.25450216560E+02  0.17403597925E+03  0.25410330371E+03  0.17188742468E+03 0.  0.
        -24    2    3    3    0    0 -0.30609114459E+02 -0.70398643399E+02  0.16422090704E+03  0.19710306406E+03  0.77383620186E+02 0.  0.
          6    2    1    2  501    0  0.63929387595E+02  0.25450216560E+02  0.12797327569E+03  0.21893613453E+03  0.16377176677E+03 0.  0.
         24    2    5    5    0    0 -0.28943014883E+02  0.23508823476E+02  0.71197176230E+02  0.10996518602E+03  0.75052923608E+02 0.  0.
          5    1    5    5  501    0  0.92872402478E+02  0.19413930837E+01  0.56776099458E+02  0.10897094851E+03  0.47000000000E+01 0. -1.
        -11    1    6    6    0    0 -0.43756195671E+02  0.99341743045E+01  0.76940488800E+02  0.89068127271E+02  0.00000000000E+00 0.  1.
         12    1    6    6    0    0  0.14813180788E+02  0.13574649172E+02 -0.57433125706E+01  0.20897058752E+02  0.00000000000E+00 0. -1.
         -5    1    3    3    0  503 -0.33320273136E+02  0.44948426839E+02  0.98150722048E+01  0.57000239644E+02  0.47000000000E+01 0.  1.
         11    1    4    4    0    0  0.82479288047E+01 -0.63848226878E+02  0.12934406512E+03  0.14448014253E+03  0.00000000000E+00 0. -1.
        -12    1    4    4    0    0 -0.38857043264E+02 -0.65504165208E+01  0.34876841923E+02  0.52622921529E+02  0.00000000000E+00 0.  1.
</event>
<event>
12    1  0.8113184E-002  0.1997611E+03  0.7818608E-02  0.1151903E+00
         21   -1    0    0  503  502  0.00000000000E+00  0.00000000000E+00  0.48414826792E+03  0.48414826792E+03  0.00000000000E+00 0.  1.
         21   -1    0    0  501  503 -0.00000000000E+00 -0.00000000000E+00 -0.26385895913E+03  0.26385895913E+03  0.00000000000E+00 0.  1.
          6    2    1    2  501    0 -0.10059899048E+03  0.22790140445E+02 -0.20387197458E+03  0.27916046493E+03  0.16039711897E+03 0.  0.
         24    2    3    3    0    0 -0.29328622372E+02  0.24649925195E+02 -0.33924114664E+02  0.94804045837E+02  0.79807109013E+02 0.  0.
         -6    2    1    2    0  502  0.10059899048E+03 -0.22790140445E+02  0.42416128337E+03  0.46884676212E+03  0.17106999928E+03 0.  0.
        -24    2    5    5    0    0  0.12656033400E+03 -0.53103553846E+02  0.32299090196E+03  0.35998707967E+03  0.80187712315E+02 0.  0.
          5    1    3    3  501    0 -0.71270368111E+02 -0.18597847506E+01 -0.16994785992E+03  0.18435641910E+03  0.47000000000E+01 0. -1.
        -13    1    4    4    0    0 -0.11052900938E+02  0.52354658727E+02 -0.11446809374E+02  0.54719341685E+02  0.00000000000E+00 0.  1.
         14    1    4    4    0    0 -0.18275721433E+02 -0.27704733531E+02 -0.22477305289E+02  0.40084704153E+02  0.00000000000E+00 0. -1.
         -5    1    5    5    0  502 -0.25961343516E+02  0.30313413401E+02  0.10117038141E+03  0.10885968245E+03  0.47000000000E+01 0.  1.
         11    1    6    6    0    0  0.17840450220E+02 -0.37573581436E+02  0.45988674943E+02  0.62008176146E+02  0.00000000000E+00 0. -1.
        -12    1    6    6    0    0  0.10871988378E+03 -0.15529972410E+02  0.27700222702E+03  0.29797890352E+03  0.00000000000E+00 0.  1.
</event>
<event>
12    1  0.8113184E-002  0.2304007E+03  0.7818608E-02  0.1126394E+00
         21   -1    0    0  503  502  0.00000000000E+00  0.00000000000E+00  0.39969859092E+03  0.39969859092E+03  0.00000000000E+00 0. -1.
         21   -1    0    0  501  503 -0.00000000000E+00 -0.00000000000E+00 -0.14437097318E+03  0.14437097318E+03  0.00000000000E+00 0. -1.
          6    2    1    2  501    0  0.21518996823E+02 -0.15156782451E+03  0.50350557991E+02  0.23583817610E+03  0.17218767077E+03 0.  0.
         24    2    3    3    0    0 -0.11100828955E+02 -0.16319714359E+03  0.68324293959E+02  0.19653882139E+03  0.84869093842E+02 0.  0.
         -6    2    1    2    0  502 -0.21518996823E+02  0.15156782451E+03  0.20497705974E+03  0.30823138800E+03  0.17191602857E+03 0.  0.
        -24    2    5    5    0    0  0.10307804015E+02  0.11088989147E+03  0.52568623054E+02  0.14724051540E+03  0.80706197970E+02 0.  0.
          5    1    3    3  501    0  0.32619825777E+02  0.11629319078E+02 -0.17973735968E+02  0.39299354710E+02  0.47000000000E+01 0. -1.
        -11    1    4    4    0    0 -0.85625375513E+00 -0.13864881937E+02 -0.18777604591E+02  0.23357366199E+02  0.00000000000E+00 0.  1.
         12    1    4    4    0    0 -0.10244575200E+02 -0.14933226165E+03  0.87101898549E+02  0.17318145519E+03  0.00000000000E+00 0. -1.
         -5    1    5    5    0  502 -0.31826800838E+02  0.40677933036E+02  0.15240843669E+03  0.16099087260E+03  0.47000000000E+01 0.  1.
         13    1    6    6    0    0 -0.45239845769E+01  0.85325188756E+02  0.72111933685E+02  0.11180780497E+03  0.00000000000E+00 0. -1.
        -14    1    6    6    0    0  0.14831788592E+02  0.25564702717E+02 -0.19543310631E+02  0.35432710428E+02  0.00000000000E+00 0.  1.
</event>
<event>
12    1  0.8113184E-002  0.2599598E+03  0.7818608E-02  0.1107255E+00
         21   -1    0    0  501  502  0.00000000000E+00  0.00000000000E+00  0.18669792047E+03  0.18669792047E+03  0.00000000000E+00 0.  1.
         21   -1    0    0  502  503 -0.00000000000E+00 -0.00000000000E+00 -0.38356566040E+03  0.38356566040E+03  0.00000000000E+00 0. -1.
         -6    2    1    2    0  503  0.30626680343E+02  0.19162725478E+03 -0.16745514182E+03  0.30922538362E+03  0.17297431899E+03 0.  0.
        -24    2    3    3    0    0  0.15299337717E+02  0.18639577851E+03 -0.19166054655E+03  0.27972474983E+03  0.80837581511E+02 0.  0.
          6    2    1    2  501    0 -0.30626680343E+02 -0.19162725478E+03 -0.29412598101E+02  0.26103819725E+03  0.17209544205E+03 0.  0.
         24    2    5    5    0    0 -0.69477687381E+02 -0.54553606302E+02 -0.13366008646E+02  0.11758726875E+03  0.76451753290E+02 0.  0.
          5    1    5    5  501    0  0.38851007038E+02 -0.13707364848E+03 -0.16046589455E+02  0.14345092850E+03  0.47000000000E+01 0. -1.
        -13    1    6    6    0    0 -0.34341314460E+02 -0.47605548296E+02  0.26144842382E+02  0.64258593904E+02  0.00000000000E+00 0.  1.
         14    1    6    6    0    0 -0.35136372922E+02 -0.69480580058E+01 -0.39510851028E+02  0.53328674848E+02  0.00000000000E+00 0. -1.
         -5    1    3    3    0  503  0.15327342625E+02  0.52314762665E+01  0.24205404726E+02  0.29500633787E+02  0.47000000000E+01 0.  1.
         13    1    4    4    0    0  0.36776413244E+01  0.19103445429E+03 -0.18243424987E+03  0.26417786299E+03  0.00000000000E+00 0. -1.
        -14    1    4    4    0    0  0.11621696393E+02 -0.46386757758E+01 -0.92262966855E+01  0.15546886844E+02  0.00000000000E+00 0.  1.
</event>
<event>
12    1  0.8113184E-002  0.1726236E+03  0.7818608E-02  0.1175940E+00
         21   -1    0    0  501  502  0.00000000000E+00  0.00000000000E+00  0.26551745238E+03  0.26551745238E+03  0.00000000000E+00 0.  1.
         21   -1    0    0  502  503 -0.00000000000E+00 -0.00000000000E+00 -0.17410900202E+03  0.17410900202E+03  0.00000000000E+00 0.  1.
         -6    2    1    2    0  503  0.30282817902E+01  0.14321103474E+02 -0.87707877141E+02  0.19086643072E+03  0.16888770875E+03 0.  0.
        -24    2    3    3    0    0 -0.11449071964E+02  0.63433021623E+02 -0.16402211198E+02  0.10295646387E+03  0.78588621561E+02 0.  0.
          6    2    1    2  501    0 -0.30282817902E+01 -0.14321103474E+02  0.17911632750E+03  0.24876002368E+03  0.17200182008E+03 0.  0.
         24    2    5    5    0    0 -0.64251507511E+02 -0.36528655016E+02  0.11448974757E+03  0.15688976981E+03  0.77742515515E+02 0.  0.
          5    1    5    5  501    0  0.61223225721E+02  0.22207551542E+02  0.64626579929E+02  0.91870253872E+02  0.47000000000E+01 0. -1.
        -11    1    6    6    0    0  0.18488419254E+01 -0.38213946054E+02  0.25316648124E+02  0.45876536069E+02  0.00000000000E+00 0.  1.
         12    1    6    6    0    0 -0.66100349436E+02  0.16852910377E+01  0.89173099442E+02  0.11101323374E+03  0.00000000000E+00 0. -1.
         -5    1    3    3    0  503  0.14477353754E+02 -0.49111918149E+02 -0.71305665943E+02  0.87909966850E+02  0.47000000000E+01 0.  1.
         11    1    4    4    0    0  0.84598391832E+01 -0.16828767336E+02 -0.11755300270E+01  0.18872153028E+02  0.00000000000E+00 0. -1.
        -12    1    4    4    0    0 -0.19908911147E+02  0.80261788959E+02 -0.15226681171E+02  0.84084310840E+02  0.00000000000E+00 0.  1.
</event>
<event>
12    1  0.8113184E-002  0.2015108E+03  0.7818608E-02  0.1148662E+00
         21   -1    0    0  503  502  0.00000000000E+00  0.00000000000E+00  0.62881955389E+02  0.62881955389E+02  0.00000000000E+00 0. -1.
         21   -1    0    0  501  503 -0.00000000000E+00 -0.00000000000E+00 -0.64406171989E+03  0.64406171989E+03  0.00000000000E+00 0.  1.
          6    2    1    2  501    0  0.91713094794E+02 -0.54813920716E+02 -0.27577512716E+03  0.34155312503E+03  0.17085303275E+03 0.  0.
         24    2    3    3    0    0 -0.17435646317E+00  0.43999278373E+01 -0.17286912097E+03  0.19134886521E+03  0.81922313611E+02 0.  0.
         -6    2    1    2    0  502 -0.91713094794E+02  0.54813920716E+02 -0.30540463735E+03  0.36539055025E+03  0.16977162318E+03 0.  0.
        -24    2    5    5    0    0 -0.11049377067E+03  0.16147083283E+02 -0.26726927004E+03  0.30773437675E+03  0.10391334018E+03 0.  0.
          5    1    3    3  501    0  0.91887451257E+02 -0.59213848554E+02 -0.10290600618E+03  0.15020425982E+03  0.47000000000E+01 0. -1.
        -11    1    4    4    0    0 -0.12341179263E+02 -0.31182053786E+02 -0.35122454834E+02  0.48561425200E+02  0.00000000000E+00 0.  1.
         12    1    4    4    0    0  0.12166822800E+02  0.35581981623E+02 -0.13774666614E+03  0.14278744001E+03  0.00000000000E+00 0. -1.
         -5    1    5    5    0  502  0.18780675877E+02  0.38666837433E+02 -0.38135367303E+02  0.57656173501E+02  0.47000000000E+01 0.  1.
         13    1    6    6    0    0 -0.41522677793E+02 -0.43380054704E+02 -0.86450981372E+02  0.10526031587E+03  0.00000000000E+00 0. -1.
        -14    1    6    6    0    0 -0.68971092878E+02  0.59527137988E+02 -0.18081828867E+03  0.20247406088E+03  0.00000000000E+00 0.  1.
</event>
<event>
12    1  0.8113184E-002  0.1884187E+03  0.7818608E-02  0.1160132E+00
         21   -1    0    0  501  502  0.00000000000E+00  0.00000000000E+00  0.15169947695E+04  0.15169947695E+04  0.00000000000E+00 0.  1.
         21   -1    0    0  502  503 -0.00000000000E+00 -0.00000000000E+00 -0.26318416178E+02  0.26318416178E+02  0.00000000000E+00 0.  1.
         -6    2    1    2    0  503 -0.31270602049E+02 -0.70086769355E+02  0.48471679701E+03  0.52004998155E+03  0.17208022609E+03 0.  0.
        -24    2    3    3    0    0 -0.63337219634E+02  0.63605725375E+01  0.31287963286E+03  0.32920301398E+03  0.80180418321E+02 0.  0.
          6    2    1    2  501    0  0.31270602049E+02  0.70086769355E+02  0.10059595563E+04  0.10232632042E+04  0.17094721467E+03 0.  0.
         24    2    5    5    0    0  0.12738214900E+02 -0.31658603394E+01  0.78893412495E+03  0.79341211106E+03  0.83147096579E+02 0.  0.
          5    1    5    5  501    0  0.18532387149E+02  0.73252629694E+02  0.21702543139E+03  0.22985109310E+03  0.47000000000E+01 0. -1.
        -11    1    6    6    0    0  0.23963856166E+00  0.39222547357E+02  0.42451306001E+03  0.42632124480E+03  0.00000000000E+00 0.  1.
         12    1    6    6    0    0  0.12498576338E+02 -0.42388407696E+02  0.36442106494E+03  0.36709086625E+03  0.00000000000E+00 0. -1.
         -5    1    3    3    0  503  0.32066617584E+02 -0.76447341892E+02  0.17183716416E+03  0.19084696757E+03  0.47000000000E+01 0.  1.
         13    1    4    4    0    0 -0.53991784045E+02  0.21521072359E+02  0.30361407874E+03  0.30912744638E+03  0.00000000000E+00 0. -1.
        -14    1    4    4    0    0 -0.93454355884E+01 -0.15160499822E+02  0.92655541212E+01  0.20075567597E+02  0.00000000000E+00 0.  1.
</event>
<event>
12    1  0.8113184E-002  0.1837075E+03  0.7818608E-02  0.1164343E+00
         21   -1    0    0  501  502  0.00000000000E+00  0.00000000000E+00  0.48819194349E+02  0.48819194349E+02  0.00000000000E+00 0. -1.
         21   -1    0    0  502  503 -0.00000000000E+00 -0.00000000000E+00 -0.19819523602E+04  0.19819523602E+04  0.00000000000E+00 0. -1.
         -6    2    1    2    0  503 -0.47227050265E+02  0.39871208338E+02 -0.17860495805E+04  0.17954377035E+04  0.17263642604E+03 0.  0.
        -24    2    3    3    0    0  0.72766830505E+01  0.70419593167E+01 -0.14417594809E+04  0.14452860517E+04  0.10039338282E+03 0.  0.
          6    2    1    2  501    0  0.47227050265E+02 -0.39871208338E+02 -0.14708358536E+03  0.23533385106E+03  0.17299807179E+03 0.  0.
         24    2    5    5    0    0 -0.24625423312E+02 -0.69956781299E+02 -0.92305270756E+02  0.13998882807E+03  0.74674267661E+02 0.  0.
          5    1    5    5  501    0  0.71852473577E+02  0.30085572961E+02 -0.54778314603E+02  0.95345022996E+02  0.47000000000E+01 0. -1.
        -11    1    6    6    0    0 -0.33922508017E+02 -0.48861481516E+01 -0.12227985567E+02  0.36388660665E+02  0.00000000000E+00 0.  1.
         12    1    6    6    0    0  0.92970847051E+01 -0.65070633147E+02 -0.80077285189E+02  0.10360016740E+03  0.00000000000E+00 0. -1.
         -5    1    3    3    0  503 -0.54503733315E+02  0.32829249022E+02 -0.34429009961E+03  0.35015165176E+03  0.47000000000E+01 0.  1.
         11    1    4    4    0    0  0.57166873815E+01  0.51129767866E+02 -0.53915918153E+03  0.54160830561E+03  0.00000000000E+00 0. -1.
        -12    1    4    4    0    0  0.15599956690E+01 -0.44087808549E+02 -0.90260029936E+03  0.90367774613E+03  0.00000000000E+00 0.  1.
</event>
<event>
12    1  0.8113184E-002  0.1759217E+03  0.7818608E-02  0.1172166E+00
         21   -1    0    0  501  502  0.00000000000E+00  0.00000000000E+00  0.33913068965E+03  0.33913068965E+03  0.00000000000E+00 0.  1.
         21   -1    0    0  502  503 -0.00000000000E+00 -0.00000000000E+00 -0.91569459805E+02  0.91569459805E+02  0.00000000000E+00 0.  1.
         -6    2    1    2    0  503  0.17038547310E+02 -0.31357202350E+02  0.10123329550E+03  0.20296955461E+03  0.17226396532E+03 0.  0.
        -24    2    3    3    0    0 -0.43366979254E+02 -0.32530400571E+01  0.21186922828E+02  0.98718974973E+02  0.86053896841E+02 0.  0.
          6    2    1    2  501    0 -0.17038547310E+02  0.31357202350E+02  0.14632793434E+03  0.22773059484E+03  0.17080917195E+03 0.  0.
         24    2    5    5    0    0  0.42491965469E+02  0.41255839269E+02  0.44587863980E+02  0.10934564275E+03  0.80378980898E+02 0.  0.
          5    1    5    5  501    0 -0.59530512779E+02 -0.98986369183E+01  0.10174007036E+03  0.11838495209E+03  0.47000000000E+01 0. -1.
        -11    1    6    6    0    0  0.58054898932E+02  0.40913569382E+01  0.35058170523E+02  0.67942518441E+02  0.00000000000E+00 0.  1.
         12    1    6    6    0    0 -0.15562933464E+02  0.37164482330E+02  0.95296934569E+01  0.41403124306E+02  0.00000000000E+00 0. -1.
         -5    1    3    3    0  503  0.60405526564E+02 -0.28104162293E+02  0.80046372672E+02  0.10425057964E+03  0.47000000000E+01 0.  1.
         11    1    4    4    0    0  0.17652010800E+01  0.33411821861E+02  0.22901177555E+02  0.40545403048E+02  0.00000000000E+00 0. -1.
        -12    1    4    4    0    0 -0.45132180334E+02 -0.36664861919E+02 -0.17142547267E+01  0.58173571924E+02  0.00000000000E+00 0.  1.
</event>
<event>
12    1  0.8113184E-002  0.4164896E+03  0.7818608E-02  0.1038307E+00
         21   -1    0    0  501  502  0.00000000000E+00  0.00000000000E+00  0.97207109845E+03  0.97207109845E+03  0.00000000000E+00 0. -1.
         21   -1    0    0  502  503 -0.00000000000E+00 -0.00000000000E+00 -0.19144088983E+03  0.19144088983E+03  0.00000000000E+00 0.  1.
         -6    2    1    2    0  503  0.20812218550E+03  0.31555665269E+03  0.54416475851E+03  0.68457620477E+03  0.17215821380E+03 0.  0.
        -24    2    3    3    0    0  0.89631809565E+02  0.78446330486E+02  0.25935150247E+03  0.29547216354E+03  0.76504310614E+02 0.  0.
          6    2    1    2  501    0 -0.20812218550E+03 -0.31555665269E+03  0.23646545011E+03  0.47893578351E+03  0.17485059472E+03 0.  0.
         24    2    5    5    0    0 -0.72698892085E+02 -0.54943143291E+02  0.49164978676E+02  0.13056467925E+03  0.79536547792E+02 0.  0.
          5    1    5    5  501    0 -0.13542329341E+03 -0.26061350940E+03  0.18730047144E+03  0.34837110426E+03  0.47000000000E+01 0. -1.
        -11    1    6    6    0    0 -0.89675864847E+02 -0.50996214804E+02  0.45517700858E+02  0.11275741994E+03  0.00000000000E+00 0.  1.
         12    1    6    6    0    0  0.16976972762E+02 -0.39469284867E+01  0.36472778173E+01  0.17807259309E+02  0.00000000000E+00 0. -1.
         -5    1    3    3    0  503  0.11849037593E+03  0.23711032220E+03  0.28481325605E+03  0.38910404123E+03  0.47000000000E+01 0.  1.
         11    1    4    4    0    0  0.64529517968E+02  0.80828022510E+02  0.14337910499E+03  0.17679025895E+03  0.00000000000E+00 0. -1.
        -12    1    4    4    0    0  0.25102291597E+02 -0.23816920235E+01  0.11597239748E+03  0.11868190459E+03  0.00000000000E+00 0.  1.
</event>
<event>
12    1  0.8113184E-002  0.2981145E+03  0.7818608E-02  0.1086253E+00
         21   -1    0    0  501  502  0.00000000000E+00  0.00000000000E+00  0.16492866186E+04  0.16492866186E+04  0.00000000000E+00 0.  1.
         21   -1    0    0  502  503 -0.00000000000E+00 -0.00000000000E+00 -0.83605302787E+02  0.83605302787E+02  0.00000000000E+00 0.  1.
         -6    2    1    2    0  503  0.20590537639E+03  0.12934318084E+03  0.26498970655E+03  0.39847410824E+03  0.17156744418E+03 0.  0.
        -24    2    3    3    0    0  0.15850546264E+03  0.61877415964E+02  0.11286140692E+03  0.22537445254E+03  0.95410431258E+02 0.  0.
          6    2    1    2  501    0 -0.20590537639E+03 -0.12934318084E+03  0.13006916093E+04  0.13344178132E+04  0.17246899775E+03 0.  0.
         24    2    5    5    0    0 -0.58332257261E+02 -0.12501361489E+03  0.65746304364E+03  0.67444686814E+03  0.59915507490E+02 0.  0.
          5    1    5    5  501    0 -0.14757311913E+03 -0.43295659525E+01  0.64322856566E+03  0.65997094505E+03  0.47000000000E+01 0. -1.
        -13    1    6    6    0    0 -0.31953035534E+02 -0.36573008291E+02  0.35234945662E+03  0.35568064468E+03  0.00000000000E+00 0.  1.
         14    1    6    6    0    0 -0.26379221727E+02 -0.88440606598E+02  0.30511358702E+03  0.31876622346E+03  0.00000000000E+00 0. -1.
         -5    1    3    3    0  503  0.47399913750E+02  0.67465764878E+02  0.15212829963E+03  0.17309965570E+03  0.47000000000E+01 0.  1.
         11    1    4    4    0    0  0.72676564000E+01 -0.17577520564E+02 -0.25706553278E+01  0.19193653314E+02  0.00000000000E+00 0. -1.
        -12    1    4    4    0    0  0.15123780624E+03  0.79454936528E+02  0.11543206225E+03  0.20618079923E+03  0.00000000000E+00 0.  1.
</event>
<event>
12    1  0.8113184E-002  0.1814013E+03  0.7818608E-02  0.1166916E+00
         21   -1    0    0  501  502  0.00000000000E+00  0.00000000000E+00  0.20425854625E+03  0.20425854625E+03  0.00000000000E+00 0. -1.
         21   -1    0    0  502  503 -0.00000000000E+00 -0.00000000000E+00 -0.33664862351E+03  0.33664862351E+03  0.00000000000E+00 0. -1.
         -6    2    1    2    0  503  0.37357238387E+02 -0.45231111593E+02 -0.26260336047E+03  0.31916600865E+03  0.17165371954E+03 0.  0.
        -24    2    3    3    0    0  0.31363729343E+02  0.22628870565E+02 -0.64497179965E+02  0.10962114929E+03  0.79756885893E+02 0.  0.
          6    2    1    2  501    0 -0.37357238387E+02  0.45231111593E+02  0.13021328321E+03  0.22174116112E+03  0.16962377986E+03 0.  0.
         24    2    5    5    0    0  0.12472725748E+02  0.18136174768E+02  0.17720611788E+01  0.81254868392E+02  0.78196698868E+02 0.  0.
          5    1    5    5  501    0 -0.49829964135E+02  0.27094936826E+02  0.12844122203E+03  0.14048629273E+03  0.47000000000E+01 0. -1.
        -11    1    6    6    0    0 -0.95365191926E+01 -0.28247205151E+02  0.24077227220E+01  0.29910649038E+02  0.00000000000E+00 0.  1.
         12    1    6    6    0    0  0.22009244941E+02  0.46383379919E+02 -0.63566154320E+00  0.51344219355E+02  0.00000000000E+00 0. -1.
         -5    1    3    3    0  503  0.59935090435E+01 -0.67859982158E+02 -0.19810618051E+03  0.20954485936E+03  0.47000000000E+01 0.  1.
         13    1    4    4    0    0  0.68462528943E+01 -0.22421327778E+02 -0.51688403066E+02  0.56756304756E+02  0.00000000000E+00 0. -1.
        -14    1    4    4    0    0  0.24517476449E+02  0.45050198343E+02 -0.12808776899E+02  0.52864844536E+02  0.00000000000E+00 0.  1.
</event>
<event>
12    1  0.8113184E-002  0.1970102E+03  0.7818608E-02  0.1152360E+00
         21   -1    0    0  503  502  0.00000000000E+00  0.00000000000E+00  0.53157291426E+02  0.53157291426E+02  0.00000000000E+00 0.  1.
         21   -1    0    0  501  503 -0.00000000000E+00 -0.00000000000E+00 -0.95446626722E+03  0.95446626722E+03  0.00000000000E+00 0.  1.
          6    2    1    2  501    0  0.95825940371E+02 -0.44127817263E+01 -0.69528496291E+03  0.72256405421E+03  0.17168444686E+03 0.  0.
         24    2    3    3    0    0 -0.14471990821E+02  0.13682120760E+02 -0.36190826777E+03  0.37091768357E+03  0.78776232185E+02 0.  0.
         -6    2    1    2    0  502 -0.95825940371E+02  0.44127817263E+01 -0.20602401289E+03  0.28505950444E+03  0.17207830687E+03 0.  0.
        -24    2    5    5    0    0 -0.12981289810E+03  0.26730841671E+02 -0.14484369351E+03  0.21145019407E+03  0.78521096597E+02 0.  0.
          5    1    3    3  501    0  0.11029793119E+03 -0.18094902487E+02 -0.33337669514E+03  0.35164637064E+03  0.47000000000E+01 0. -1.
        -13    1    4    4    0    0  0.25366091351E+02 -0.16472705321E+02 -0.16637388219E+03  0.16910073118E+03  0.00000000000E+00 0.  1.
         14    1    4    4    0    0 -0.39838082172E+02  0.30154826081E+02 -0.19553438558E+03  0.20181695238E+03  0.00000000000E+00 0. -1.
         -5    1    5    5    0  502  0.33986957728E+02 -0.22318059944E+02 -0.61180319372E+02  0.73609310374E+02  0.47000000000E+01 0.  1.
         13    1    6    6    0    0 -0.10910273950E+02  0.20445457753E+02 -0.62564850488E+02  0.66718897900E+02  0.00000000000E+00 0. -1.
        -14    1    6    6    0    0 -0.11890262415E+03  0.62853839178E+01 -0.82278843027E+02  0.14473129617E+03  0.00000000000E+00 0.  1.
</event>
<event>
12    1  0.8113184E-002  0.2006516E+03  0.7818608E-02  0.1151831E+00
         21   -1    0    0  501  502  0.00000000000E+00  0.00000000000E+00  0.21255188791E+03  0.21255188791E+03  0.00000000000E+00 0.  1.
         21   -1    0    0  502  503 -0.00000000000E+00 -0.00000000000E+00 -0.18537297699E+03  0.18537297699E+03  0.00000000000E+00 0.  1.
         -6    2    1    2    0  503  0.49360915512E+02  0.92152933134E+02  0.53350066151E+02  0.20762299214E+03  0.17126708452E+03 0.  0.
        -24    2    3    3    0    0 -0.37163827349E+02  0.34767563763E+02  0.39305714163E+02  0.10274713425E+03  0.80138011443E+02 0.  0.
          6    2    1    2  501    0 -0.49360915512E+02 -0.92152933134E+02 -0.26171155230E+02  0.19030187276E+03  0.15684772980E+03 0.  0.
         24    2    5    5    0    0 -0.85458976907E+02 -0.38167562889E+02 -0.10332883317E+02  0.12329119380E+03  0.79586119400E+02 0.  0.
          5    1    5    5  501    0  0.36098061396E+02 -0.53985370244E+02 -0.15838271913E+02  0.67010678956E+02  0.47000000000E+01 0. -1.
        -13    1    6    6    0    0 -0.70147587234E+02  0.10305129766E+01  0.18163402222E+02  0.72468304327E+02  0.00000000000E+00 0.  1.
         14    1    6    6    0    0 -0.15311389673E+02 -0.39198075866E+02 -0.28496285538E+02  0.50822889477E+02  0.00000000000E+00 0. -1.
         -5    1    3    3    0  503  0.86524742861E+02  0.57385369371E+02  0.14044351988E+02  0.10487585789E+03  0.47000000000E+01 0.  1.
         13    1    4    4    0    0  0.14220262828E+01  0.52136685206E+02  0.26708257432E+02  0.58596818327E+02  0.00000000000E+00 0. -1.
        -14    1    4    4    0    0 -0.38585853632E+02 -0.17369121443E+02  0.12597456731E+02  0.44150315925E+02  0.00000000000E+00 0.  1.
</event>
<event>
12    1  0.8113184E-002  0.2601013E+03  0.7818608E-02  0.1108951E+00
         21   -1    0    0  501  502  0.00000000000E+00  0.00000000000E+00  0.25769878411E+04  0.25769878411E+04  0.00000000000E+00 0.  1.
         21   -1    0    0  502  503 -0.00000000000E+00 -0.00000000000E+00 -0.37906247045E+02  0.37906247045E+02  0.00000000000E+00 0. -1.
         -6    2    1    2    0  503 -0.15672281335E+03  0.84118601662E+02  0.48801304725E+03  0.54739925605E+03  0.17277509043E+03 0.  0.
        -24    2    3    3    0    0 -0.14831252399E+02  0.26283426401E+02  0.24624153621E+03  0.26112373123E+03  0.81485730663E+02 0.  0.
          6    2    1    2  501    0  0.15672281335E+03 -0.84118601662E+02  0.20510685468E+04  0.20674948321E+04  0.18977544011E+03 0.  0.
         24    2    5    5    0    0  0.13370172287E+03  0.10452464553E+02  0.14741409921E+04  0.14823955665E+04  0.80122071844E+02 0.  0.
          5    1    5    5  501    0  0.23021090478E+02 -0.94571066215E+02  0.57692755476E+03  0.58509926560E+03  0.47000000000E+01 0. -1.
        -13    1    6    6    0    0  0.41295821520E+02  0.28920467120E+01  0.88824623637E+03  0.88921037175E+03  0.00000000000E+00 0.  1.
         14    1    6    6    0    0  0.92405901348E+02  0.75604178409E+01  0.58589475568E+03  0.59318519474E+03  0.00000000000E+00 0. -1.
         -5    1    3    3    0  503 -0.14189156095E+03  0.57835175260E+02  0.24177151103E+03  0.28627552482E+03  0.47000000000E+01 0.  1.
         11    1    4    4    0    0 -0.11542784890E+02  0.30881979807E+02  0.29295226844E+02  0.44103773939E+02  0.00000000000E+00 0. -1.
        -12    1    4    4    0    0 -0.32884675095E+01 -0.45985534055E+01  0.21694630937E+03  0.21701995729E+03  0.00000000000E+00 0.  1.
</event>
<event>
12    1  0.8113184E-002  0.1757636E+03  0.7818608E-02  0.1172753E+00
         21   -1    0    0  503  502  0.00000000000E+00  0.00000000000E+00  0.23543585087E+03  0.23543585087E+03  0.00000000000E+00 0. -1.
         21   -1    0    0  501  503 -0.00000000000E+00 -0.00000000000E+00 -0.20653356857E+03  0.20653356857E+03  0.00000000000E+00 0. -1.
          6    2    1    2  501    0 -0.98388057064E+01  0.29970229161E+02 -0.12095055718E+03  0.21335854505E+03  0.17290984568E+03 0.  0.
         24    2    3    3    0    0  0.14774551409E+02 -0.35348175061E+02 -0.31638264801E+02  0.99907732594E+02  0.86676377307E+02 0.  0.
         -6    2    1    2    0  502  0.98388057064E+01 -0.29970229161E+02  0.14985283947E+03  0.22861087439E+03  0.16974110185E+03 0.  0.
        -24    2    5    5    0    0  0.14417375726E+02 -0.89080793797E+02  0.12287911177E+03  0.16330624866E+03  0.58535512274E+02 0.  0.
          5    1    3    3  501    0 -0.24613357115E+02  0.65318404222E+02 -0.89312292375E+02  0.11345081246E+03  0.47000000000E+01 0. -1.
        -13    1    4    4    0    0 -0.35837395125E+02 -0.94907991211E+01 -0.59890752697E+01  0.37553470943E+02  0.00000000000E+00 0.  1.
         14    1    4    4    0    0  0.50611946534E+02 -0.25857375940E+02 -0.25649189531E+02  0.62354261651E+02  0.00000000000E+00 0. -1.
         -5    1    5    5    0  502 -0.45785700195E+01  0.59110564636E+02  0.26973727707E+02  0.65304625727E+02  0.47000000000E+01 0.  1.
         11    1    6    6    0    0 -0.85857146244E+01 -0.23483384195E+02  0.74580922579E+02  0.78660649893E+02  0.00000000000E+00 0. -1.
        -12    1    6    6    0    0  0.23003090350E+02 -0.65597409602E+02  0.48298189188E+02  0.84645598769E+02  0.00000000000E+00 0.  1.
</event>
<event>
12    1  0.8113184E-002  0.1877161E+03  0.7818608E-02  0.1160922E+00
         21   -1    0    0  503  502  0.00000000000E+00  0.00000000000E+00  0.28489987919E+03  0.28489987919E+03  0.00000000000E+00 0.  1.
         21   -1    0    0  501  503 -0.00000000000E+00 -0.00000000000E+00 -0.20788752496E+03  0.20788752496E+03  0.00000000000E+00 0.  1.
          6    2    1    2  501    0  0.61481773640E+02 -0.42657063850E+02 -0.11922462368E+03  0.22237767696E+03  0.17215599535E+03 0.  0.
         24    2    3    3    0    0  0.66495214071E+02 -0.82260928674E+02 -0.12489208432E+03  0.18178444102E+03  0.79114324824E+02 0.  0.
         -6    2    1    2    0  502 -0.61481773640E+02  0.42657063850E+02  0.19623697792E+03  0.27040972719E+03  0.17033154573E+03 0.  0.
        -24    2    5    5    0    0 -0.10032391314E+02  0.15526600687E+02  0.19633406095E+03  0.21205563223E+03  0.77966681785E+02 0.  0.
          5    1    3    3  501    0 -0.50134404308E+01  0.39603864824E+02  0.56674606376E+01  0.40593235940E+02  0.47000000000E+01 0. -1.
        -11    1    4    4    0    0  0.21203800601E+02  0.13445390357E+02 -0.33838080692E+02  0.42135440981E+02  0.00000000000E+00 0.  1.
         12    1    4    4    0    0  0.45291413471E+02 -0.95706319031E+02 -0.91054003626E+02  0.13964900004E+03  0.00000000000E+00 0. -1.
         -5    1    5    5    0  502 -0.51449382326E+02  0.27130463163E+02 -0.97083029457E-01  0.58354094957E+02  0.47000000000E+01 0.  1.
         11    1    6    6    0    0  0.28437767709E+02 -0.11676387311E+02  0.54143287841E+02  0.62261868516E+02  0.00000000000E+00 0. -1.
        -12    1    6    6    0    0 -0.38470159023E+02  0.27202987998E+02  0.14219077311E+03  0.14979376372E+03  0.00000000000E+00 0.  1.
</event>
<event>
12    1  0.8113184E-002  0.1741417E+03  0.7818608E-02  0.1174047E+00
         21   -1    0    0  503  502  0.00000000000E+00  0.00000000000E+00  0.29517089985E+03  0.29517089985E+03  0.00000000000E+00 0. -1.
         21   -1    0    0  501  503 -0.00000000000E+00 -0.00000000000E+00 -0.14206235307E+03  0.14206235307E+03  0.00000000000E+00 0. -1.
          6    2    1    2  501    0 -0.21842981347E+02 -0.61209820312E+01 -0.39700380130E+02  0.17860977154E+03  0.17265789311E+03 0.  0.
         24    2    3    3    0    0  0.45104082049E+02  0.14893674090E+02 -0.47970004651E+02  0.10780015525E+03  0.84044942624E+02 0.  0.
         -6    2    1    2    0  502  0.21842981347E+02  0.61209820312E+01  0.19280892690E+03  0.25862348138E+03  0.17086907436E+03 0.  0.
        -24    2    5    5    0    0  0.95235645230E+01 -0.24549674708E+02  0.25625634324E+02  0.88139462968E+02  0.80115585177E+02 0.  0.
          5    1    3    3  501    0 -0.66947063397E+02 -0.21014656121E+02  0.82696245210E+01  0.70809616289E+02  0.47000000000E+01 0. -1.
        -13    1    4    4    0    0 -0.34321633265E+01  0.21084487634E+02  0.16409591101E+02  0.26937149887E+02  0.00000000000E+00 0.  1.
         14    1    4    4    0    0  0.48536245376E+02 -0.61908135445E+01 -0.64379595752E+02  0.80863005365E+02  0.00000000000E+00 0. -1.
         -5    1    5    5    0  502  0.12319416824E+02  0.30670656739E+02  0.16718329258E+03  0.17048401841E+03  0.47000000000E+01 0.  1.
         13    1    6    6    0    0 -0.67737828089E+01  0.11250299285E+02  0.43130416921E+02  0.45085321684E+02  0.00000000000E+00 0. -1.
        -14    1    6    6    0    0  0.16297347332E+02 -0.35799973993E+02 -0.17504782597E+02  0.43054141284E+02  0.00000000000E+00 0.  1.
</event>
<event>
12    1  0.8113184E-002  0.2807140E+03  0.7818608E-02  0.1095828E+00
         21   -1    0    0  503  502  0.00000000000E+00  0.00000000000E+00  0.30389147067E+03  0.30389147067E+03  0.00000000000E+00 0. -1.
         21   -1    0    0  501  503 -0.00000000000E+00 -0.00000000000E+00 -0.88757911100E+03  0.88757911100E+03  0.00000000000E+00 0.  1.
          6    2    1    2  501    0 -0.18829408712E+03  0.10985327125E+03 -0.79504909614E+03  0.84315090112E+03  0.17685579534E+03 0.  0.
         24    2    3    3    0    0 -0.63771664021E+02  0.58679283037E+01 -0.45685698143E+03  0.46803121109E+03  0.78953501228E+02 0.  0.
         -6    2    1    2    0  502  0.18829408712E+03 -0.10985327125E+03  0.21136145581E+03  0.34831968055E+03  0.17067668384E+03 0.  0.
        -24    2    5    5    0    0  0.18504375095E+02 -0.23781961361E+02  0.56309471671E+02  0.10275904755E+03  0.80502619021E+02 0.  0.
          5    1    3    3  501    0 -0.12452242310E+03  0.10398534294E+03 -0.33819211470E+03  0.37511969003E+03  0.47000000000E+01 0. -1.
        -13    1    4    4    0    0 -0.18141110155E+02 -0.35549966738E+02 -0.19103436911E+03  0.19515898697E+03  0.00000000000E+00 0.  1.
         14    1    4    4    0    0 -0.45630553866E+02  0.41417895042E+02 -0.26582261232E+03  0.27287222412E+03  0.00000000000E+00 0. -1.
         -5    1    5    5    0  502  0.16978971202E+03 -0.86071309887E+02  0.15505198414E+03  0.24556063300E+03  0.47000000000E+01 0.  1.
         11    1    6    6    0    0  0.45382104604E+02 -0.33744117588E+02  0.43574689106E+02  0.71392957782E+02  0.00000000000E+00 0. -1.
        -12    1    6    6    0    0 -0.26877729509E+02  0.99621562272E+01  0.12734782565E+02  0.31366089766E+02  0.00000000000E+00 0.  1.
</event>
<event>
12    1  0.8113184E-002  0.1993167E+03  0.7818608E-02  0.1154999E+00
         21   -1    0    0  503  502  0.00000000000E+00  0.00000000000E+00  0.28290296702E+03  0.28290296702E+03  0.00000000000E+00 0. -1.
         21   -1    0    0  501  503 -0.00000000000E+00 -0.00000000000E+00 -0.13369498277E+03  0.13369498277E+03  0.00000000000E+00 0. -1.
          6    2    1    2  501    0 -0.46732978745E+02 -0.10453574020E+01  0.29011682748E+02  0.20141701376E+03  0.19375776532E+03 0.  0.
         24    2    3    3    0    0 -0.34379705991E+02  0.31531370688E+02  0.90083313090E+02  0.13094942835E+03  0.82804335428E+02 0.  0.
         -6    2    1    2    0  502  0.46732978745E+02  0.10453574020E+01  0.12019630150E+03  0.21518093603E+03  0.17225161904E+03 0.  0.
        -24    2    5    5    0    0  0.52023690093E+02  0.29352363529E+02  0.30889124606E+02  0.12122807515E+03  0.10086665757E+03 0.  0.
          5    1    3    3  501    0 -0.12353272755E+02 -0.32576728090E+02 -0.61071630342E+02  0.70467585409E+02  0.47000000000E+01 0. -1.
        -11    1    4    4    0    0 -0.48746811891E+02  0.28648819370E+02  0.20978995853E+02  0.60308579719E+02  0.00000000000E+00 0.  1.
         12    1    4    4    0    0  0.14367105900E+02  0.28825513178E+01  0.69104317237E+02  0.70640848627E+02  0.00000000000E+00 0. -1.
         -5    1    5    5    0  502 -0.52907113479E+01 -0.28307006127E+02  0.89307176895E+02  0.93952860879E+02  0.47000000000E+01 0.  1.
         13    1    6    6    0    0  0.74334883740E+02 -0.61351678331E+01  0.26167240089E+02  0.79044542372E+02  0.00000000000E+00 0. -1.
        -14    1    6    6    0    0 -0.22311193646E+02  0.35487531362E+02  0.47218845172E+01  0.42183532776E+02  0.00000000000E+00 0.  1.
</event>
<event>
12    1  0.8113184E-002  0.1925414E+03  0.7818608E-02  0.1156259E+00
         21   -1    0    0  501  502  0.00000000000E+00  0.00000000000E+00  0.54068177138E+02  0.54068177138E+02  0.00000000000E+00 0.  1.
         21   -1    0    0  502  503 -0.00000000000E+00 -0.00000000000E+00 -0.88349277417E+03  0.88349277417E+03  0.00000000000E+00 0.  1.
         -6    2    1    2    0  503 -0.63782099327E+02 -0.63130360846E+02 -0.19199261815E+03  0.27168429399E+03  0.16999291609E+03 0.  0.
        -24    2    3    3    0    0  0.12064154232E+02 -0.77622727089E+02 -0.10158990295E+03  0.15269932109E+03  0.82618053131E+02 0.  0.
          6    2    1    2  501    0  0.63782099327E+02  0.63130360846E+02 -0.63743197888E+03  0.66587665732E+03  0.17034845585E+03 0.  0.
         24    2    5    5    0    0 -0.87749453275E+01  0.65549333758E+02 -0.24228358046E+03  0.26408725610E+03  0.81651887009E+02 0.  0.
          5    1    5    5  501    0  0.72557044654E+02 -0.24189729119E+01 -0.39514839842E+03  0.40178940122E+03  0.47000000000E+01 0. -1.
        -13    1    6    6    0    0 -0.13289255708E+02  0.47441337130E+02 -0.47581885230E+02  0.68493215635E+02  0.00000000000E+00 0.  1.
         14    1    6    6    0    0  0.45143103809E+01  0.18107996628E+02 -0.19470169523E+03  0.19559404046E+03  0.00000000000E+00 0. -1.
         -5    1    3    3    0  503 -0.75846253559E+02  0.14492366243E+02 -0.90402715203E+02  0.11898497289E+03  0.47000000000E+01 0.  1.
         11    1    4    4    0    0  0.40676782781E+02 -0.19080136864E+02 -0.61605543082E+02  0.76248903065E+02  0.00000000000E+00 0. -1.
        -12    1    4    4    0    0 -0.28612628549E+02 -0.58542590226E+02 -0.39984359865E+02  0.76450418028E+02  0.00000000000E+00 0.  1.
</event>
<event>
12    1  0.8113184E-002  0.1873176E+03  0.7818608E-02  0.1161243E+00
         21   -1    0    0  503  502  0.00000000000E+00  0.00000000000E+00  0.72958724940E+03  0.72958724940E+03  0.00000000000E+00 0. -1.
         21   -1    0    0  501  503 -0.00000000000E+00 -0.00000000000E+00 -0.10464019098E+03  0.10464019098E+03  0.00000000000E+00 0. -1.
          6    2    1    2  501    0  0.73789188896E+02  0.12600624058E+02  0.53879018182E+01  0.18739511710E+03  0.17170987246E+03 0.  0.
         24    2    3    3    0    0  0.14866977816E+02  0.67116045752E+02 -0.12125917963E+02  0.10509941827E+03  0.78570091056E+02 0.  0.
         -6    2    1    2    0  502 -0.73789188896E+02 -0.12600624058E+02  0.61955915661E+03  0.64683232329E+03  0.17010257431E+03 0.  0.
        -24    2    5    5    0    0 -0.95192577855E+02 -0.55244929993E+02  0.50122068128E+03  0.51915019208E+03  0.78620108252E+02 0.  0.
          5    1    3    3  501    0  0.58922211080E+02 -0.54515421694E+02  0.17513819781E+02  0.82295698821E+02  0.47000000000E+01 0. -1.
        -11    1    4    4    0    0 -0.54324527547E+00  0.24977952064E+02  0.33048745737E+02  0.41429612592E+02  0.00000000000E+00 0.  1.
         12    1    4    4    0    0  0.15410223091E+02  0.42138093688E+02 -0.45174663699E+02  0.63669805683E+02  0.00000000000E+00 0. -1.
         -5    1    5    5    0  502  0.21403388959E+02  0.42644305936E+02  0.11833847532E+03  0.12768213121E+03  0.47000000000E+01 0.  1.
         13    1    6    6    0    0 -0.92035884426E+02 -0.28045738817E+02  0.45791691416E+03  0.46791566309E+03  0.00000000000E+00 0. -1.
        -14    1    6    6    0    0 -0.31566934287E+01 -0.27199191176E+02  0.43303767122E+02  0.51234528991E+02  0.00000000000E+00 0.  1.
</event>
<event>
12    1  0.8113184E-002  0.2041512E+03  0.7818608E-02  0.1148419E+00
         21   -1    0    0  503  502  0.00000000000E+00  0.00000000000E+00  0.55728854900E+02  0.55728854900E+02  0.00000000000E+00 0. -1.
         21   -1    0    0  501  503 -0.00000000000E+00 -0.00000000000E+00 -0.77415830107E+03  0.77415830107E+03  0.00000000000E+00 0. -1.
          6    2    1    2  501    0 -0.95467605052E+02 -0.55070893880E+02 -0.48586092205E+03  0.52700904453E+03  0.17184536790E+03 0.  0.
         24    2    3    3    0    0 -0.12224234593E+03 -0.76346813871E+02 -0.44078182692E+03  0.47023082389E+03  0.77822758030E+02 0.  0.
         -6    2    1    2    0  502  0.95467605052E+02  0.55070893880E+02 -0.23256852412E+03  0.30287811144E+03  0.15968771090E+03 0.  0.
        -24    2    5    5    0    0  0.76630792170E+02  0.23577651046E+02 -0.63243160737E+02  0.12955812256E+03  0.79733467268E+02 0.  0.
          5    1    3    3  501    0  0.26774740878E+02  0.21275919991E+02 -0.45079095129E+02  0.56778220633E+02  0.47000000000E+01 0. -1.
        -11    1    4    4    0    0 -0.62977469044E+02 -0.30277263576E+01 -0.11581838594E+03  0.13186821928E+03  0.00000000000E+00 0.  1.
         12    1    4    4    0    0 -0.59264876886E+02 -0.73319087513E+02 -0.32496344098E+03  0.33836260461E+03  0.00000000000E+00 0. -1.
         -5    1    5    5    0  502  0.18836812882E+02  0.31493242834E+02 -0.16932536338E+03  0.17331998889E+03  0.47000000000E+01 0.  1.
         13    1    6    6    0    0  0.44994847094E+02  0.48103373802E+02 -0.16278245576E+02  0.67848744389E+02  0.00000000000E+00 0. -1.
        -14    1    6    6    0    0  0.31635945076E+02 -0.24525722756E+02 -0.46964915161E+02  0.61709378166E+02  0.00000000000E+00 0.  1.
</event>
<event>
12    1  0.8113184E-002  0.1942126E+03  0.7818608E-02  0.1154881E+00
         21   -1    0    0  501  502  0.00000000000E+00  0.00000000000E+00  0.64927911634E+03  0.64927911634E+03  0.00000000000E+00 0.  1.
         21   -1    0    0  502  503 -0.00000000000E+00 -0.00000000000E+00 -0.61974032204E+02  0.61974032204E+02  0.00000000000E+00 0.  1.
         -6    2    1    2    0  503  0.10795372523E+01 -0.88399179470E+02  0.20159046539E+03  0.27940330864E+03  0.17208112276E+03 0.  0.
        -24    2    3    3    0    0 -0.37192637666E+02 -0.11532582625E+03  0.16463088220E+03  0.21958772146E+03  0.80200383700E+02 0.  0.
          6    2    1    2  501    0 -0.10795372523E+01  0.88399179470E+02  0.38571461875E+03  0.43184983991E+03  0.17292465637E+03 0.  0.
         24    2    5    5    0    0 -0.27733857072E+02 -0.95264594373E+01  0.11939937237E+03  0.14681337913E+03  0.80237384751E+02 0.  0.
          5    1    5    5  501    0  0.26654319819E+02  0.97925638908E+02  0.26631524638E+03  0.28503646078E+03  0.47000000000E+01 0. -1.
        -13    1    6    6    0    0  0.20707397274E+02  0.10772840842E+02  0.73308733947E+02  0.76935173196E+02  0.00000000000E+00 0.  1.
         14    1    6    6    0    0 -0.48441254346E+02 -0.20299300279E+02  0.46090638426E+02  0.69878205937E+02  0.00000000000E+00 0. -1.
         -5    1    3    3    0  503  0.38272174918E+02  0.26926646779E+02  0.36959583193E+02  0.59815587178E+02  0.47000000000E+01 0.  1.
         11    1    4    4    0    0 -0.17003284216E+02 -0.33393732090E+02  0.34216861736E+01  0.37629256614E+02  0.00000000000E+00 0. -1.
        -12    1    4    4    0    0 -0.20189353449E+02 -0.81932094159E+02  0.16120919602E+03  0.18195846484E+03  0.00000000000E+00 0.  1.
</event>
<event>
12    1  0.8113184E-002  0.1933126E+03  0.7818608E-02  0.1157512E+00
         21   -1    0    0  503  502  0.00000000000E+00  0.00000000000E+00  0.37139708229E+02  0.37139708229E+02  0.00000000000E+00 0.  1.
         21   -1    0    0  501  503 -0.00000000000E+00 -0.00000000000E+00 -0.10178039255E+04  0.10178039255E+04  0.00000000000E+00 0. -1.
          6    2    1    2  501    0  0.43830296768E+02 -0.48049157851E+02 -0.62623695501E+03  0.65539491406E+03  0.18204382181E+03 0.  0.
         24    2    3    3    0    0 -0.15412338573E+02 -0.88007291003E+02 -0.34091950695E+03  0.36122748143E+03  0.79223479299E+02 0.  0.
         -6    2    1    2    0  502 -0.43830296768E+02  0.48049157851E+02 -0.35442726221E+03  0.39954871962E+03  0.17259976440E+03 0.  0.
        -24    2    5    5    0    0  0.33562451344E+02  0.53448685304E+02 -0.15233394447E+03  0.18302483773E+03  0.79430853494E+02 0.  0.
          5    1    3    3  501    0  0.59242635341E+02  0.39958133152E+02 -0.28531744807E+03  0.29416743263E+03  0.47000000000E+01 0. -1.
        -13    1    4    4    0    0 -0.37480190393E+02 -0.20358869073E+02 -0.78586803743E+02  0.89415512884E+02  0.00000000000E+00 0.  1.
         14    1    4    4    0    0  0.22067851820E+02 -0.67648421930E+02 -0.26233270320E+03  0.27181196854E+03  0.00000000000E+00 0. -1.
         -5    1    5    5    0  502 -0.77392748112E+02 -0.53995274532E+01 -0.20209331774E+03  0.21652388190E+03  0.47000000000E+01 0.  1.
         13    1    6    6    0    0  0.16179437563E+02  0.10281918078E+02 -0.13000309696E+03  0.13140889338E+03  0.00000000000E+00 0. -1.
        -14    1    6    6    0    0  0.17383013781E+02  0.43166767226E+02 -0.22330847511E+02  0.51615944353E+02  0.00000000000E+00 0.  1.
</event>
<event>
12    1  0.8113184E-002  0.1737347E+03  0.7818608E-02  0.1175068E+00
         21   -1    0    0  501  502  0.00000000000E+00  0.00000000000E+00  0.53925871919E+03  0.53925871919E+03  0.00000000000E+00 0.  1.
         21   -1    0    0  502  503 -0.00000000000E+00 -0.00000000000E+00 -0.11541856447E+03  0.11541856447E+03  0.00000000000E+00 0.  1.
         -6    2    1    2    0  503  0.22190905715E+02  0.52280013839E+00 -0.24384085179E+02  0.17543753956E+03  0.17231087331E+03 0.  0.
        -24    2    3    3    0    0  0.28403596276E+02  0.50183132782E+02  0.27571061572E+02  0.10314526172E+03  0.80954743412E+02 0.  0.
          6    2    1    2  501    0 -0.22190905715E+02 -0.52280013839E+00  0.44822423990E+03  0.47923974411E+03  0.16814592913E+03 0.  0.
         24    2    5    5    0    0 -0.66650667821E+02 -0.62044372602E+01  0.27687509991E+03  0.30206308306E+03  0.10050611241E+03 0.  0.
          5    1    5    5  501    0  0.44459762106E+02  0.56816371218E+01  0.17134913998E+03  0.17717666105E+03  0.47000000000E+01 0. -1.
        -13    1    6    6    0    0  0.35098296808E+01 -0.90457806838E+01  0.19050115371E+03  0.19074809205E+03  0.00000000000E+00 0.  1.
         14    1    6    6    0    0 -0.70160497501E+02  0.28413434236E+01  0.86373946198E+02  0.11131499101E+03  0.00000000000E+00 0. -1.
         -5    1    3    3    0  503 -0.62126905609E+01 -0.49660332643E+02 -0.51955146751E+02  0.72292277846E+02  0.47000000000E+01 0.  1.
         13    1    4    4    0    0  0.55034206929E+02  0.41520145358E+02  0.89571981007E+01  0.69519190161E+02  0.00000000000E+00 0. -1.
        -14    1    4    4    0    0 -0.26630610653E+02  0.86629874238E+01  0.18613863471E+02  0.33626071554E+02  0.00000000000E+00 0.  1.
</event>
<event>
12    1  0.8113184E-002  0.4089503E+03  0.7818608E-02  0.1040782E+00
         21   -1    0    0  501  502  0.00000000000E+00  0.00000000000E+00  0.85673603617E+03  0.85673603617E+03  0.00000000000E+00 0. -1.
         21   -1    0    0  502  503 -0.00000000000E+00 -0.00000000000E+00 -0.34202356125E+03  0.34202356125E+03  0.00000000000E+00 0.  1.
         -6    2    1    2    0  503 -0.22069660166E+03 -0.29765420594E+03 -0.13566237341E+03  0.43086496239E+03  0.17301826481E+03 0.  0.
        -24    2    3    3    0    0 -0.16862904592E+03 -0.13324263416E+03 -0.41440322751E+02  0.23428907341E+03  0.83574606698E+02 0.  0.
          6    2    1    2  501    0  0.22069660166E+03  0.29765420594E+03  0.65037484834E+03  0.76789463503E+03  0.17137593430E+03 0.  0.
         24    2    5    5    0    0  0.56717847802E+02  0.56371317674E+02  0.14112681207E+03  0.18098568440E+03  0.80277027579E+02 0.  0.
          5    1    5    5  501    0  0.16397875385E+03  0.24128288827E+03  0.50924803627E+03  0.58690895063E+03  0.47000000000E+01 0. -1.
        -13    1    6    6    0    0 -0.20440166497E+02  0.12912336612E+02  0.23169482426E+02  0.33486620598E+02  0.00000000000E+00 0.  1.
         14    1    6    6    0    0  0.77158014299E+02  0.43458981062E+02  0.11795732964E+03  0.14749906380E+03  0.00000000000E+00 0. -1.
         -5    1    3    3    0  503 -0.52067555732E+02 -0.16441157178E+03 -0.94222050663E+02  0.19657588898E+03  0.47000000000E+01 0.  1.
         13    1    4    4    0    0 -0.99844810402E+02 -0.10794866372E+03  0.56920948646E+01  0.14715400133E+03  0.00000000000E+00 0. -1.
        -14    1    4    4    0    0 -0.68784235522E+02 -0.25293970437E+02 -0.47132417616E+02  0.87135072084E+02  0.00000000000E+00 0.  1.
</event>
<event>
12    1  0.8113184E-002  0.1745456E+03  0.7818608E-02  0.1173751E+00
         21   -1    0    0  503  502  0.00000000000E+00  0.00000000000E+00  0.27807544672E+02  0.27807544672E+02  0.00000000000E+00 0.  1.
         21   -1    0    0  501  503 -0.00000000000E+00 -0.00000000000E+00 -0.19632080699E+04  0.19632080699E+04  0.00000000000E+00 0.  1.
          6    2    1    2  501    0 -0.26270978156E+01  0.20596024921E+02 -0.30405503546E+03  0.35059326184E+03  0.17330629755E+03 0.  0.
         24    2    3    3    0    0 -0.14197334940E+02 -0.35763104556E+02 -0.27015337446E+03  0.28364825096E+03  0.77413955951E+02 0.  0.
         -6    2    1    2    0  502  0.26270978156E+01 -0.20596024921E+02 -0.16313454898E+04  0.16404223528E+04  0.17107393280E+03 0.  0.
        -24    2    5    5    0    0 -0.44106164127E+02  0.32174638718E+02 -0.79629160238E+03  0.80238546480E+03  0.82228687198E+02 0.  0.
          5    1    3    3  501    0  0.11570237125E+02  0.56359129477E+02 -0.33901661007E+02  0.66945010878E+02  0.47000000000E+01 0. -1.
        -13    1    4    4    0    0  0.72228139050E+01  0.20641418117E+02 -0.38610314194E+02  0.44373342727E+02  0.00000000000E+00 0.  1.
         14    1    4    4    0    0 -0.21420148845E+02 -0.56404522674E+02 -0.23154306026E+03  0.23927490824E+03  0.00000000000E+00 0. -1.
         -5    1    5    5    0  502  0.46733261943E+02 -0.52770663639E+02 -0.83505388740E+03  0.83803688796E+03  0.47000000000E+01 0.  1.
         11    1    6    6    0    0 -0.35580830155E+02  0.58429844120E+00 -0.69562554422E+03  0.69653516397E+03  0.00000000000E+00 0. -1.
        -12    1    6    6    0    0 -0.85253339719E+01  0.31590340277E+02 -0.10066605816E+03  0.10585030082E+03  0.00000000000E+00 0.  1.
</event>
<event>
12    1  0.8113184E-002  0.2527103E+03  0.7818608E-02  0.1111667E+00
         21   -1    0    0  503  502  0.00000000000E+00  0.00000000000E+00  0.14962891805E+04  0.14962891805E+04  0.00000000000E+00 0. -1.
         21   -1    0    0  501  503 -0.00000000000E+00 -0.00000000000E+00 -0.69706220823E+02  0.69706220823E+02  0.00000000000E+00 0. -1.
          6    2    1    2  501    0 -0.43544425646E+02  0.17927727306E+03  0.22548060395E+03  0.33867980838E+03  0.17270220673E+03 0.  0.
         24    2    3    3    0    0  0.27293174910E+02  0.11484979217E+03  0.10414879076E+03  0.18404357448E+03  0.95339784611E+02 0.  0.
         -6    2    1    2    0  502  0.43544425646E+02 -0.17927727306E+03  0.12011023557E+04  0.12273155929E+04  0.17210531106E+03 0.  0.
        -24    2    5    5    0    0 -0.29542264791E+02 -0.47719881027E+02  0.57409516223E+03  0.58248296161E+03  0.80939562798E+02 0.  0.
          5    1    3    3  501    0 -0.70837600557E+02  0.64427480889E+02  0.12133181319E+03  0.15463623391E+03  0.47000000000E+01 0. -1.
        -11    1    4    4    0    0  0.33893459339E+02  0.16312642511E+01  0.44322632011E+02  0.55820456084E+02  0.00000000000E+00 0.  1.
         12    1    4    4    0    0 -0.66002844286E+01  0.11321852792E+03  0.59826158753E+02  0.12822311839E+03  0.00000000000E+00 0. -1.
         -5    1    5    5    0  502  0.73086690437E+02 -0.13155739203E+03  0.62700719349E+03  0.64483263131E+03  0.47000000000E+01 0.  1.
         13    1    6    6    0    0  0.16763139309E+02 -0.28376755199E+02  0.39841584447E+03  0.39977672293E+03  0.00000000000E+00 0. -1.
        -14    1    6    6    0    0 -0.46305404100E+02 -0.19343125828E+02  0.17567931776E+03  0.18270623868E+03  0.00000000000E+00 0.  1.
</event>
<event>
12    1  0.8113184E-002  0.1754941E+03  0.7818608E-02  0.1173908E+00
         21   -1    0    0  501  502  0.00000000000E+00  0.00000000000E+00  0.33520510492E+03  0.33520510492E+03  0.00000000000E+00 0. -1.
         21   -1    0    0  502  503 -0.00000000000E+00 -0.00000000000E+00 -0.88722032739E+02  0.88722032739E+02  0.00000000000E+00 0.  1.
         -6    2    1    2    0  503 -0.83363628216E+01  0.33847082338E+02  0.13658821779E+03  0.22238371288E+03  0.17199725169E+03 0.  0.
        -24    2    3    3    0    0 -0.60888968969E+02  0.16713456357E+02  0.36003628484E+02  0.10751558345E+03  0.79224574823E+02 0.  0.
          6    2    1    2  501    0  0.83363628216E+01 -0.33847082338E+02  0.10989485439E+03  0.20154342478E+03  0.16531107985E+03 0.  0.
         24    2    5    5    0    0  0.30338061828E+02  0.26675291863E+02  0.21488695377E+02  0.92068443665E+02  0.79892835088E+02 0.  0.
          5    1    5    5  501    0 -0.22001699006E+02 -0.60522374201E+02  0.88406159015E+02  0.10947498111E+03  0.47000000000E+01 0. -1.
        -11    1    6    6    0    0  0.27050730480E+02 -0.25372111090E+02  0.12572565192E+02  0.39160636310E+02  0.00000000000E+00 0.  1.
         12    1    6    6    0    0  0.32873313480E+01  0.52047402954E+02  0.89161301849E+01  0.52907807355E+02  0.00000000000E+00 0. -1.
         -5    1    3    3    0  503  0.52552606148E+02  0.17133625980E+02  0.10058458931E+03  0.11486812943E+03  0.47000000000E+01 0.  1.
         13    1    4    4    0    0 -0.17974221025E+02  0.42174875789E+02  0.34876265417E+02  0.57603356314E+02  0.00000000000E+00 0. -1.
        -14    1    4    4    0    0 -0.42914747945E+02 -0.25461419431E+02  0.11273630675E+01  0.49912227140E+02  0.00000000000E+00 0.  1.
</event>
<event>
12    1  0.8113184E-002  0.2148215E+03  0.7818608E-02  0.1138091E+00
         21   -1    0    0  501  502  0.00000000000E+00  0.00000000000E+00  0.16094716961E+03  0.16094716961E+03  0.00000000000E+00 0. -1.
         21   -1    0    0  502  503 -0.00000000000E+00 -0.00000000000E+00 -0.31985359005E+03  0.31985359005E+03  0.00000000000E+00 0. -1.
         -6    2    1    2    0  503 -0.12572740204E+03 -0.27817661264E+02 -0.15885081477E+03  0.26597920963E+03  0.17008867306E+03 0.  0.
        -24    2    3    3    0    0 -0.68181737562E+01  0.62065545359E+01 -0.78153091288E+02  0.11822514233E+03  0.88228508927E+02 0.  0.
          6    2    1    2  501    0  0.12572740204E+03  0.27817661264E+02 -0.55605679710E-01  0.21482155003E+03  0.17195084578E+03 0.  0.
         24    2    5    5    0    0  0.19454679279E+02  0.61649709137E+02 -0.30998734797E+01  0.10315303776E+03  0.80322903344E+02 0.  0.
          5    1    5    5  501    0  0.10627272276E+03 -0.33832047872E+02  0.30442678000E+01  0.11166851227E+03  0.47000000000E+01 0. -1.
        -11    1    6    6    0    0 -0.12209677824E+02  0.63911259608E+01 -0.30769082877E+02  0.33714376528E+02  0.00000000000E+00 0.  1.
         12    1    6    6    0    0  0.31664357103E+02  0.55258583176E+02  0.27669209397E+02  0.69438661234E+02  0.00000000000E+00 0. -1.
         -5    1    3    3    0  503 -0.11890922828E+03 -0.34024215800E+02 -0.80697723479E+02  0.14775406731E+03  0.47000000000E+01 0.  1.
         13    1    4    4    0    0 -0.35716616922E+02 -0.56921001225E+01 -0.23630198408E+01  0.36244456002E+02  0.00000000000E+00 0. -1.
        -14    1    4    4    0    0  0.28898443166E+02  0.11898654658E+02 -0.75790071448E+02  0.81980686324E+02  0.00000000000E+00 0.  1.
</event>
<event>
12    1  0.8113184E-002  0.2608562E+03  0.7818608E-02  0.1108492E+00
         21   -1    0    0  503  502  0.00000000000E+00  0.00000000000E+00  0.27739116250E+04  0.27739116250E+04  0.00000000000E+00 0. -1.
         21   -1    0    0  501  503 -0.00000000000E+00 -0.00000000000E+00 -0.91510512326E+02  0.91510512326E+02  0.00000000000E+00 0.  1.
          6    2    1    2  501    0  0.15080395418E+03 -0.12554527251E+03  0.11345033259E+03  0.28445900096E+03  0.17187931004E+03 0.  0.
         24    2    3    3    0    0  0.94983180943E+02 -0.13783540418E+03  0.12799107795E+03  0.22529372958E+03  0.79719164864E+02 0.  0.
         -6    2    1    2    0  502 -0.15080395418E+03  0.12554527251E+03  0.25689507801E+04  0.25809631364E+04  0.15283701354E+03 0.  0.
        -24    2    5    5    0    0 -0.16290440593E+03  0.11795272610E+03  0.19801035037E+04  0.19919238570E+04  0.80623047299E+02 0.  0.
          5    1    3    3  501    0  0.55820773241E+02  0.12290131678E+02 -0.14540745361E+02  0.59165271380E+02  0.47000000000E+01 0. -1.
        -13    1    4    4    0    0  0.90027423920E+02 -0.64562721066E+02  0.64366759278E+02  0.12812635056E+03  0.00000000000E+00 0.  1.
         14    1    4    4    0    0  0.49557570222E+01 -0.73272683118E+02  0.63624318669E+02  0.97167379018E+02  0.00000000000E+00 0. -1.
         -5    1    5    5    0  502  0.12100451751E+02  0.75925464088E+01  0.58884727643E+03  0.58903927938E+03  0.47000000000E+01 0.  1.
         11    1    6    6    0    0 -0.76178738035E+02  0.96804060441E+02  0.13354275598E+04  0.13410969367E+04  0.00000000000E+00 0. -1.
        -12    1    6    6    0    0 -0.86725667899E+02  0.21148665656E+02  0.64467594390E+03  0.65082692029E+03  0.00000000000E+00 0.  1.
</event>
<event>
12    1  0.8113184E-002  0.2012472E+03  0.7818608E-02  0.1148861E+00
         21   -1    0    0  501  502  0.00000000000E+00  0.00000000000E+00  0.21411329526E+03  0.21411329526E+03  0.00000000000E+00 0. -1.
         21   -1    0    0  502  503 -0.00000000000E+00 -0.00000000000E+00 -0.23652564196E+03  0.23652564196E+03  0.00000000000E+00 0.  1.
         -6    2    1    2    0  503  0.90359931185E+01 -0.10288279821E+03 -0.11286723977E+03  0.23073673215E+03  0.17272494439E+03 0.  0.
        -24    2    3    3    0    0  0.13230512582E+02 -0.11710910893E+03 -0.26505947677E+02  0.14298512429E+03  0.76502226432E+02 0.  0.
          6    2    1    2  501    0 -0.90359931185E+01  0.10288279821E+03  0.90454893067E+02  0.21990220507E+03  0.17178001273E+03 0.  0.
         24    2    5    5    0    0 -0.24194166716E+02  0.45752643605E+02  0.12087586000E+03  0.15326025116E+03  0.78734166373E+02 0.  0.
          5    1    5    5  501    0  0.15158173597E+02  0.57130154603E+02 -0.30420966932E+02  0.66641953909E+02  0.47000000000E+01 0. -1.
        -13    1    6    6    0    0 -0.45131494212E+02  0.44460774059E+01  0.42092016924E+02  0.61873720293E+02  0.00000000000E+00 0.  1.
         14    1    6    6    0    0  0.20937327497E+02  0.41306566199E+02  0.78783843075E+02  0.91386530865E+02  0.00000000000E+00 0. -1.
         -5    1    3    3    0  503 -0.41945194638E+01  0.14226310724E+02 -0.86361292089E+02  0.87751607858E+02  0.47000000000E+01 0.  1.
         13    1    4    4    0    0 -0.24599235279E+02 -0.28945385837E+02  0.11659303894E+02  0.39735338238E+02  0.00000000000E+00 0. -1.
        -14    1    4    4    0    0  0.37829747861E+02 -0.88163723095E+02 -0.38165251571E+02  0.10324978606E+03  0.00000000000E+00 0.  1.
</event>
<event>
12    1  0.8113184E-002  0.2366066E+03  0.7818608E-02  0.1122192E+00
         21   -1    0    0  501  502  0.00000000000E+00  0.00000000000E+00  0.23045323178E+03  0.23045323178E+03  0.00000000000E+00 0.  1.
         21   -1    0    0  502  503 -0.00000000000E+00 -0.00000000000E+00 -0.41114712708E+03  0.41114712708E+03  0.00000000000E+00 0.  1.
         -6    2    1    2    0  503 -0.31637972553E+01  0.16347737806E+03 -0.29590184248E+03  0.37843583506E+03  0.17006151278E+03 0.  0.
        -24    2    3    3    0    0  0.49801820140E+02  0.96382128998E+02 -0.10849287496E+03  0.17239860498E+03  0.78618312138E+02 0.  0.
          6    2    1    2  501    0  0.31637972553E+01 -0.16347737806E+03  0.11520794718E+03  0.26316452379E+03  0.17101997760E+03 0.  0.
         24    2    5    5    0    0 -0.42388711265E+02 -0.12514363146E+03  0.26739743685E+02  0.15642549536E+03  0.79348537277E+02 0.  0.
          5    1    5    5  501    0  0.45552508520E+02 -0.38333746599E+02  0.88468203498E+02  0.10673902843E+03  0.47000000000E+01 0. -1.
        -11    1    6    6    0    0  0.55454345459E+01 -0.38656644336E+02  0.40882221191E+02  0.56537102908E+02  0.00000000000E+00 0.  1.
         12    1    6    6    0    0 -0.47934145811E+02 -0.86486987123E+02 -0.14142477507E+02  0.99888392450E+02  0.00000000000E+00 0. -1.
         -5    1    3    3    0  503 -0.52965617395E+02  0.67095249060E+02 -0.18740896752E+03  0.20603723008E+03  0.47000000000E+01 0.  1.
         11    1    4    4    0    0  0.52460278568E+02  0.10008175338E+03 -0.11705682361E+03  0.16269830405E+03  0.00000000000E+00 0. -1.
        -12    1    4    4    0    0 -0.26584584274E+01 -0.36996243812E+01  0.85639486485E+01  0.97003009349E+01  0.00000000000E+00 0.  1.
</event>
<event>
12    1  0.8113184E-002  0.1770316E+03  0.7818608E-02  0.1170856E+00
         21   -1    0    0  501  502  0.00000000000E+00  0.00000000000E+00  0.99891147600E+03  0.99891147600E+03  0.00000000000E+00 0.  1.
         21   -1    0    0  502  503 -0.00000000000E+00 -0.00000000000E+00 -0.80511639162E+02  0.80511639162E+02  0.00000000000E+00 0.  1.
         -6    2    1    2    0  503  0.35475403078E+00 -0.41256744295E+02  0.37410770261E+02  0.18094127241E+03  0.17215671212E+03 0.  0.
        -24    2    3    3    0    0 -0.37926721357E+02 -0.16999971218E+02  0.79045223819E+02  0.11922109645E+03  0.78981562499E+02 0.  0.
          6    2    1    2  501    0 -0.35475403078E+00  0.41256744295E+02  0.88098906658E+03  0.89848184275E+03  0.17153903791E+03 0.  0.
         24    2    5    5    0    0 -0.64652822076E+01  0.86823701634E+02  0.76018040944E+03  0.76913537858E+03  0.78197318626E+02 0.  0.
          5    1    5    5  501    0  0.61105281768E+01 -0.45566957339E+02  0.12080865713E+03  0.12934646417E+03  0.47000000000E+01 0. -1.
        -13    1    6    6    0    0  0.14670490147E+02  0.31433716642E+02  0.91874638456E+02  0.98205147596E+02  0.00000000000E+00 0.  1.
         14    1    6    6    0    0 -0.21135772354E+02  0.55389984992E+02  0.66830577099E+03  0.67093023098E+03  0.00000000000E+00 0. -1.
         -5    1    3    3    0  503  0.38281475388E+02 -0.24256773077E+02 -0.41634453558E+02  0.61720175964E+02  0.47000000000E+01 0.  1.
         13    1    4    4    0    0 -0.59449680801E+02 -0.26774843040E+02  0.62895120138E+02  0.90592234239E+02  0.00000000000E+00 0. -1.
        -14    1    4    4    0    0  0.21522959444E+02  0.97748718221E+01  0.16150103681E+02  0.28628862207E+02  0.00000000000E+00 0.  1.
</event>
<event>
12    1  0.8113184E-002  0.2110893E+03  0.7818608E-02  0.1141188E+00
         21   -1    0    0  503  502  0.00000000000E+00  0.00000000000E+00  0.11957692804E+04  0.11957692804E+04  0.00000000000E+00 0.  1.
         21   -1    0    0  501  503 -0.00000000000E+00 -0.00000000000E+00 -0.49553868441E+02  0.49553868441E+02  0.00000000000E+00 0.  1.
          6    2    1    2  501    0 -0.21743749404E+01 -0.12059708987E+03  0.89103032583E+03  0.91569302370E+03  0.17323477163E+03 0.  0.
         24    2    3    3    0    0  0.49073007659E+02 -0.99276162267E+02  0.42293903037E+03  0.44429889235E+03  0.79121209932E+02 0.  0.
         -6    2    1    2    0  502  0.21743749404E+01  0.12059708987E+03  0.25518508612E+03  0.32963012514E+03  0.17025922950E+03 0.  0.
        -24    2    5    5    0    0 -0.34529037197E+01  0.28322902380E+02  0.34267240084E+02  0.90103557429E+02  0.78296219417E+02 0.  0.
          5    1    3    3  501    0 -0.51247382599E+02 -0.21320927601E+02  0.46809129547E+03  0.47139413135E+03  0.47000000000E+01 0. -1.
        -13    1    4    4    0    0 -0.15944834186E+02 -0.47163142976E+02  0.11560420526E+03  0.12586870964E+03  0.00000000000E+00 0.  1.
         14    1    4    4    0    0  0.65017841844E+02 -0.52113019291E+02  0.30733482511E+03  0.31843018271E+03  0.00000000000E+00 0. -1.
         -5    1    5    5    0  502  0.56272786601E+01  0.92274187488E+02  0.22091784604E+03  0.23952656771E+03  0.47000000000E+01 0.  1.
         11    1    6    6    0    0  0.36888629274E+01 -0.23343185255E+02 -0.57985528666E+01  0.24333828776E+02  0.00000000000E+00 0. -1.
        -12    1    6    6    0    0 -0.71417666471E+01  0.51666087635E+02  0.40065792950E+02  0.65769728653E+02  0.00000000000E+00 0.  1.
</event>
<event>
12    1  0.8113184E-002  0.1825897E+03  0.7818608E-02  0.1165349E+00
         21   -1    0    0  503  502  0.00000000000E+00  0.00000000000E+00  0.33496245041E+03  0.33496245041E+03  0.00000000000E+00 0. -1.
         21   -1    0    0  501  503 -0.00000000000E+00 -0.00000000000E+00 -0.99595432736E+02  0.99595432736E+02  0.00000000000E+00 0. -1.
          6    2    1    2  501    0 -0.60336497094E+02  0.19654550976E+02  0.10983445577E+03  0.21307887915E+03  0.17120808044E+03 0.  0.
         24    2    3    3    0    0  0.55920973059E+01  0.58082505214E+02  0.32747188521E+02  0.10450713329E+03  0.80277727842E+02 0.  0.
         -6    2    1    2    0  502  0.60336497094E+02 -0.19654550976E+02  0.12553256190E+03  0.22147900400E+03  0.17107814256E+03 0.  0.
        -24    2    5    5    0    0  0.57594688406E+02  0.49995112906E+02  0.53928762809E+02  0.12144007539E+03  0.77606191795E+02 0.  0.
          5    1    3    3  501    0 -0.65928594400E+02 -0.38427954237E+02  0.77087267253E+02  0.10857174586E+03  0.47000000000E+01 0. -1.
        -13    1    4    4    0    0  0.13722070854E+02  0.45045114166E+02  0.58146455509E+02  0.74822241526E+02  0.00000000000E+00 0.  1.
         14    1    4    4    0    0 -0.81299735482E+01  0.13037391048E+02 -0.25399266988E+02  0.29684891759E+02  0.00000000000E+00 0. -1.
         -5    1    5    5    0  502  0.27418086881E+01 -0.69649663882E+02  0.71603799092E+02  0.10003892861E+03  0.47000000000E+01 0.  1.
         13    1    6    6    0    0  0.70719266099E+02  0.57257067705E+02  0.55133399504E+02  0.10639209623E+03  0.00000000000E+00 0. -1.
        -14    1    6    6    0    0 -0.13124577692E+02 -0.72619547991E+01 -0.12046366949E+01  0.15047979156E+02  0.00000000000E+00 0.  1.
</event>
<event>
12    1  0.8113184E-002  0.2424367E+03  0.7818608E-02  0.1118209E+00
         21   -1    0    0  501  502  0.00000000000E+00  0.00000000000E+00  0.15290660623E+03  0.15290660623E+03  0.00000000000E+00 0. -1.
         21   -1    0    0  502  503 -0.00000000000E+00 -0.00000000000E+00 -0.41255807388E+03  0.41255807388E+03  0.00000000000E+00 0. -1.
         -6    2    1    2    0  503  0.10430192158E+03  0.13537576548E+03 -0.20411675939E+03  0.31692145064E+03  0.17195948850E+03 0.  0.
        -24    2    3    3    0    0  0.82589902588E+02  0.10792502426E+03 -0.60180511526E+02  0.16871656404E+03  0.79841606586E+02 0.  0.
          6    2    1    2  501    0 -0.10430192158E+03 -0.13537576548E+03 -0.55534708261E+02  0.24854322947E+03  0.17170947664E+03 0.  0.
         24    2    5    5    0    0  0.10994185777E+02 -0.32253155465E+02 -0.29948437538E+02  0.91685930253E+02  0.79675985949E+02 0.  0.
          5    1    5    5  501    0 -0.11529610736E+03 -0.10312261002E+03 -0.25586270723E+02  0.15685729922E+03  0.47000000000E+01 0. -1.
        -13    1    6    6    0    0  0.92485632797E+01  0.20174028636E+02  0.11346873107E+02  0.24925466564E+02  0.00000000000E+00 0.  1.
         14    1    6    6    0    0  0.17456224972E+01 -0.52427184101E+02 -0.41295310645E+02  0.66760463689E+02  0.00000000000E+00 0. -1.
         -5    1    3    3    0  503  0.21712018994E+02  0.27450741225E+02 -0.14393624786E+03  0.14820488660E+03  0.47000000000E+01 0.  1.
         11    1    4    4    0    0  0.81937784966E+02  0.89371215102E+02 -0.77027988710E+02  0.14364653055E+03  0.00000000000E+00 0. -1.
        -12    1    4    4    0    0  0.65211762110E+00  0.18553809158E+02  0.16847477184E+02  0.25070033489E+02  0.00000000000E+00 0.  1.
</event>
<event>
12    1  0.8113184E-002  0.2252871E+03  0.7818608E-02  0.1130039E+00
         21   -1    0    0  501  502  0.00000000000E+00  0.00000000000E+00  0.19796879904E+03  0.19796879904E+03  0.00000000000E+00 0.  1.
         21   -1    0    0  502  503 -0.00000000000E+00 -0.00000000000E+00 -0.26035371018E+03  0.26035371018E+03  0.00000000000E+00 0.  1.
         -6    2    1    2    0  503 -0.14034747875E+03 -0.36531961688E+02 -0.20153058864E+01  0.22508705275E+03  0.17212821048E+03 0.  0.
        -24    2    3    3    0    0 -0.10840137414E+03 -0.89697602841E+02  0.86884323209E+01  0.16196970957E+03  0.79763275323E+02 0.  0.
          6    2    1    2  501    0  0.14034747875E+03  0.36531961688E+02 -0.60369605246E+02  0.23323545647E+03  0.17240153684E+03 0.  0.
         24    2    5    5    0    0  0.11273299412E+03 -0.18542418678E+02 -0.88684485677E+02  0.16526804084E+03  0.79975234107E+02 0.  0.
          5    1    5    5  501    0  0.27614484631E+02  0.55074380366E+02  0.28314880431E+02  0.67967415634E+02  0.47000000000E+01 0. -1.
        -11    1    6    6    0    0  0.77996362943E+02  0.22996962703E+02 -0.33477124236E+02  0.87937539043E+02  0.00000000000E+00 0.  1.
         12    1    6    6    0    0  0.34736631173E+02 -0.41539381381E+02 -0.55207361442E+02  0.77330501796E+02  0.00000000000E+00 0. -1.
         -5    1    3    3    0  503 -0.31946104609E+02  0.53165641153E+02 -0.10703738207E+02  0.63117343183E+02  0.47000000000E+01 0.  1.
         13    1    4    4    0    0 -0.57018445270E+01 -0.44229752611E+02 -0.15252694500E+02  0.47132013924E+02  0.00000000000E+00 0. -1.
        -14    1    4    4    0    0 -0.10269952961E+03 -0.45467850230E+02  0.23941126821E+02  0.11483769564E+03  0.00000000000E+00 0.  1.
</event>
<event>
12    1  0.8113184E-002  0.1742985E+03  0.7818608E-02  0.1174104E+00
         21   -1    0    0  501  502  0.00000000000E+00  0.00000000000E+00  0.91850103271E+02  0.91850103271E+02  0.00000000000E+00 0. -1.
         21   -1    0    0  502  503 -0.00000000000E+00 -0.00000000000E+00 -0.51382561482E+03  0.51382561482E+03  0.00000000000E+00 0. -1.
         -6    2    1    2    0  503  0.68812744351E+01  0.34605098615E+01 -0.39316345309E+03  0.42901194003E+03  0.17150631702E+03 0.  0.
        -24    2    3    3    0    0 -0.11748565905E+02  0.41799816717E+02 -0.36817608082E+03  0.37937896537E+03  0.80557553317E+02 0.  0.
          6    2    1    2  501    0 -0.68812744351E+01 -0.34605098615E+01 -0.28812058452E+02  0.17666377805E+03  0.17412819616E+03 0.  0.
         24    2    5    5    0    0 -0.24344654213E+02  0.57239292145E+02 -0.46427381773E+02  0.11092318775E+03  0.79243000003E+02 0.  0.
          5    1    5    5  501    0  0.17463379778E+02 -0.60699802006E+02  0.17615323321E+02  0.65740590297E+02  0.47000000000E+01 0. -1.
        -11    1    6    6    0    0  0.56655750250E+01  0.66850889592E+02 -0.41869365156E+02  0.79083398499E+02  0.00000000000E+00 0.  1.
         12    1    6    6    0    0 -0.30010229238E+02 -0.96115974467E+01 -0.45580166167E+01  0.31839789256E+02  0.00000000000E+00 0. -1.
         -5    1    3    3    0  503  0.18629840340E+02 -0.38339306855E+02 -0.24987372273E+02  0.49632974668E+02  0.47000000000E+01 0.  1.
         13    1    4    4    0    0  0.13110293169E+02 -0.20425312129E+02 -0.11038128639E+03  0.11301814699E+03  0.00000000000E+00 0. -1.
        -14    1    4    4    0    0 -0.24858859074E+02  0.62225128846E+02 -0.25779479443E+03  0.26636081838E+03  0.00000000000E+00 0.  1.
</event>
<event>
12    1  0.8113184E-002  0.1904238E+03  0.7818608E-02  0.1158520E+00
         21   -1    0    0  501  502  0.00000000000E+00  0.00000000000E+00  0.43102492920E+02  0.43102492920E+02  0.00000000000E+00 0. -1.
         21   -1    0    0  502  503 -0.00000000000E+00 -0.00000000000E+00 -0.99744353987E+03  0.99744353987E+03  0.00000000000E+00 0.  1.
         -6    2    1    2    0  503  0.78335709535E+02 -0.21413710340E+01 -0.69065629168E+03  0.71642678023E+03  0.17355157546E+03 0.  0.
        -24    2    3    3    0    0 -0.14371082644E+02  0.19528246359E+02 -0.20391306635E+03  0.22043768858E+03  0.80152077313E+02 0.  0.
          6    2    1    2  501    0 -0.78335709535E+02  0.21413710340E+01 -0.26368475527E+03  0.32411925256E+03  0.17141345005E+03 0.  0.
         24    2    5    5    0    0 -0.54479007117E+02  0.48688722177E+02 -0.24639183047E+03  0.26882971108E+03  0.78879183253E+02 0.  0.
          5    1    5    5  501    0 -0.23856702418E+02 -0.46547351143E+02 -0.17292924798E+02  0.55289541477E+02  0.47000000000E+01 0. -1.
        -13    1    6    6    0    0 -0.30900011523E+02 -0.52587691234E+01 -0.16740784358E+03  0.17031691477E+03  0.00000000000E+00 0.  1.
         14    1    6    6    0    0 -0.23578995594E+02  0.53947491300E+02 -0.78983986895E+02  0.98512796309E+02  0.00000000000E+00 0. -1.
         -5    1    3    3    0  503  0.92706792179E+02 -0.21669617393E+02 -0.48674322533E+03  0.49598909165E+03  0.47000000000E+01 0.  1.
         11    1    4    4    0    0  0.20277073768E+02  0.29971841332E+02 -0.46514980986E+02  0.58933135413E+02  0.00000000000E+00 0. -1.
        -12    1    4    4    0    0 -0.34648156412E+02 -0.10443594973E+02 -0.15739808536E+03  0.16150455317E+03  0.00000000000E+00 0.  1.
</event>
<event>
12    1  0.8113184E-002  0.1872029E+03  0.7818608E-02  0.1161242E+00
         21   -1    0    0  501  502  0.00000000000E+00  0.00000000000E+00  0.73608287506E+03  0.73608287506E+03  0.00000000000E+00 0. -1.
         21   -1    0    0  502  503 -0.00000000000E+00 -0.00000000000E+00 -0.40572879299E+03  0.40572879299E+03  0.00000000000E+00 0. -1.
         -6    2    1    2    0  503  0.61292700313E+02 -0.39725573695E+02 -0.37143221683E+03  0.41548602726E+03  0.17126538129E+03 0.  0.
        -24    2    3    3    0    0  0.10085437590E+03 -0.42860672093E+02 -0.33508081395E+03  0.36146316628E+03  0.79798661309E+02 0.  0.
          6    2    1    2  501    0 -0.61292700313E+02  0.39725573695E+02  0.70178629891E+03  0.72632564079E+03  0.17236592130E+03 0.  0.
         24    2    5    5    0    0 -0.85116921831E+02 -0.23589908409E+02  0.47844788667E+03  0.49291917091E+03  0.79092064257E+02 0.  0.
          5    1    5    5  501    0  0.23824221518E+02  0.63315482104E+02  0.22333841223E+03  0.23340646988E+03  0.47000000000E+01 0. -1.
        -13    1    6    6    0    0  0.94171035316E-01 -0.29206193602E+02  0.74017393167E+02  0.79571258028E+02  0.00000000000E+00 0.  1.
         14    1    6    6    0    0 -0.85211092866E+02  0.56162851928E+01  0.40443049351E+03  0.41334791288E+03  0.00000000000E+00 0. -1.
         -5    1    3    3    0  503 -0.39561675585E+02  0.31350983987E+01 -0.36351402878E+02  0.54022860978E+02  0.47000000000E+01 0.  1.
         11    1    4    4    0    0 -0.11514435360E+02 -0.15501585048E+02 -0.60927545149E+02  0.63914373333E+02  0.00000000000E+00 0. -1.
        -12    1    4    4    0    0  0.11236881126E+03 -0.27359087045E+02 -0.27415326881E+03  0.29754879295E+03  0.00000000000E+00 0.  1.
</event>
<event>
12    1  0.8113184E-002  0.2175337E+03  0.7818608E-02  0.1136002E+00
         21   -1    0    0  501  502  0.00000000000E+00  0.00000000000E+00  0.41748766188E+03  0.41748766188E+03  0.00000000000E+00 0. -1.
         21   -1    0    0  502  503 -0.00000000000E+00 -0.00000000000E+00 -0.42827591370E+03  0.42827591370E+03  0.00000000000E+00 0. -1.
         -6    2    1    2    0  503  0.10502764425E+02 -0.13213631580E+03 -0.36843955556E+03  0.42715236274E+03  0.17070770597E+03 0.  0.
        -24    2    3    3    0    0 -0.36777110219E+02 -0.12664801726E+03 -0.33507389966E+03  0.36883542728E+03  0.79829681655E+02 0.  0.
          6    2    1    2  501    0 -0.10502764425E+02  0.13213631580E+03  0.35765130373E+03  0.41861121284E+03  0.17248355991E+03 0.  0.
         24    2    5    5    0    0  0.29777376236E+02  0.29132729270E+02  0.23925546284E+03  0.25652514400E+03  0.82623029219E+02 0.  0.
          5    1    5    5  501    0 -0.40280140661E+02  0.10300358653E+03  0.11839584089E+03  0.16208606883E+03  0.47000000000E+01 0. -1.
        -11    1    6    6    0    0 -0.17773167447E+02  0.23794528658E+02  0.31349388690E+02  0.43183900315E+02  0.00000000000E+00 0.  1.
         12    1    6    6    0    0  0.47550543683E+02  0.53382006123E+01  0.20790607415E+03  0.21334124369E+03  0.00000000000E+00 0. -1.
         -5    1    3    3    0  503  0.47279874644E+02 -0.54882985341E+01 -0.33365655900E+02  0.58316935455E+02  0.47000000000E+01 0.  1.
         11    1    4    4    0    0 -0.53195691111E+02 -0.85911303945E+02 -0.16765930336E+03  0.19575539763E+03  0.00000000000E+00 0. -1.
        -12    1    4    4    0    0  0.16418580892E+02 -0.40736713319E+02 -0.16741459630E+03  0.17308002965E+03  0.00000000000E+00 0.  1.
</event>
<event>
12    1  0.8113184E-002  0.1762910E+03  0.7818608E-02  0.1171707E+00
         21   -1    0    0  503  502  0.00000000000E+00  0.00000000000E+00  0.56468191565E+03  0.56468191565E+03  0.00000000000E+00 0. -1.
         21   -1    0    0  501  503 -0.00000000000E+00 -0.00000000000E+00 -0.56998715553E+02  0.56998715553E+02  0.00000000000E+00 0. -1.
          6    2    1    2  501    0 -0.34855358012E+01 -0.38317072789E+02  0.19223449541E+03  0.26083062813E+03  0.17204118203E+03 0.  0.
         24    2    3    3    0    0 -0.46528884333E+02 -0.74047845473E+02  0.11490711660E+03  0.16527419724E+03  0.80398347814E+02 0.  0.
         -6    2    1    2    0  502  0.34855358012E+01  0.38317072789E+02  0.31544870468E+03  0.36085000307E+03  0.17095172537E+03 0.  0.
        -24    2    5    5    0    0  0.54434880066E+02 -0.12850985629E+02  0.22326016253E+03  0.24365434110E+03  0.79962702315E+02 0.  0.
          5    1    3    3  501    0  0.43043348532E+02  0.35730772683E+02  0.77327378818E+02  0.95556430889E+02  0.47000000000E+01 0. -1.
        -13    1    4    4    0    0  0.12989744395E+02 -0.42272450374E+02  0.74480790420E+02  0.86620330533E+02  0.00000000000E+00 0.  1.
         14    1    4    4    0    0 -0.59518628728E+02 -0.31775395098E+02  0.40426326177E+02  0.78653866704E+02  0.00000000000E+00 0. -1.
         -5    1    5    5    0  502 -0.50949344265E+02  0.51168058418E+02  0.92188542146E+02  0.11719566198E+03  0.47000000000E+01 0.  1.
         13    1    6    6    0    0  0.50204516093E+01  0.18444803490E+02  0.14338188308E+03  0.14465054478E+03  0.00000000000E+00 0. -1.
        -14    1    6    6    0    0  0.49414428457E+02 -0.31295789118E+02  0.79878279451E+02  0.99003796313E+02  0.00000000000E+00 0.  1.
</event>
<event>
12    1  0.8113184E-002  0.1822395E+03  0.7818608E-02  0.1166254E+00
         21   -1    0    0  501  502  0.00000000000E+00  0.00000000000E+00  0.66090539474E+02  0.66090539474E+02  0.00000000000E+00 0. -1.
         21   -1    0    0  502  503 -0.00000000000E+00 -0.00000000000E+00 -0.52720612205E+03  0.52720612205E+03  0.00000000000E+00 0.  1.
         -6    2    1    2    0  503  0.49505297246E+02  0.19861551218E+02 -0.15645660682E+03  0.23829198957E+03  0.17163667092E+03 0.  0.
        -24    2    3    3    0    0  0.51982245653E+02 -0.19403224719E+02 -0.16974698498E+03  0.19649986047E+03  0.81972661686E+02 0.  0.
          6    2    1    2  501    0 -0.49505297246E+02 -0.19861551218E+02 -0.30465897576E+03  0.35500467196E+03  0.17425834249E+03 0.  0.
         24    2    5    5    0    0 -0.10164481119E+03 -0.17835073234E+01 -0.21578120146E+03  0.25028269074E+03  0.75796107011E+02 0.  0.
          5    1    5    5  501    0  0.52139513948E+02 -0.18078043894E+02 -0.88877774301E+02  0.10472198122E+03  0.47000000000E+01 0. -1.
        -11    1    6    6    0    0 -0.33104543009E+02 -0.34611541065E+02 -0.11054866489E+03  0.12047770272E+03  0.00000000000E+00 0.  1.
         12    1    6    6    0    0 -0.68540268185E+02  0.32828033741E+02 -0.10523253657E+03  0.12980498802E+03  0.00000000000E+00 0. -1.
         -5    1    3    3    0  503 -0.24769484072E+01  0.39264775937E+02  0.13290378162E+02  0.41792129097E+02  0.47000000000E+01 0.  1.
         11    1    4    4    0    0  0.54434997556E+02  0.18941706149E+02 -0.77599952711E+02  0.96662866973E+02  0.00000000000E+00 0. -1.
        -12    1    4    4    0    0 -0.24527519031E+01 -0.38344930869E+02 -0.92147032268E+02  0.99836993499E+02  0.00000000000E+00 0.  1.
</event>
<event>
12    1  0.8113184E-002  0.1852330E+03  0.7818608E-02  0.1163290E+00
         21   -1    0    0  501  502  0.00000000000E+00  0.00000000000E+00  0.60484862477E+03  0.60484862477E+03  0.00000000000E+00 0. -1.
         21   -1    0    0  502  503 -0.00000000000E+00 -0.00000000000E+00 -0.15580702123E+03  0.15580702123E+03  0.00000000000E+00 0. -1.
         -6    2    1    2    0  503  0.11967987332E+02  0.67323694560E+02 -0.80107508708E+02  0.20002202848E+03  0.17004671815E+03 0.  0.
        -24    2    3    3    0    0 -0.38857446536E+02  0.10731018289E+02 -0.85640827482E+02  0.12361088170E+03  0.79499954953E+02 0.  0.
          6    2    1    2  501    0 -0.11967987332E+02 -0.67323694560E+02  0.52914911225E+03  0.56063361753E+03  0.17214981134E+03 0.  0.
         24    2    5    5    0    0 -0.63770198392E+02 -0.69520810990E+02  0.27980685064E+03  0.30591426253E+03  0.79949240069E+02 0.  0.
          5    1    5    5  501    0  0.51802211060E+02  0.21971164301E+01  0.24934226160E+03  0.25471935500E+03  0.47000000000E+01 0. -1.
        -11    1    6    6    0    0 -0.84779691364E+01 -0.77205959593E+01 -0.24523757730E+01  0.11725941735E+02  0.00000000000E+00 0.  1.
         12    1    6    6    0    0 -0.55292229256E+02 -0.61800215031E+02  0.28225922642E+03  0.29418832079E+03  0.00000000000E+00 0. -1.
         -5    1    3    3    0  503  0.50825433868E+02  0.56592676271E+02  0.55333187738E+01  0.76411146779E+02  0.47000000000E+01 0.  1.
         13    1    4    4    0    0  0.15304929721E+02  0.28318323200E+02 -0.31141592232E+02  0.44788023727E+02  0.00000000000E+00 0. -1.
        -14    1    4    4    0    0 -0.54162376257E+02 -0.17587304911E+02 -0.54499235251E+02  0.78822857971E+02  0.00000000000E+00 0.  1.
</event>
<event>
12    1  0.8113184E-002  0.2096299E+03  0.7818608E-02  0.1142643E+00
         21   -1    0    0  501  502  0.00000000000E+00  0.00000000000E+00  0.39250148397E+03  0.39250148397E+03  0.00000000000E+00 0.  1.
         21   -1    0    0  502  503 -0.00000000000E+00 -0.00000000000E+00 -0.32607543817E+03  0.32607543817E+03  0.00000000000E+00 0.  1.
         -6    2    1    2    0  503  0.11713256586E+03  0.23650558007E+02 -0.25923103365E+03  0.33338480753E+03  0.17223621630E+03 0.  0.
        -24    2    3    3    0    0 -0.84355261637E+01 -0.58562742275E+01 -0.10438064356E+03  0.13179430132E+03  0.79805795907E+02 0.  0.
          6    2    1    2  501    0 -0.11713256586E+03 -0.23650558007E+02  0.32565707945E+03  0.38519211462E+03  0.16745460546E+03 0.  0.
         24    2    5    5    0    0 -0.10056950669E+03 -0.10938727098E+02  0.11794765394E+03  0.17638306065E+03  0.83459292998E+02 0.  0.
          5    1    5    5  501    0 -0.16563059178E+02 -0.12711830909E+02  0.20770942551E+03  0.20880905397E+03  0.47000000000E+01 0. -1.
        -11    1    6    6    0    0 -0.11226559582E+03 -0.36500784760E+01  0.85606401193E+02  0.14122798237E+03  0.00000000000E+00 0.  1.
         12    1    6    6    0    0  0.11696089135E+02 -0.72886486215E+01  0.32341252744E+02  0.35155078280E+02  0.00000000000E+00 0. -1.
         -5    1    3    3    0  503  0.12556809203E+03  0.29506832234E+02 -0.15485039009E+03  0.20159050621E+03  0.47000000000E+01 0.  1.
         11    1    4    4    0    0 -0.90274369841E+01 -0.18163652786E+02  0.56661335903E+01  0.21059866355E+02  0.00000000000E+00 0. -1.
        -12    1    4    4    0    0  0.59191082040E+00  0.12307378558E+02 -0.11004677715E+03  0.11073443496E+03  0.00000000000E+00 0.  1.
</event>
<event>
12    1  0.8113184E-002  0.5147720E+03  0.7818608E-02  0.1010011E+00
         21   -1    0    0  501  502  0.00000000000E+00  0.00000000000E+00  0.12989064202E+04  0.12989064202E+04  0.00000000000E+00 0. -1.
         21   -1    0    0  502  503 -0.00000000000E+00 -0.00000000000E+00 -0.34381198112E+03  0.34381198112E+03  0.00000000000E+00 0.  1.
         -6    2    1    2    0  503 -0.14431618851E+02  0.48502942597E+03 -0.46487268513E+02  0.51659403026E+03  0.17101611121E+03 0.  0.
        -24    2    3    3    0    0  0.16309537755E+02  0.40075898405E+03  0.12502338135E+02  0.40913059563E+03  0.79735635103E+02 0.  0.
          6    2    1    2  501    0  0.14431618851E+02 -0.48502942597E+03  0.10015817076E+04  0.11261243711E+04  0.17183819839E+03 0.  0.
         24    2    5    5    0    0  0.56604965846E+02 -0.35492310819E+03  0.61819447317E+03  0.71904439533E+03  0.75404913013E+02 0.  0.
          5    1    5    5  501    0 -0.42173346995E+02 -0.13010631778E+03  0.38338723442E+03  0.40707997573E+03  0.47000000000E+01 0. -1.
        -11    1    6    6    0    0  0.43731279731E+01  0.11740975317E+01  0.10927312409E+01  0.46579839896E+01  0.00000000000E+00 0.  1.
         12    1    6    6    0    0  0.52231837873E+02 -0.35609720572E+03  0.61710174193E+03  0.71438641134E+03  0.00000000000E+00 0. -1.
         -5    1    3    3    0  503 -0.30741156606E+02  0.84270441921E+02 -0.58989606647E+02  0.10746343463E+03  0.47000000000E+01 0.  1.
         11    1    4    4    0    0  0.24592602333E+02  0.68903321902E+02  0.23930607089E+02  0.76974916786E+02  0.00000000000E+00 0. -1.
        -12    1    4    4    0    0 -0.82830645781E+01  0.33185566214E+03 -0.11428268954E+02  0.33215567884E+03  0.00000000000E+00 0.  1.
</event>
<event>
12    1  0.8113184E-002  0.3176142E+03  0.7818608E-02  0.1076773E+00
         21   -1    0    0  503  502  0.00000000000E+00  0.00000000000E+00  0.38082218330E+03  0.38082218330E+03  0.00000000000E+00 0. -1.
         21   -1    0    0  501  503 -0.00000000000E+00 -0.00000000000E+00 -0.34965194026E+03  0.34965194026E+03  0.00000000000E+00 0.  1.
          6    2    1    2  501    0 -0.25349878796E+03 -0.82236094072E+02  0.19556721450E+03  0.37299502480E+03  0.17278409208E+03 0.  0.
         24    2    3    3    0    0 -0.35893407264E+02 -0.36457102492E+02  0.46142388575E+02  0.10504412187E+03  0.79294958916E+02 0.  0.
         -6    2    1    2    0  502  0.25349878796E+03  0.82236094072E+02 -0.16439697147E+03  0.35747909875E+03  0.17245443210E+03 0.  0.
        -24    2    5    5    0    0  0.10572569009E+03  0.10987245202E+02 -0.13667000581E+03  0.19103342730E+03  0.80724461939E+02 0.  0.
          5    1    3    3  501    0 -0.21760538070E+03 -0.45778991581E+02  0.14942482592E+03  0.26795090293E+03  0.47000000000E+01 0. -1.
        -13    1    4    4    0    0 -0.85804090331E+01  0.10084897890E+02 -0.17280173548E+02  0.21770001894E+02  0.00000000000E+00 0.  1.
         14    1    4    4    0    0 -0.27312998230E+02 -0.46542000382E+02  0.63422562123E+02  0.83274119978E+02  0.00000000000E+00 0. -1.
         -5    1    5    5    0  502  0.14777309788E+03  0.71248848870E+02 -0.27726965651E+02  0.16644567145E+03  0.47000000000E+01 0.  1.
         11    1    6    6    0    0 -0.72561660887E+00 -0.13564036355E+02  0.28019972125E+01  0.13869419241E+02  0.00000000000E+00 0. -1.
        -12    1    6    6    0    0  0.10645130670E+03  0.24551281557E+02 -0.13947200303E+03  0.17716400806E+03  0.00000000000E+00 0.  1.
</event>
<event>
12    1  0.8113184E-002  0.1894082E+03  0.7818608E-02  0.1161164E+00
         21   -1    0    0  503  502  0.00000000000E+00  0.00000000000E+00  0.14926469926E+04  0.14926469926E+04  0.00000000000E+00 0.  1.
         21   -1    0    0  501  503 -0.00000000000E+00 -0.00000000000E+00 -0.23798877919E+02  0.23798877919E+02  0.00000000000E+00 0. -1.
          6    2    1    2  501    0 -0.51229895545E+02  0.59571279623E+02  0.86664845215E+03  0.88516153802E+03  0.16204372627E+03 0.  0.
         24    2    3    3    0    0 -0.50676695131E+02  0.76031634183E+02  0.85708420529E+03  0.86554485836E+03  0.78902661833E+02 0.  0.
         -6    2    1    2    0  502  0.51229895545E+02 -0.59571279623E+02  0.60219966251E+03  0.63128433248E+03  0.17234336468E+03 0.  0.
        -24    2    5    5    0    0  0.21831604170E+02 -0.87285776158E+02  0.55946570029E+03  0.57228743102E+03  0.80097492157E+02 0.  0.
          5    1    3    3  501    0 -0.55320041346E+00 -0.16460354560E+02  0.95642468542E+01  0.19616679659E+02  0.47000000000E+01 0. -1.
        -13    1    4    4    0    0  0.94965735756E+01  0.46715767726E+02  0.22933566428E+03  0.23423790209E+03  0.00000000000E+00 0.  1.
         14    1    4    4    0    0 -0.60173268707E+02  0.29315866457E+02  0.62774854101E+03  0.63130695627E+03  0.00000000000E+00 0. -1.
         -5    1    5    5    0  502  0.29398291375E+02  0.27714496535E+02  0.42733962229E+02  0.58996901459E+02  0.47000000000E+01 0.  1.
         11    1    6    6    0    0 -0.30451592518E+02 -0.35080747920E+02  0.20348279879E+03  0.20871801016E+03  0.00000000000E+00 0. -1.
        -12    1    6    6    0    0  0.52283196688E+02 -0.52205028238E+02  0.35598290149E+03  0.36356942086E+03  0.00000000000E+00 0.  1.
</event>
<event>
12    1  0.8113184E-002  0.1884554E+03  0.7818608E-02  0.1160009E+00
         21   -1    0    0  501  502  0.00000000000E+00  0.00000000000E+00  0.90275562366E+03  0.90275562366E+03  0.00000000000E+00 0.  1.
         21   -1    0    0  502  503 -0.00000000000E+00 -0.00000000000E+00 -0.41213688271E+02  0.41213688271E+02  0.00000000000E+00 0.  1.
         -6    2    1    2    0  503 -0.19024540885E+02  0.76910098053E+02  0.32732506244E+03  0.37769977467E+03  0.17099218388E+03 0.  0.
        -24    2    3    3    0    0 -0.68256459032E+02  0.38966200160E+02  0.27477706851E+03  0.29617123478E+03  0.77702342141E+02 0.  0.
          6    2    1    2  501    0  0.19024540885E+02 -0.76910098053E+02  0.53421687295E+03  0.56626953726E+03  0.17028336720E+03 0.  0.
         24    2    5    5    0    0  0.52405994146E+02 -0.99777419536E+02  0.30526472637E+03  0.33372188357E+03  0.74039318844E+02 0.  0.
          5    1    5    5  501    0 -0.33381453261E+02  0.22867321483E+02  0.22895214658E+03  0.23254765369E+03  0.47000000000E+01 0. -1.
        -13    1    6    6    0    0  0.36263863894E+02 -0.54032730981E+02  0.25768094724E+03  0.26577071775E+03  0.00000000000E+00 0.  1.
         14    1    6    6    0    0  0.16142130252E+02 -0.45744688555E+02  0.47583779130E+02  0.67951165820E+02  0.00000000000E+00 0. -1.
         -5    1    3    3    0  503  0.49231918147E+02  0.37943897893E+02  0.52547993925E+02  0.81528539895E+02  0.47000000000E+01 0.  1.
         11    1    4    4    0    0 -0.38685782097E+01 -0.21574133715E+02  0.47415316874E+02  0.52236207914E+02  0.00000000000E+00 0. -1.
        -12    1    4    4    0    0 -0.64387880822E+02  0.60540333875E+02  0.22736175164E+03  0.24393502686E+03  0.00000000000E+00 0.  1.
</event>
<event>
12    1  0.8113184E-002  0.1756655E+03  0.7818608E-02  0.1172826E+00
         21   -1    0    0  503  502  0.00000000000E+00  0.00000000000E+00  0.25452706244E+02  0.25452706244E+02  0.00000000000E+00 0. -1.
         21   -1    0    0  501  503 -0.00000000000E+00 -0.00000000000E+00 -0.13273497960E+04  0.13273497960E+04  0.00000000000E+00 0. -1.
          6    2    1    2  501    0 -0.12192966503E+02 -0.18155392915E+02 -0.87229484337E+03  0.88980709140E+03  0.17429882217E+03 0.  0.
         24    2    3    3    0    0 -0.47476736009E+01  0.33899580792E+02 -0.25350456168E+03  0.26876872271E+03  0.82464183318E+02 0.  0.
         -6    2    1    2    0  502  0.12192966503E+02  0.18155392915E+02 -0.42960224642E+03  0.46299541088E+03  0.17125528793E+03 0.  0.
        -24    2    5    5    0    0  0.66167037982E+02 -0.11983922056E+02 -0.32846976371E+03  0.34437227756E+03  0.78601454051E+02 0.  0.
          5    1    3    3  501    0 -0.74452929016E+01 -0.52054973707E+02 -0.61879028169E+03  0.62103836869E+03  0.47000000000E+01 0. -1.
        -13    1    4    4    0    0  0.33383617898E+02 -0.36685449172E+01 -0.12784923756E+03  0.13218680611E+03  0.00000000000E+00 0.  1.
         14    1    4    4    0    0 -0.38131291499E+02  0.37568125709E+02 -0.12565532412E+03  0.13658191660E+03  0.00000000000E+00 0. -1.
         -5    1    5    5    0  502 -0.53974071479E+02  0.30139314971E+02 -0.10113248272E+03  0.11862313332E+03  0.47000000000E+01 0.  1.
         13    1    6    6    0    0  0.61075342765E+02 -0.74569785806E+01 -0.11194150189E+03  0.12773685400E+03  0.00000000000E+00 0. -1.
        -14    1    6    6    0    0  0.50916952173E+01 -0.45269434759E+01 -0.21652826181E+03  0.21663542356E+03  0.00000000000E+00 0.  1.
</event>
<event>
12    1  0.8113184E-002  0.2057937E+03  0.7818608E-02  0.1148342E+00
         21   -1    0    0  501  502  0.00000000000E+00  0.00000000000E+00  0.10243983759E+04  0.10243983759E+04  0.00000000000E+00 0.  1.
         21   -1    0    0  502  503 -0.00000000000E+00 -0.00000000000E+00 -0.64498176693E+02  0.64498176693E+02  0.00000000000E+00 0.  1.
         -6    2    1    2    0  503 -0.59336929060E+02 -0.96586635013E+02  0.14388453377E+03  0.25110517703E+03  0.17175913851E+03 0.  0.
        -24    2    3    3    0    0 -0.76453679775E+02 -0.11162518074E+03  0.66890896498E+02  0.17067352162E+03  0.79685085319E+02 0.  0.
          6    2    1    2  501    0  0.59336929060E+02  0.96586635013E+02  0.81601566549E+03  0.83779137561E+03  0.15219386816E+03 0.  0.
         24    2    5    5    0    0 -0.24623643151E+02  0.20688684238E+02  0.35875293498E+03  0.36670627573E+03  0.68814815577E+02 0.  0.
          5    1    5    5  501    0  0.83960572210E+02  0.75897950775E+02  0.45726273051E+03  0.47108509988E+03  0.47000000000E+01 0. -1.
        -13    1    6    6    0    0 -0.44879340044E+02  0.24210032627E+02  0.19068624904E+03  0.19738674326E+03  0.00000000000E+00 0.  1.
         14    1    6    6    0    0  0.20255696893E+02 -0.35213483886E+01  0.16806668595E+03  0.16931953247E+03  0.00000000000E+00 0. -1.
         -5    1    3    3    0  503  0.17116750715E+02  0.15038545724E+02  0.76993637267E+02  0.80431655411E+02  0.47000000000E+01 0.  1.
         13    1    4    4    0    0 -0.88387554531E+01 -0.17265768457E+02  0.49665198844E+02  0.53318498990E+02  0.00000000000E+00 0. -1.
        -14    1    4    4    0    0 -0.67614924321E+02 -0.94359412280E+02  0.17225697654E+02  0.11735502263E+03  0.00000000000E+00 0.  1.
</event>
<event>
12    1  0.8113184E-002  0.2405781E+03  0.7818608E-02  0.1120254E+00
         21   -1    0    0  501  502  0.00000000000E+00  0.00000000000E+00  0.28157165302E+03  0.28157165302E+03  0.00000000000E+00 0. -1.
         21   -1    0    0  502  503 -0.00000000000E+00 -0.00000000000E+00 -0.32617496784E+03  0.32617496784E+03  0.00000000000E+00 0.  1.
         -6    2    1    2    0  503  0.12755835961E+03 -0.10416806155E+03 -0.21019022319E+03  0.31569035959E+03  0.16839938557E+03 0.  0.
        -24    2    3    3    0    0  0.25141196896E+02 -0.99216597902E+02 -0.97371119304E+02  0.16316484562E+03  0.81643241552E+02 0.  0.
          6    2    1    2  501    0 -0.12755835961E+03  0.10416806155E+03  0.16558690837E+03  0.29205626127E+03  0.17537307481E+03 0.  0.
         24    2    5    5    0    0 -0.11136837782E+02  0.62008119443E+02  0.24265694004E+02  0.10410624905E+03  0.79248035642E+02 0.  0.
          5    1    5    5  501    0 -0.11642152183E+03  0.42159942111E+02  0.14132121437E+03  0.18795001222E+03  0.47000000000E+01 0. -1.
        -13    1    6    6    0    0 -0.26439565134E+02 -0.94105747416E+01  0.43456458048E+01  0.28398840802E+02  0.00000000000E+00 0.  1.
         14    1    6    6    0    0  0.15302727351E+02  0.71418694185E+02  0.19920048199E+02  0.75707408248E+02  0.00000000000E+00 0. -1.
         -5    1    3    3    0  503  0.10241716272E+03 -0.49514636520E+01 -0.11281910389E+03  0.15252551397E+03  0.47000000000E+01 0.  1.
         13    1    4    4    0    0  0.38193691382E+02 -0.90007867963E+02 -0.10665340691E+03  0.14468974934E+03  0.00000000000E+00 0. -1.
        -14    1    4    4    0    0 -0.13052494486E+02 -0.92087299388E+01  0.92822876109E+01  0.18475096283E+02  0.00000000000E+00 0.  1.
</event>
<event>
12    1  0.8113184E-002  0.1775376E+03  0.7818608E-02  0.1170850E+00
         21   -1    0    0  501  502  0.00000000000E+00  0.00000000000E+00  0.35594751889E+03  0.35594751889E+03  0.00000000000E+00 0. -1.
         21   -1    0    0  502  503 -0.00000000000E+00 -0.00000000000E+00 -0.35430098178E+03  0.35430098178E+03  0.00000000000E+00 0. -1.
         -6    2    1    2    0  503  0.34775994912E+02 -0.74712957706E+01 -0.30747721721E+03  0.35505187520E+03  0.17393793403E+03 0.  0.
        -24    2    3    3    0    0 -0.72927560381E+01 -0.63577785702E+02 -0.22185903381E+03  0.24428057319E+03  0.79726083759E+02 0.  0.
          6    2    1    2  501    0 -0.34775994912E+02  0.74712957706E+01  0.30912375432E+03  0.35519662546E+03  0.17129494205E+03 0.  0.
         24    2    5    5    0    0 -0.78016753890E+02  0.12871909757E+01  0.28226714873E+03  0.30370513439E+03  0.80459894701E+02 0.  0.
          5    1    5    5  501    0  0.43240758978E+02  0.61841047949E+01  0.26856605589E+02  0.51491491072E+02  0.47000000000E+01 0. -1.
        -11    1    6    6    0    0  0.12321447240E+00 -0.53692207702E+01 -0.41235973863E+01  0.67710980564E+01  0.00000000000E+00 0.  1.
         12    1    6    6    0    0 -0.78139968362E+02  0.66564117459E+01  0.28639074612E+03  0.29693403633E+03  0.00000000000E+00 0. -1.
         -5    1    3    3    0  503  0.42068750950E+02  0.56106489931E+02 -0.85618183400E+02  0.11077130200E+03  0.47000000000E+01 0.  1.
         11    1    4    4    0    0 -0.13643265517E+02 -0.65660956720E+02 -0.89930530336E+02  0.11218288737E+03  0.00000000000E+00 0. -1.
        -12    1    4    4    0    0  0.63505094793E+01  0.20831710181E+01 -0.13192850347E+03  0.13209768583E+03  0.00000000000E+00 0.  1.
</event>
<event>
12    1  0.8113184E-002  0.1940283E+03  0.7818608E-02  0.1155694E+00
         21   -1    0    0  501  502  0.00000000000E+00  0.00000000000E+00  0.34160782196E+02  0.34160782196E+02  0.00000000000E+00 0. -1.
         21   -1    0    0  502  503 -0.00000000000E+00 -0.00000000000E+00 -0.21484080025E+04  0.21484080025E+04  0.00000000000E+00 0. -1.
         -6    2    1    2    0  503 -0.61788601490E+02 -0.60239739197E+02 -0.18211344342E+04  0.18310548116E+04  0.16965977177E+03 0.  0.
        -24    2    3    3    0    0 -0.65246609256E+02 -0.46783427628E+02 -0.18073941461E+04  0.18109571586E+04  0.80289611910E+02 0.  0.
          6    2    1    2  501    0  0.61788601490E+02  0.60239739197E+02 -0.29311278616E+03  0.35151397316E+03  0.17378236524E+03 0.  0.
         24    2    5    5    0    0  0.71801898005E+02  0.44776837681E+01 -0.88931542445E+02  0.13956647208E+03  0.79965109122E+02 0.  0.
          5    1    5    5  501    0 -0.10013296516E+02  0.55762055429E+02 -0.20418124371E+03  0.21194750109E+03  0.47000000000E+01 0. -1.
        -11    1    6    6    0    0  0.89469111040E+02  0.16486079234E+01 -0.70937847018E+02  0.11419114623E+03  0.00000000000E+00 0.  1.
         12    1    6    6    0    0 -0.17667213034E+02  0.28290758447E+01 -0.17993695426E+02  0.25375325843E+02  0.00000000000E+00 0. -1.
         -5    1    3    3    0  503  0.34580077659E+01 -0.13456311569E+02 -0.13740288093E+02  0.20097652988E+02  0.47000000000E+01 0.  1.
         11    1    4    4    0    0 -0.58894485949E+02 -0.29590217152E+01 -0.13835347419E+04  0.13847908501E+04  0.00000000000E+00 0. -1.
        -12    1    4    4    0    0 -0.63521233062E+01 -0.43824405913E+02 -0.42385940415E+03  0.42616630851E+03  0.00000000000E+00 0.  1.
</event>
<event>
12    1  0.8113184E-002  0.1796638E+03  0.7818608E-02  0.1168170E+00
         21   -1    0    0  503  502  0.00000000000E+00  0.00000000000E+00  0.24521328763E+03  0.24521328763E+03  0.00000000000E+00 0. -1.
         21   -1    0    0  501  503 -0.00000000000E+00 -0.00000000000E+00 -0.13600815157E+03  0.13600815157E+03  0.00000000000E+00 0. -1.
          6    2    1    2  501    0  0.45704151738E+02  0.15357432436E+02  0.19919780213E+02  0.18059506709E+03  0.17289609711E+03 0.  0.
         24    2    3    3    0    0 -0.39173175602E+02 -0.32284025684E+01 -0.68147140961E+01  0.89565307417E+02  0.80190670870E+02 0.  0.
         -6    2    1    2    0  502 -0.45704151738E+02 -0.15357432436E+02  0.89285355848E+02  0.20062637212E+03  0.17307323942E+03 0.  0.
        -24    2    5    5    0    0 -0.51895302849E+02 -0.71200649184E+02  0.81618277692E+02  0.14372585106E+03  0.78948857548E+02 0.  0.
          5    1    3    3  501    0  0.84877327341E+02  0.18585835004E+02  0.26734494309E+02  0.91029759668E+02  0.47000000000E+01 0. -1.
        -13    1    4    4    0    0 -0.47670473263E+01  0.88264163384E+01  0.33641978648E+02  0.35105741595E+02  0.00000000000E+00 0.  1.
         14    1    4    4    0    0 -0.34406128276E+02 -0.12054818907E+02 -0.40456692744E+02  0.54459565822E+02  0.00000000000E+00 0. -1.
         -5    1    5    5    0  502  0.61911511106E+01  0.55843216748E+02  0.76670781556E+01  0.56900521055E+02  0.47000000000E+01 0.  1.
         13    1    6    6    0    0 -0.22737821955E+02 -0.35240953891E+02  0.87525785724E+02  0.97055121169E+02  0.00000000000E+00 0. -1.
        -14    1    6    6    0    0 -0.29157480894E+02 -0.35959695293E+02 -0.59075080320E+01  0.46670729894E+02  0.00000000000E+00 0.  1.
</event>
<event>
12    1  0.8113184E-002  0.3070779E+03  0.7818608E-02  0.1081795E+00
         21   -1    0    0  503  502  0.00000000000E+00  0.00000000000E+00  0.20163795922E+03  0.20163795922E+03  0.00000000000E+00 0. -1.
         21   -1    0    0  501  503 -0.00000000000E+00 -0.00000000000E+00 -0.50371494612E+03  0.50371494612E+03  0.00000000000E+00 0. -1.
          6    2    1    2  501    0  0.66960205346E+02  0.24520737687E+03 -0.56097214859E+02  0.31215974481E+03  0.17229765521E+03 0.  0.
         24    2    3    3    0    0  0.54417409799E+02  0.23946671090E+03 -0.90942991834E+02  0.27438945041E+03  0.81935234251E+02 0.  0.
         -6    2    1    2    0  502 -0.66960205346E+02 -0.24520737687E+03 -0.24597977204E+03  0.39319316053E+03  0.17171047278E+03 0.  0.
        -24    2    5    5    0    0 -0.91090278282E+02 -0.22408826936E+03 -0.15951585387E+03  0.30085478136E+03  0.80964810677E+02 0.  0.
          5    1    3    3  501    0  0.12542795548E+02  0.57406659627E+01  0.34845776974E+02  0.37770294396E+02  0.47000000000E+01 0. -1.
        -11    1    4    4    0    0 -0.16147546459E+02  0.14065952868E+02 -0.15532268813E+02  0.26454596221E+02  0.00000000000E+00 0.  1.
         12    1    4    4    0    0  0.70564956257E+02  0.22540075804E+03 -0.75410723020E+02  0.24793485419E+03  0.00000000000E+00 0. -1.
         -5    1    5    5    0  502  0.24130072935E+02 -0.21119107508E+02 -0.86463918175E+02  0.92338379172E+02  0.47000000000E+01 0.  1.
         11    1    6    6    0    0 -0.72505755025E+02 -0.86329494719E+02 -0.95786552760E+02  0.14793555982E+03  0.00000000000E+00 0. -1.
        -12    1    6    6    0    0 -0.18584523257E+02 -0.13775877464E+03 -0.63729301108E+02  0.15291922153E+03  0.00000000000E+00 0.  1.
</event>
<event>
12    1  0.8113184E-002  0.2097530E+03  0.7818608E-02  0.1141780E+00
         21   -1    0    0  501  502  0.00000000000E+00  0.00000000000E+00  0.60719520903E+03  0.60719520903E+03  0.00000000000E+00 0. -1.
         21   -1    0    0  502  503 -0.00000000000E+00 -0.00000000000E+00 -0.74074936428E+02  0.74074936428E+02  0.00000000000E+00 0. -1.
         -6    2    1    2    0  503 -0.85878069375E+02 -0.83350529497E+02  0.21567649174E+03  0.30078770106E+03  0.17214685141E+03 0.  0.
        -24    2    3    3    0    0 -0.57077026650E+01 -0.83082592892E+02  0.16891273134E+03  0.20785601230E+03  0.87962014128E+02 0.  0.
          6    2    1    2  501    0  0.85878069375E+02  0.83350529497E+02  0.31744378087E+03  0.38048244441E+03  0.17226137966E+03 0.  0.
         24    2    5    5    0    0 -0.17763320564E+02  0.40497373301E+02  0.10103493676E+03  0.13669399408E+03  0.80756527721E+02 0.  0.
          5    1    5    5  501    0  0.10364138994E+03  0.42853156196E+02  0.21640884411E+03  0.24378845033E+03  0.47000000000E+01 0. -1.
        -13    1    6    6    0    0 -0.41056316504E+01  0.58701627228E+02  0.38946422584E+02  0.70566005148E+02  0.00000000000E+00 0.  1.
         14    1    6    6    0    0 -0.13657688913E+02 -0.18204253927E+02  0.62088514176E+02  0.66127988931E+02  0.00000000000E+00 0. -1.
         -5    1    3    3    0  503 -0.80170366710E+02 -0.26793660438E+00  0.46763760397E+02  0.92931688755E+02  0.47000000000E+01 0.  1.
         13    1    4    4    0    0 -0.27396026266E+02 -0.48950523030E+02  0.15540595295E+03  0.16522017484E+03  0.00000000000E+00 0. -1.
        -14    1    4    4    0    0  0.21688323601E+02 -0.34132069863E+02  0.13506778385E+02  0.42635837462E+02  0.00000000000E+00 0.  1.
</event>
<event>
12    1  0.8113184E-002  0.1986777E+03  0.7818608E-02  0.1150915E+00
         21   -1    0    0  503  502  0.00000000000E+00  0.00000000000E+00  0.98759847091E+03  0.98759847091E+03  0.00000000000E+00 0.  1.
         21   -1    0    0  501  503 -0.00000000000E+00 -0.00000000000E+00 -0.74777788004E+02  0.74777788004E+02  0.00000000000E+00 0. -1.
          6    2    1    2  501    0 -0.20359698498E+02 -0.97663768140E+02  0.93557090349E+02  0.21936638133E+03  0.17151079026E+03 0.  0.
         24    2    3    3    0    0  0.14293770890E+02  0.58260780813E+00  0.93543368429E+02  0.11508165802E+03  0.65488738863E+02 0.  0.
         -6    2    1    2    0  502  0.20359698498E+02  0.97663768140E+02  0.81926359256E+03  0.84300987758E+03  0.17181411665E+03 0.  0.
        -24    2    5    5    0    0 -0.26760643226E+02  0.61366837906E+02  0.24900280345E+03  0.26963630709E+03  0.78862672753E+02 0.  0.
          5    1    3    3  501    0 -0.34653469388E+02 -0.98246375949E+02  0.13721919914E-01  0.10428472331E+03  0.47000000000E+01 0. -1.
        -13    1    4    4    0    0  0.77553012062E+01  0.87020371995E+01 -0.72654537538E+01  0.13735245410E+02  0.00000000000E+00 0.  1.
         14    1    4    4    0    0  0.65384696843E+01 -0.81194293914E+01  0.10080882218E+03  0.10134641261E+03  0.00000000000E+00 0. -1.
         -5    1    5    5    0  502  0.47120341723E+02  0.36296930235E+02  0.57026078911E+03  0.57337357049E+03  0.47000000000E+01 0.  1.
         11    1    6    6    0    0  0.19585022047E+02 -0.50277734954E+01  0.75652721701E+02  0.78308274758E+02  0.00000000000E+00 0. -1.
        -12    1    6    6    0    0 -0.46345665273E+02  0.66394611401E+02  0.17335008175E+03  0.19132803233E+03  0.00000000000E+00 0.  1.
</event>
<event>
12    1  0.8113184E-002  0.2667040E+03  0.7818608E-02  0.1104272E+00
         21   -1    0    0  503  502  0.00000000000E+00  0.00000000000E+00  0.92441664049E+03  0.92441664049E+03  0.00000000000E+00 0.  1.
         21   -1    0    0  501  503 -0.00000000000E+00 -0.00000000000E+00 -0.74829638011E+02  0.74829638011E+02  0.00000000000E+00 0.  1.
          6    2    1    2  501    0 -0.74917349244E+02 -0.17884690383E+03  0.41624220321E+03  0.49040567330E+03  0.17216657179E+03 0.  0.
         24    2    3    3    0    0 -0.54505405071E+02 -0.20372343031E+03  0.34717207284E+03  0.41406261897E+03  0.80282806583E+02 0.  0.
         -6    2    1    2    0  502  0.74917349244E+02  0.17884690383E+03  0.43334479926E+03  0.50884060519E+03  0.18311805542E+03 0.  0.
        -24    2    5    5    0    0  0.90955155093E+02  0.14767101753E+03  0.21724088371E+03  0.28986083576E+03  0.82134845828E+02 0.  0.
          5    1    3    3  501    0 -0.20411944174E+02  0.24876526476E+02  0.69070130378E+02  0.76343054334E+02  0.47000000000E+01 0. -1.
        -13    1    4    4    0    0 -0.43624229014E+02 -0.11600245028E+03  0.13009388479E+03  0.17967765773E+03  0.00000000000E+00 0.  1.
         14    1    4    4    0    0 -0.10881176057E+02 -0.87720980028E+02  0.21707818805E+03  0.23438496124E+03  0.00000000000E+00 0. -1.
         -5    1    5    5    0  502 -0.16037805849E+02  0.31175886306E+02  0.21610391555E+03  0.21897976943E+03  0.47000000000E+01 0.  1.
         13    1    6    6    0    0  0.36865683202E+02  0.69336399990E+01  0.23118503417E+02  0.44063807846E+02  0.00000000000E+00 0. -1.
        -14    1    6    6    0    0  0.54089471891E+02  0.14073737753E+03  0.19412238029E+03  0.24579702792E+03  0.00000000000E+00 0.  1.
</event>
<event>
12    1  0.8113184E-002  0.1746326E+03  0.7818608E-02  0.1173124E+00
         21   -1    0    0  501  502  0.00000000000E+00  0.00000000000E+00  0.11993264613E+03  0.11993264613E+03  0.00000000000E+00 0. -1.
         21   -1    0    0  502  503 -0.00000000000E+00 -0.00000000000E+00 -0.43642256837E+03  0.43642256837E+03  0.00000000000E+00 0. -1.
         -6    2    1    2    0  503 -0.26679910597E+02  0.80330170639E+01 -0.33799643704E+03  0.38040325490E+03  0.17230408553E+03 0.  0.
        -24    2    3    3    0    0  0.18141230303E+02 -0.37692759268E+02 -0.27926813804E+03  0.29339242571E+03  0.79615163128E+02 0.  0.
          6    2    1    2  501    0  0.26679910597E+02 -0.80330170639E+01  0.21506514813E+02  0.17595195960E+03  0.17239551884E+03 0.  0.
         24    2    5    5    0    0  0.40896511103E+02  0.21279870022E+02  0.72814889275E+02  0.11499298676E+03  0.76131605895E+02 0.  0.
          5    1    5    5  501    0 -0.14216600506E+02 -0.29312887086E+02 -0.51308374462E+02  0.60958972836E+02  0.47000000000E+01 0. -1.
        -11    1    6    6    0    0  0.32927165249E+02  0.27760982485E+02  0.16596975698E+01  0.43100173502E+02  0.00000000000E+00 0.  1.
         12    1    6    6    0    0  0.79693458538E+01 -0.64811124629E+01  0.71155191705E+02  0.71892813261E+02  0.00000000000E+00 0. -1.
         -5    1    3    3    0  503 -0.44821140900E+02  0.45725776332E+02 -0.58728299001E+02  0.87010829190E+02  0.47000000000E+01 0.  1.
         13    1    4    4    0    0  0.14931006238E+01  0.19245331821E+02 -0.14909584150E+03  0.15034022117E+03  0.00000000000E+00 0. -1.
        -14    1    4    4    0    0  0.16648129680E+02 -0.56938091089E+02 -0.13017229654E+03  0.14305220454E+03  0.00000000000E+00 0.  1.
</event>
<event>
12    1  0.8113184E-002  0.1915428E+03  0.7818608E-02  0.1157715E+00
         21   -1    0    0  503  502  0.00000000000E+00  0.00000000000E+00  0.37267657887E+03  0.37267657887E+03  0.00000000000E+00 0.  1.
         21   -1    0    0  501  503 -0.00000000000E+00 -0.00000000000E+00 -0.16958746111E+03  0.16958746111E+03  0.00000000000E+00 0.  1.
          6    2    1    2  501    0  0.70114587219E+02  0.48403491477E+02 -0.76276365272E+02  0.20354039247E+03  0.16837949441E+03 0.  0.
         24    2    3    3    0    0  0.28918425740E+02 -0.27358499986E+02 -0.77819064805E+02  0.11716057426E+03  0.78013014591E+02 0.  0.
         -6    2    1    2    0  502 -0.70114587219E+02 -0.48403491477E+02  0.27936548303E+03  0.33872364751E+03  0.17155081740E+03 0.  0.
        -24    2    5    5    0    0  0.12354607713E+02  0.15612519343E+02  0.80704874119E+02  0.11425239037E+03  0.78383320329E+02 0.  0.
          5    1    3    3  501    0  0.41196161479E+02  0.75761991463E+02  0.15426995326E+01  0.86379818203E+02  0.47000000000E+01 0. -1.
        -13    1    4    4    0    0  0.15229746278E+02  0.11817382301E+02 -0.72859803017E+02  0.75366747255E+02  0.00000000000E+00 0.  1.
         14    1    4    4    0    0  0.13688679462E+02 -0.39175882287E+02 -0.49592617872E+01  0.41793827007E+02  0.00000000000E+00 0. -1.
         -5    1    5    5    0  502 -0.82469194932E+02 -0.64016010819E+02  0.19866060891E+03  0.22447125715E+03  0.47000000000E+01 0.  1.
         13    1    6    6    0    0  0.72432506063E+01 -0.18415716424E+02  0.77163579611E+02  0.79660663500E+02  0.00000000000E+00 0. -1.
        -14    1    6    6    0    0  0.51113571070E+01  0.34028235766E+02  0.35412945081E+01  0.34591726867E+02  0.00000000000E+00 0.  1.
</event>
<event>
12    1  0.8113184E-002  0.1828055E+03  0.7818608E-02  0.1165411E+00
         21   -1    0    0  503  502  0.00000000000E+00  0.00000000000E+00  0.94991961932E+03  0.94991961932E+03  0.00000000000E+00 0.  1.
         21   -1    0    0  501  503 -0.00000000000E+00 -0.00000000000E+00 -0.25898876472E+03  0.25898876472E+03  0.00000000000E+00 0.  1.
          6    2    1    2  501    0  0.25556631563E+02  0.52149581353E+02 -0.21657823496E+03  0.28341487352E+03  0.17333533519E+03 0.  0.
         24    2    3    3    0    0  0.35769785513E+02  0.43704384041E+02 -0.23822199792E+03  0.25760455879E+03  0.80130129660E+02 0.  0.
         -6    2    1    2    0  502 -0.25556631563E+02 -0.52149581353E+02  0.90750908956E+03  0.92549351051E+03  0.17202549263E+03 0.  0.
        -24    2    5    5    0    0  0.24569059041E+02 -0.38997146150E+02  0.24820379364E+03  0.26413798235E+03  0.77713155060E+02 0.  0.
          5    1    3    3  501    0 -0.10213153950E+02  0.84451973126E+01  0.21643762963E+02  0.25810314730E+02  0.47000000000E+01 0. -1.
        -11    1    4    4    0    0  0.58967594375E+02  0.45896110370E+02 -0.18296680201E+03  0.19763724540E+03  0.00000000000E+00 0.  1.
         12    1    4    4    0    0 -0.23197808862E+02 -0.21917263292E+01 -0.55255195909E+02  0.59967313390E+02  0.00000000000E+00 0. -1.
         -5    1    5    5    0  502 -0.50125690603E+02 -0.13152435204E+02  0.65930529592E+03  0.66135552816E+03  0.47000000000E+01 0.  1.
         13    1    6    6    0    0  0.16741540456E+02 -0.58899149369E+02  0.12615960812E+03  0.14023421727E+03  0.00000000000E+00 0. -1.
        -14    1    6    6    0    0  0.78275185841E+01  0.19902003220E+02  0.12204418552E+03  0.12390376507E+03  0.00000000000E+00 0.  1.
</event>
<event>
12    1  0.8113184E-002  0.1992480E+03  0.7818608E-02  0.1150613E+00
         21   -1    0    0  503  502  0.00000000000E+00  0.00000000000E+00  0.25737521391E+03  0.25737521391E+03  0.00000000000E+00 0. -1.
         21   -1    0    0  501  503 -0.00000000000E+00 -0.00000000000E+00 -0.16097222215E+03  0.16097222215E+03  0.00000000000E+00 0. -1.
          6    2    1    2  501    0 -0.77371153121E+02  0.61408864679E+02  0.26523944439E+01  0.19814540151E+03  0.17174755005E+03 0.  0.
         24    2    3    3    0    0 -0.99320291169E+02  0.29137876777E+02 -0.43538779115E+02  0.13749149944E+03  0.79339467050E+02 0.  0.
         -6    2    1    2    0  502  0.77371153121E+02 -0.61408864679E+02  0.93750597313E+02  0.22020203455E+03  0.17303877463E+03 0.  0.
        -24    2    5    5    0    0  0.65962820438E+02 -0.84066041072E+02  0.14377854621E+02  0.13674174471E+03  0.84103442868E+02 0.  0.
          5    1    3    3  501    0  0.21949138048E+02  0.32270987902E+02  0.46191173558E+02  0.60653902067E+02  0.47000000000E+01 0. -1.
        -11    1    4    4    0    0  0.13378118091E+02 -0.70563026546E+00 -0.11671143378E+01  0.13447457515E+02  0.00000000000E+00 0.  1.
         12    1    4    4    0    0 -0.11269840926E+03  0.29843507043E+02 -0.42371664777E+02  0.12404404193E+03  0.00000000000E+00 0. -1.
         -5    1    5    5    0  502  0.11408332683E+02  0.22657176393E+02  0.79372742691E+02  0.83460289833E+02  0.47000000000E+01 0.  1.
         13    1    6    6    0    0  0.26475678527E+02 -0.85118459200E+02  0.30303519405E+02  0.94151032593E+02  0.00000000000E+00 0. -1.
        -14    1    6    6    0    0  0.39487141911E+02  0.10524181272E+01 -0.15925664783E+02  0.42590712122E+02  0.00000000000E+00 0.  1.
</event>
<event>
12    1  0.8113184E-002  0.1853264E+03  0.7818608E-02  0.1162862E+00
         21   -1    0    0  503  502  0.00000000000E+00  0.00000000000E+00  0.23847704128E+02  0.23847704128E+02  0.00000000000E+00 0.  1.
         21   -1    0    0  501  503 -0.00000000000E+00 -0.00000000000E+00 -0.26609321701E+04  0.26609321701E+04  0.00000000000E+00 0.  1.
          6    2    1    2  501    0 -0.47900435108E+02  0.46474126120E+02 -0.22282462402E+04  0.22358983963E+04  0.17235438846E+03 0.  0.
         24    2    3    3    0    0 -0.26922948854E+02  0.30247386934E+02 -0.21682426937E+04  0.21701269922E+04  0.80839556996E+02 0.  0.
         -6    2    1    2    0  502  0.47900435108E+02 -0.46474126120E+02 -0.40883822571E+03  0.44888147793E+03  0.17289184581E+03 0.  0.
        -24    2    5    5    0    0  0.48930335159E+02 -0.61784634457E+02 -0.41671468882E+03  0.43100408912E+03  0.76823656532E+02 0.  0.
          5    1    3    3  501    0 -0.20977486254E+02  0.16226739185E+02 -0.60003546567E+02  0.65771404080E+02  0.47000000000E+01 0. -1.
        -11    1    4    4    0    0  0.27720074516E+02  0.48576715786E-01 -0.74529419510E+03  0.74580952135E+03  0.00000000000E+00 0.  1.
         12    1    4    4    0    0 -0.54643023370E+02  0.30198810219E+02 -0.14229484986E+04  0.14243174708E+04  0.00000000000E+00 0. -1.
         -5    1    5    5    0  502 -0.10299000508E+01  0.15310508337E+02  0.78764631131E+01  0.17877388815E+02  0.47000000000E+01 0.  1.
         11    1    6    6    0    0  0.54267781059E+02 -0.80081934148E+01 -0.24115123477E+03  0.24731162782E+03  0.00000000000E+00 0. -1.
        -12    1    6    6    0    0 -0.53374459008E+01 -0.53776441042E+02 -0.17556345405E+03  0.18369246130E+03  0.00000000000E+00 0.  1.
</event>
<event>
12    1  0.8113184E-002  0.1761867E+03  0.7818608E-02  0.1172121E+00
         21   -1    0    0  503  502  0.00000000000E+00  0.00000000000E+00  0.19717573274E+02  0.19717573274E+02  0.00000000000E+00 0.  1.
         21   -1    0    0  501  503 -0.00000000000E+00 -0.00000000000E+00 -0.15996314474E+04  0.15996314474E+04  0.00000000000E+00 0.  1.
          6    2    1    2  501    0  0.24823944992E+01 -0.22872754879E+02 -0.93193264769E+03  0.94844093485E+03  0.17467805207E+03 0.  0.
         24    2    3    3    0    0 -0.53422094141E+02 -0.28615705461E+02 -0.77591583317E+03  0.78254449202E+03  0.81594871693E+02 0.  0.
         -6    2    1    2    0  502 -0.24823944992E+01  0.22872754879E+02 -0.64798122646E+03  0.67090808584E+03  0.17236201615E+03 0.  0.
        -24    2    5    5    0    0  0.13706318686E+02  0.48146957296E+01 -0.63989907648E+03  0.64491618166E+03  0.78962072060E+02 0.  0.
          5    1    3    3  501    0  0.55904488640E+02  0.57429505822E+01 -0.15601681452E+03  0.16589644283E+03  0.47000000000E+01 0. -1.
        -11    1    4    4    0    0  0.98737715662E+01  0.90772879228E+01 -0.35339477005E+03  0.35364919344E+03  0.00000000000E+00 0.  1.
         12    1    4    4    0    0 -0.63295865707E+02 -0.37692993384E+02 -0.42252106312E+03  0.42889529858E+03  0.00000000000E+00 0. -1.
         -5    1    5    5    0  502 -0.16188713185E+02  0.18058059150E+02 -0.80821499831E+01  0.25991904186E+02  0.47000000000E+01 0.  1.
         13    1    6    6    0    0  0.43952852382E+02  0.34143795969E+00 -0.48767479836E+03  0.48965158916E+03  0.00000000000E+00 0. -1.
        -14    1    6    6    0    0 -0.30246533696E+02  0.44732577699E+01 -0.15222427812E+03  0.15526459250E+03  0.00000000000E+00 0.  1.
</event>
<event>
12    1  0.8113184E-002  0.1947964E+03  0.7818608E-02  0.1154547E+00
         21   -1    0    0  501  502  0.00000000000E+00  0.00000000000E+00  0.60615096387E+03  0.60615096387E+03  0.00000000000E+00 0.  1.
         21   -1    0    0  502  503 -0.00000000000E+00 -0.00000000000E+00 -0.67403411401E+02  0.67403411401E+02  0.00000000000E+00 0.  1.
         -6    2    1    2    0  503 -0.89722963488E+02 -0.71758735315E+01  0.17591622007E+03  0.26247316575E+03  0.17275399538E+03 0.  0.
        -24    2    3    3    0    0 -0.83454468124E+02  0.38900732847E+02  0.58436873029E+02  0.13603806513E+03  0.81323869615E+02 0.  0.
          6    2    1    2  501    0  0.89722963488E+02  0.71758735315E+01  0.36283133240E+03  0.41108120952E+03  0.17099556049E+03 0.  0.
         24    2    5    5    0    0  0.38004338232E+02  0.68956322852E+02  0.19193395087E+03  0.22208479386E+03  0.79269855435E+02 0.  0.
          5    1    5    5  501    0  0.51718625257E+02 -0.61780449321E+02  0.17089738154E+03  0.18899641566E+03  0.47000000000E+01 0. -1.
        -11    1    6    6    0    0  0.15374078269E+02  0.76812920592E+01  0.13300592217E+03  0.13411166938E+03  0.00000000000E+00 0.  1.
         12    1    6    6    0    0  0.22630259963E+02  0.61275030793E+02  0.58928028697E+02  0.87973124480E+02  0.00000000000E+00 0. -1.
         -5    1    3    3    0  503 -0.62684953639E+01 -0.46076606378E+02  0.11747934704E+03  0.12643510062E+03  0.47000000000E+01 0.  1.
         11    1    4    4    0    0 -0.29578402239E+01  0.26707897025E+02  0.46565220685E+02  0.53762257762E+02  0.00000000000E+00 0. -1.
        -12    1    4    4    0    0 -0.80496627900E+02  0.12192835822E+02  0.11871652344E+02  0.82275807368E+02  0.00000000000E+00 0.  1.
</event>
<event>
12    1  0.8113184E-002  0.1903336E+03  0.7818608E-02  0.1158236E+00
         21   -1    0    0  501  502  0.00000000000E+00  0.00000000000E+00  0.33818072889E+03  0.33818072889E+03  0.00000000000E+00 0. -1.
         21   -1    0    0  502  503 -0.00000000000E+00 -0.00000000000E+00 -0.14529444796E+03  0.14529444796E+03  0.00000000000E+00 0. -1.
         -6    2    1    2    0  503  0.56153163997E+02  0.56274997914E+02 -0.27827768713E+02  0.19202777484E+03  0.17256948856E+03 0.  0.
        -24    2    3    3    0    0  0.46280270798E+02  0.90027056952E+02 -0.59328477666E+02  0.14458243604E+03  0.84483596636E+02 0.  0.
          6    2    1    2  501    0 -0.56153163997E+02 -0.56274997914E+02  0.22071404964E+03  0.29144740201E+03  0.17293595119E+03 0.  0.
         24    2    5    5    0    0 -0.20898349423E+01 -0.46484449516E+02  0.21722115317E+03  0.23619354502E+03  0.80232100003E+02 0.  0.
          5    1    5    5  501    0 -0.54063329054E+02 -0.97905483976E+01  0.34928964731E+01  0.55253856989E+02  0.47000000000E+01 0. -1.
        -11    1    6    6    0    0  0.37582016494E+02 -0.23167880619E+02  0.78812998670E+02  0.90336301759E+02  0.00000000000E+00 0.  1.
         12    1    6    6    0    0 -0.39671851437E+02 -0.23316568898E+02  0.13840815450E+03  0.14585724327E+03  0.00000000000E+00 0. -1.
         -5    1    3    3    0  503  0.98728931990E+01 -0.33752059038E+02  0.31500708953E+02  0.47445338801E+02  0.47000000000E+01 0.  1.
         11    1    4    4    0    0  0.36155753451E+02 -0.35480544441E+01 -0.73609883321E+01  0.37067659047E+02  0.00000000000E+00 0. -1.
        -12    1    4    4    0    0  0.10124517346E+02  0.93575111396E+02 -0.51967489334E+02  0.10751477699E+03  0.00000000000E+00 0.  1.
</event>
<event>
12    1  0.8113184E-002  0.1795375E+03  0.7818608E-02  0.1168659E+00
         21   -1    0    0  501  502  0.00000000000E+00  0.00000000000E+00  0.24090279760E+03  0.24090279760E+03  0.00000000000E+00 0. -1.
         21   -1    0    0  502  503 -0.00000000000E+00 -0.00000000000E+00 -0.13858920210E+03  0.13858920210E+03  0.00000000000E+00 0. -1.
         -6    2    1    2    0  503  0.26349326137E+02  0.37484416848E+02  0.11813367831E+02  0.17992577357E+03  0.17359251090E+03 0.  0.
        -24    2    3    3    0    0 -0.93007554013E+01 -0.15081299138E+02  0.61449261487E+02  0.99179908349E+02  0.75806944591E+02 0.  0.
          6    2    1    2  501    0 -0.26349326137E+02 -0.37484416848E+02  0.90500227672E+02  0.19956622613E+03  0.17186337280E+03 0.  0.
         24    2    5    5    0    0  0.30284522607E+02 -0.24054278083E+02  0.10757838029E+03  0.13872615096E+03  0.78588017211E+02 0.  0.
          5    1    5    5  501    0 -0.56633848744E+02 -0.13430138764E+02 -0.17078152620E+02  0.60840075178E+02  0.47000000000E+01 0. -1.
        -11    1    6    6    0    0 -0.23971496412E+02  0.61502563502E+01  0.39208988198E+02  0.46365968651E+02  0.00000000000E+00 0.  1.
         12    1    6    6    0    0  0.54256019019E+02 -0.30204534433E+02  0.68369392095E+02  0.92360182305E+02  0.00000000000E+00 0. -1.
         -5    1    3    3    0  503  0.35650081539E+02  0.52565715986E+02 -0.49635893656E+02  0.80745865218E+02  0.47000000000E+01 0.  1.
         13    1    4    4    0    0 -0.15541164481E+02  0.22859213552E+02  0.53055056062E+02  0.59823995281E+02  0.00000000000E+00 0. -1.
        -14    1    4    4    0    0  0.62404090796E+01 -0.37940512691E+02  0.83942054249E+01  0.39355913068E+02  0.00000000000E+00 0.  1.
</event>
<event>
12    1  0.8113184E-002  0.1776519E+03  0.7818608E-02  0.1171059E+00
         21   -1    0    0  501  502  0.00000000000E+00  0.00000000000E+00  0.42709055046E+02  0.42709055046E+02  0.00000000000E+00 0. -1.
         21   -1    0    0  502  503 -0.00000000000E+00 -0.00000000000E+00 -0.10833278760E+04  0.10833278760E+04  0.00000000000E+00 0. -1.
         -6    2    1    2    0  503 -0.24781366744E+02  0.66546473543E+01 -0.84120459436E+03  0.85896722179E+03  0.17187529802E+03 0.  0.
        -24    2    3    3    0    0 -0.35933702327E+01  0.68383149899E+02 -0.60290795663E+03  0.61185041383E+03  0.78573260326E+02 0.  0.
          6    2    1    2  501    0  0.24781366744E+02 -0.66546473543E+01 -0.19941422659E+03  0.26706970926E+03  0.17578906497E+03 0.  0.
         24    2    5    5    0    0 -0.42635295456E+02  0.36421117257E+02 -0.11162071745E+03  0.14819869476E+03  0.79745861108E+02 0.  0.
          5    1    5    5  501    0  0.67416662200E+02 -0.43075764611E+02 -0.87793509144E+02  0.11887101449E+03  0.47000000000E+01 0. -1.
        -11    1    6    6    0    0 -0.24108112873E+02 -0.69102503287E+01  0.20337882162E+01  0.25161259118E+02  0.00000000000E+00 0.  1.
         12    1    6    6    0    0 -0.18527182583E+02  0.43331367585E+02 -0.11365450567E+03  0.12303743564E+03  0.00000000000E+00 0. -1.
         -5    1    3    3    0  503 -0.21187996512E+02 -0.61728502544E+02 -0.23829663773E+03  0.24711680796E+03  0.47000000000E+01 0.  1.
         11    1    4    4    0    0 -0.38292431150E+02  0.44610028880E+02 -0.27207894728E+03  0.27835825569E+03  0.00000000000E+00 0. -1.
        -12    1    4    4    0    0  0.34699060918E+02  0.23773121019E+02 -0.33082900936E+03  0.33349215814E+03  0.00000000000E+00 0.  1.
</event>
<event>
12    1  0.8113184E-002  0.2439396E+03  0.7818608E-02  0.1117303E+00
         21   -1    0    0  501  502  0.00000000000E+00  0.00000000000E+00  0.34763098179E+03  0.34763098179E+03  0.00000000000E+00 0.  1.
         21   -1    0    0  502  503 -0.00000000000E+00 -0.00000000000E+00 -0.34759127857E+03  0.34759127857E+03  0.00000000000E+00 0.  1.
         -6    2    1    2    0  503  0.67628922262E+02  0.15805140475E+03 -0.24794476193E+03  0.34736764217E+03  0.17214457932E+03 0.  0.
        -24    2    3    3    0    0 -0.25615223928E+02  0.97145266584E+02 -0.16684374726E+03  0.20951448462E+03  0.77240797200E+02 0.  0.
          6    2    1    2  501    0 -0.67628922262E+02 -0.15805140475E+03  0.24798446514E+03  0.34785461819E+03  0.17306826045E+03 0.  0.
         24    2    5    5    0    0 -0.10784484943E+03 -0.11881864894E+03  0.14714622716E+03  0.23232553023E+03  0.81084874944E+02 0.  0.
          5    1    5    5  501    0  0.40215927163E+02 -0.39232755810E+02  0.10083823798E+03  0.11552908796E+03  0.47000000000E+01 0. -1.
        -13    1    6    6    0    0 -0.83873699540E+02 -0.11532765525E+03  0.15111748271E+03  0.20777814881E+03  0.00000000000E+00 0.  1.
         14    1    6    6    0    0 -0.23971149886E+02 -0.34909936844E+01 -0.39712555549E+01  0.24547381417E+02  0.00000000000E+00 0. -1.
         -5    1    3    3    0  503  0.93244146190E+02  0.60906138163E+02 -0.81101014668E+02  0.13785315754E+03  0.47000000000E+01 0.  1.
         11    1    4    4    0    0 -0.35678765117E+02  0.75775415502E+01 -0.44002214461E+02  0.57154075040E+02  0.00000000000E+00 0. -1.
        -12    1    4    4    0    0  0.10063541189E+02  0.89567725033E+02 -0.12284153280E+03  0.15236040958E+03  0.00000000000E+00 0.  1.
</event>
<event>
12    1  0.8113184E-002  0.2534885E+03  0.7818608E-02  0.1111473E+00
         21   -1    0    0  501  502  0.00000000000E+00  0.00000000000E+00  0.24998978786E+03  0.24998978786E+03  0.00000000000E+00 0.  1.
         21   -1    0    0  502  503 -0.00000000000E+00 -0.00000000000E+00 -0.31528756453E+03  0.31528756453E+03  0.00000000000E+00 0. -1.
         -6    2    1    2    0  503 -0.30763118440E+00 -0.18423287158E+03 -0.15638038001E+03  0.29592167549E+03  0.17080096360E+03 0.  0.
        -24    2    3    3    0    0  0.42817004695E+02 -0.18399412215E+03 -0.14145254221E+03  0.25004443100E+03  0.82621201274E+02 0.  0.
          6    2    1    2  501    0  0.30763118440E+00  0.18423287158E+03  0.91082603339E+02  0.26935567690E+03  0.17411086824E+03 0.  0.
         24    2    5    5    0    0 -0.67162746176E+02  0.90332870419E+02  0.40799160597E+02  0.14318128705E+03  0.78520363627E+02 0.  0.
          5    1    5    5  501    0  0.67470377361E+02  0.93900001158E+02  0.50283442742E+02  0.12617438984E+03  0.47000000000E+01 0. -1.
        -13    1    6    6    0    0 -0.65174683113E+02  0.85680388330E+02  0.60056338323E+02  0.12327056435E+03  0.00000000000E+00 0.  1.
         14    1    6    6    0    0 -0.19880630630E+01  0.46524820892E+01 -0.19257177727E+02  0.19910722697E+02  0.00000000000E+00 0. -1.
         -5    1    3    3    0  503 -0.43124635879E+02 -0.23874943140E+00 -0.14927837795E+02  0.45877244492E+02  0.47000000000E+01 0.  1.
         11    1    4    4    0    0  0.13431518610E+00 -0.14632491486E+03 -0.82013747006E+02  0.16774162706E+03  0.00000000000E+00 0. -1.
        -12    1    4    4    0    0  0.42682689508E+02 -0.37669207285E+02 -0.59438795206E+02  0.82302803942E+02  0.00000000000E+00 0.  1.
</event>
<event>
12    1  0.8113184E-002  0.1903563E+03  0.7818608E-02  0.1159941E+00
         21   -1    0    0  503  502  0.00000000000E+00  0.00000000000E+00  0.19563056633E+04  0.19563056633E+04  0.00000000000E+00 0.  1.
         21   -1    0    0  501  503 -0.00000000000E+00 -0.00000000000E+00 -0.22144129345E+03  0.22144129345E+03  0.00000000000E+00 0.  1.
          6    2    1    2  501    0 -0.33235859227E+02 -0.51627681783E+02 -0.17828462516E+03  0.25515116151E+03  0.17189144187E+03 0.  0.
         24    2    3    3    0    0  0.94612664571E+01 -0.88077710584E+02 -0.84731808490E+02  0.14594553598E+03  0.79204933162E+02 0.  0.
         -6    2    1    2    0  502  0.33235859227E+02  0.51627681783E+02  0.19131489951E+04  0.19225957953E+04  0.18018178301E+03 0.  0.
        -24    2    5    5    0    0  0.89963576859E+02  0.42334180987E+02  0.10703346823E+04  0.10778103439E+04  0.78569569395E+02 0.  0.
          5    1    3    3  501    0 -0.42697125684E+02  0.36450028800E+02 -0.93552816671E+02  0.10920562553E+03  0.47000000000E+01 0. -1.
        -11    1    4    4    0    0  0.24952148292E+02 -0.77675782326E+02 -0.94531623475E+02  0.12486939057E+03  0.00000000000E+00 0.  1.
         12    1    4    4    0    0 -0.15490881835E+02 -0.10401928257E+02  0.97998149857E+01  0.21076145408E+02  0.00000000000E+00 0. -1.
         -5    1    5    5    0  502 -0.56727717632E+02  0.92935007964E+01  0.84281431272E+03  0.84478545136E+03  0.47000000000E+01 0.  1.
         13    1    6    6    0    0  0.79362204589E+02  0.47103793849E+01  0.51485444541E+03  0.52095647338E+03  0.00000000000E+00 0. -1.
        -14    1    6    6    0    0  0.10601372270E+02  0.37623801602E+02  0.55548023693E+03  0.55685387056E+03  0.00000000000E+00 0.  1.
</event>
<event>
12    1  0.8113184E-002  0.2675080E+03  0.7818608E-02  0.1104738E+00
         21   -1    0    0  501  502  0.00000000000E+00  0.00000000000E+00  0.27480590727E+02  0.27480590727E+02  0.00000000000E+00 0.  1.
         21   -1    0    0  502  503 -0.00000000000E+00 -0.00000000000E+00 -0.24778333788E+04  0.24778333788E+04  0.00000000000E+00 0. -1.
         -6    2    1    2    0  503  0.17629331455E+03 -0.62872652706E+02 -0.12461917325E+04  0.12717968857E+04  0.17158432640E+03 0.  0.
        -24    2    3    3    0    0  0.11230531516E+03 -0.66973521785E+02 -0.11164751379E+04  0.11270220049E+04  0.81018081584E+02 0.  0.
          6    2    1    2  501    0 -0.17629331455E+03  0.62872652706E+02 -0.12041610555E+04  0.12335170838E+04  0.19112363844E+03 0.  0.
         24    2    5    5    0    0 -0.12178595129E+03 -0.33041929010E+01 -0.41480239865E+03  0.43950221824E+03  0.79110266662E+02 0.  0.
          5    1    5    5  501    0 -0.54507363260E+02  0.66176845607E+02 -0.78935865690E+03  0.79401486558E+03  0.47000000000E+01 0. -1.
        -13    1    6    6    0    0 -0.59330380166E+02  0.34342821069E+02 -0.15150912125E+03  0.16629653391E+03  0.00000000000E+00 0.  1.
         14    1    6    6    0    0 -0.62455571119E+02 -0.37647013970E+02 -0.26329327740E+03  0.27320568433E+03  0.00000000000E+00 0. -1.
         -5    1    3    3    0  503  0.63987999386E+02  0.41008690797E+01 -0.12971659466E+03  0.14477488084E+03  0.47000000000E+01 0.  1.
         11    1    4    4    0    0  0.76071207958E+02 -0.19528546251E+02 -0.86499182583E+03  0.86854997067E+03  0.00000000000E+00 0. -1.
        -12    1    4    4    0    0  0.36234107201E+02 -0.47444975534E+02 -0.25148331204E+03  0.25847203420E+03  0.00000000000E+00 0.  1.
</event>
<event>
12    1  0.8113184E-002  0.1919116E+03  0.7818608E-02  0.1157233E+00
         21   -1    0    0  503  502  0.00000000000E+00  0.00000000000E+00  0.61993636763E+02  0.61993636763E+02  0.00000000000E+00 0. -1.
         21   -1    0    0  501  503 -0.00000000000E+00 -0.00000000000E+00 -0.14223424296E+04  0.14223424296E+04  0.00000000000E+00 0. -1.
          6    2    1    2  501    0  0.66273490454E+02  0.48804727090E+02 -0.12472017038E+04  0.12615529366E+04  0.17096679524E+03 0.  0.
         24    2    3    3    0    0  0.68105544565E+02  0.94854514053E+02 -0.99418849318E+03  0.10043337421E+04  0.81484731612E+02 0.  0.
         -6    2    1    2    0  502 -0.66273490454E+02 -0.48804727090E+02 -0.11314708901E+03  0.22278312969E+03  0.17336661213E+03 0.  0.
        -24    2    5    5    0    0 -0.48775041743E+02 -0.34018536420E+02  0.79285441696E+01  0.99469602080E+02  0.79341504953E+02 0.  0.
          5    1    3    3  501    0 -0.18320541113E+01 -0.46049786963E+02 -0.25301321062E+03  0.25721919456E+03  0.47000000000E+01 0. -1.
        -13    1    4    4    0    0 -0.17076985754E+02  0.11238469546E+02 -0.89515129990E+02  0.91819851542E+02  0.00000000000E+00 0.  1.
         14    1    4    4    0    0  0.85182530320E+02  0.83616044507E+02 -0.90467336319E+03  0.91251389054E+03  0.00000000000E+00 0. -1.
         -5    1    5    5    0  502 -0.17498448711E+02 -0.14786190670E+02 -0.12107563318E+03  0.12331352761E+03  0.47000000000E+01 0.  1.
         13    1    6    6    0    0  0.18195554810E+02 -0.17685886147E+02  0.16103482467E+02  0.30053135131E+02  0.00000000000E+00 0. -1.
        -14    1    6    6    0    0 -0.66970596552E+02 -0.16332650272E+02 -0.81749382977E+01  0.69416466949E+02  0.00000000000E+00 0.  1.
</event>
<event>
12    1  0.8113184E-002  0.1860604E+03  0.7818608E-02  0.1162157E+00
         21   -1    0    0  503  502  0.00000000000E+00  0.00000000000E+00  0.23749389357E+03  0.23749389357E+03  0.00000000000E+00 0.  1.
         21   -1    0    0  501  503 -0.00000000000E+00 -0.00000000000E+00 -0.24276126177E+03  0.24276126177E+03  0.00000000000E+00 0.  1.
          6    2    1    2  501    0  0.31565626600E+02 -0.61605276723E+02 -0.15466425932E+03  0.24163853218E+03  0.17226882545E+03 0.  0.
         24    2    3    3    0    0  0.73126596196E+02 -0.63903687292E+02 -0.15326522547E+03  0.19972619294E+03  0.83481390063E+02 0.  0.
         -6    2    1    2    0  502 -0.31565626600E+02  0.61605276723E+02  0.14939689112E+03  0.23861662316E+03  0.17270455371E+03 0.  0.
        -24    2    5    5    0    0  0.29615641617E+02  0.83393725043E+02  0.89184761428E+02  0.14992911208E+03  0.81812085735E+02 0.  0.
          5    1    3    3  501    0 -0.41560969596E+02  0.22984105693E+01 -0.13990338458E+01  0.41912339240E+02  0.47000000000E+01 0. -1.
        -11    1    4    4    0    0  0.18264098950E+02 -0.69954397691E+02 -0.77501071633E+02  0.10598873134E+03  0.00000000000E+00 0.  1.
         12    1    4    4    0    0  0.54862497245E+02  0.60507103991E+01 -0.75764153841E+02  0.93737461602E+02  0.00000000000E+00 0. -1.
         -5    1    5    5    0  502 -0.61181268217E+02 -0.21788448320E+02  0.60212129690E+02  0.88687511086E+02  0.47000000000E+01 0.  1.
         13    1    6    6    0    0  0.26345386586E+02 -0.53657075362E+01  0.45996275252E+01  0.27276854385E+02  0.00000000000E+00 0. -1.
        -14    1    6    6    0    0  0.32702550304E+01  0.88759432580E+02  0.84585133903E+02  0.12265225769E+03  0.00000000000E+00 0.  1.
</event>
<event>
12    1  0.8113184E-002  0.2044752E+03  0.7818608E-02  0.1146178E+00
         21   -1    0    0  501  502  0.00000000000E+00  0.00000000000E+00  0.71978155947E+03  0.71978155947E+03  0.00000000000E+00 0.  1.
         21   -1    0    0  502  503 -0.00000000000E+00 -0.00000000000E+00 -0.14958494084E+03  0.14958494084E+03  0.00000000000E+00 0.  1.
         -6    2    1    2    0  503  0.26446733011E+02 -0.10703526835E+03 -0.55066968997E+02  0.21176045219E+03  0.17220377370E+03 0.  0.
        -24    2    3    3    0    0  0.65292219030E+01 -0.12893167913E+03 -0.81447269512E+02  0.17183338982E+03  0.78911643785E+02 0.  0.
          6    2    1    2  501    0 -0.26446733011E+02  0.10703526835E+03  0.62526358763E+03  0.65760604812E+03  0.17127516503E+03 0.  0.
         24    2    5    5    0    0  0.38041343044E+02  0.10688848936E+03  0.41023812814E+03  0.43306925443E+03  0.79883442635E+02 0.  0.
          5    1    5    5  501    0 -0.64488076055E+02  0.14677899190E+00  0.21502545948E+03  0.22453679370E+03  0.47000000000E+01 0. -1.
        -13    1    6    6    0    0  0.20391610071E+02  0.82932709465E+02  0.38404881393E+03  0.39342997285E+03  0.00000000000E+00 0.  1.
         14    1    6    6    0    0  0.17649732973E+02  0.23955779896E+02  0.26189314217E+02  0.39639281573E+02  0.00000000000E+00 0. -1.
         -5    1    3    3    0  503  0.19917511108E+02  0.21896410779E+02  0.26380300516E+02  0.39927062364E+02  0.47000000000E+01 0.  1.
         13    1    4    4    0    0 -0.10573548017E+02 -0.30792009590E+02 -0.62439266387E+02  0.70417396708E+02  0.00000000000E+00 0. -1.
        -14    1    4    4    0    0  0.17102769920E+02 -0.98139669542E+02 -0.19008003126E+02  0.10141599312E+03  0.00000000000E+00 0.  1.
</event>
<event>
12    1  0.8113184E-002  0.1967609E+03  0.7818608E-02  0.1152698E+00
         21   -1    0    0  501  502  0.00000000000E+00  0.00000000000E+00  0.16990790720E+03  0.16990790720E+03  0.00000000000E+00 0. -1.
         21   -1    0    0  502  503 -0.00000000000E+00 -0.00000000000E+00 -0.23866689528E+03  0.23866689528E+03  0.00000000000E+00 0.  1.
         -6    2    1    2    0  503  0.47540448623E+01 -0.94879144411E+02 -0.79855808176E+02  0.21150119476E+03  0.17126340035E+03 0.  0.
        -24    2    3    3    0    0 -0.76413670636E+01 -0.13273291720E+03 -0.63028281857E+02  0.16800625261E+03  0.81099437745E+02 0.  0.
          6    2    1    2  501    0 -0.47540448623E+01  0.94879144411E+02  0.11096820105E+02  0.19707360772E+03  0.17230848631E+03 0.  0.
         24    2    5    5    0    0  0.39093222582E+01  0.13251955650E+03 -0.91588282596E+01  0.15320749502E+03  0.76236059305E+02 0.  0.
          5    1    5    5  501    0 -0.86633671205E+01 -0.37640412093E+02  0.20255648364E+02  0.43866112696E+02  0.47000000000E+01 0. -1.
        -13    1    6    6    0    0  0.84563950287E+00 -0.49362789114E+01 -0.14777167415E+02  0.15602776435E+02  0.00000000000E+00 0.  1.
         14    1    6    6    0    0  0.30636827554E+01  0.13745583542E+03  0.56183391554E+01  0.13760471858E+03  0.00000000000E+00 0. -1.
         -5    1    3    3    0  503  0.12395411926E+02  0.37853772789E+02 -0.16827526319E+02  0.43494942156E+02  0.47000000000E+01 0.  1.
         13    1    4    4    0    0 -0.21469122641E+02 -0.65950468047E+01  0.64101438338E+01  0.23356108693E+02  0.00000000000E+00 0. -1.
        -14    1    4    4    0    0  0.13827755577E+02 -0.12613787040E+03 -0.69438425690E+02  0.14465014391E+03  0.00000000000E+00 0.  1.
</event>
<event>
12    1  0.8113184E-002  0.2000232E+03  0.7818608E-02  0.1149985E+00
         21   -1    0    0  503  502  0.00000000000E+00  0.00000000000E+00  0.36868018184E+03  0.36868018184E+03  0.00000000000E+00 0. -1.
         21   -1    0    0  501  503 -0.00000000000E+00 -0.00000000000E+00 -0.13587790549E+03  0.13587790549E+03  0.00000000000E+00 0. -1.
          6    2    1    2  501    0 -0.69635126119E+02 -0.75031584828E+02  0.20938637031E+01  0.20003410955E+03  0.17184432259E+03 0.  0.
         24    2    3    3    0    0  0.11260732879E+02 -0.88460859796E+02 -0.72414693577E+01  0.11736776892E+03  0.75964639689E+02 0.  0.
         -6    2    1    2    0  502  0.69635126119E+02  0.75031584828E+02  0.23070841265E+03  0.30452397777E+03  0.17038101966E+03 0.  0.
        -24    2    5    5    0    0  0.26058365685E+02  0.93605512686E+02  0.22151837331E+03  0.25604231455E+03  0.83941924553E+02 0.  0.
          5    1    3    3  501    0 -0.80895858998E+02  0.13429274968E+02  0.93353330607E+01  0.82666340626E+02  0.47000000000E+01 0. -1.
        -11    1    4    4    0    0  0.11122100549E+02  0.52385754720E+01  0.16624563687E+02  0.20676554630E+02  0.00000000000E+00 0.  1.
         12    1    4    4    0    0  0.13863233025E+00 -0.93699435268E+02 -0.23866033045E+02  0.96691214294E+02  0.00000000000E+00 0. -1.
         -5    1    5    5    0  502  0.43576760434E+02 -0.18573927857E+02  0.91900393348E+01  0.48481663224E+02  0.47000000000E+01 0.  1.
         11    1    6    6    0    0 -0.20484026466E+02  0.33973431466E+02  0.13694343469E+03  0.14257381839E+03  0.00000000000E+00 0. -1.
        -12    1    6    6    0    0  0.46542392151E+02  0.59632081220E+02  0.84574938624E+02  0.11346849616E+03  0.00000000000E+00 0.  1.
</event>
<event>
12    1  0.8113184E-002  0.2222064E+03  0.7818608E-02  0.1132488E+00
         21   -1    0    0  503  502  0.00000000000E+00  0.00000000000E+00  0.97360989811E+02  0.97360989811E+02  0.00000000000E+00 0. -1.
         21   -1    0    0  501  503 -0.00000000000E+00 -0.00000000000E+00 -0.11320212424E+04  0.11320212424E+04  0.00000000000E+00 0. -1.
          6    2    1    2  501    0  0.34809248762E+02 -0.13659951212E+03 -0.97443107657E+03  0.99915789895E+03  0.17008666474E+03 0.  0.
         24    2    3    3    0    0 -0.34023234634E+02 -0.10326721606E+03 -0.47188544901E+03  0.49080452725E+03  0.79946910976E+02 0.  0.
         -6    2    1    2    0  502 -0.34809248762E+02  0.13659951212E+03 -0.60229176031E+02  0.23022433328E+03  0.17176897123E+03 0.  0.
        -24    2    5    5    0    0 -0.54309560032E+01  0.24960869238E+02  0.23485036738E+02  0.87548371433E+02  0.80378044974E+02 0.  0.
          5    1    3    3  501    0  0.68832483396E+02 -0.33332296062E+02 -0.50254562756E+03  0.50835337169E+03  0.47000000000E+01 0. -1.
        -13    1    4    4    0    0 -0.29541089126E+02 -0.53335176232E+01 -0.19002191453E+03  0.19237840409E+03  0.00000000000E+00 0.  1.
         14    1    4    4    0    0 -0.44821455078E+01 -0.97933698433E+02 -0.28186353449E+03  0.29842612317E+03  0.00000000000E+00 0. -1.
         -5    1    5    5    0  502 -0.29378292759E+02  0.11163864288E+03 -0.83714212769E+02  0.14267596185E+03  0.47000000000E+01 0.  1.
         13    1    6    6    0    0 -0.37065014714E+02 -0.85657325719E+01  0.76045816322E+01  0.38794545390E+02  0.00000000000E+00 0. -1.
        -14    1    6    6    0    0  0.31634058711E+02  0.33526601810E+02  0.15880455106E+02  0.48753826043E+02  0.00000000000E+00 0.  1.
</event>
<event>
12    1  0.8113184E-002  0.2055395E+03  0.7818608E-02  0.1147677E+00
         21   -1    0    0  503  502  0.00000000000E+00  0.00000000000E+00  0.82116395106E+03  0.82116395106E+03  0.00000000000E+00 0. -1.
         21   -1    0    0  501  503 -0.00000000000E+00 -0.00000000000E+00 -0.53486408146E+02  0.53486408146E+02  0.00000000000E+00 0.  1.
          6    2    1    2  501    0  0.90859874430E+00 -0.89774515677E+02  0.23961326283E+03  0.30799492253E+03  0.17142364878E+03 0.  0.
         24    2    3    3    0    0  0.60146294181E+02 -0.56472923801E+02  0.11652423941E+03  0.16731408421E+03  0.87231511384E+02 0.  0.
         -6    2    1    2    0  502 -0.90859874430E+00  0.89774515677E+02  0.52806428008E+03  0.56665543668E+03  0.18489513461E+03 0.  0.
        -24    2    5    5    0    0  0.47877973385E+02  0.11432424361E+03  0.33295041662E+03  0.36398741139E+03  0.79174002724E+02 0.  0.
          5    1    3    3  501    0 -0.59237695437E+02 -0.33301591876E+02  0.12308902343E+03  0.14068083832E+03  0.47000000000E+01 0. -1.
        -13    1    4    4    0    0  0.40245652583E+00  0.38561014376E+01 -0.12372729024E+02  0.12965952069E+02  0.00000000000E+00 0.  1.
         14    1    4    4    0    0  0.59743837655E+02 -0.60329025239E+02  0.12889696843E+03  0.15434813214E+03  0.00000000000E+00 0. -1.
         -5    1    5    5    0  502 -0.48786572129E+02 -0.24549727932E+02  0.19511386346E+03  0.20266802529E+03  0.47000000000E+01 0.  1.
         11    1    6    6    0    0  0.43936317046E+00  0.55533008724E+01  0.12061004148E+03  0.12073861974E+03  0.00000000000E+00 0. -1.
        -12    1    6    6    0    0  0.47438610214E+02  0.10877094274E+03  0.21234037514E+03  0.24324879164E+03  0.00000000000E+00 0.  1.
</event>
<event>
12    1  0.8113184E-002  0.1938551E+03  0.7818608E-02  0.1155122E+00
         21   -1    0    0  503  502  0.00000000000E+00  0.00000000000E+00  0.35047855410E+03  0.35047855410E+03  0.00000000000E+00 0.  1.
         21   -1    0    0  501  503 -0.00000000000E+00 -0.00000000000E+00 -0.13180431342E+03  0.13180431342E+03  0.00000000000E+00 0.  1.
          6    2    1    2  501    0  0.89649237794E+02  0.54400501606E+01  0.48082853447E+01  0.19391468950E+03  0.17179408376E+03 0.  0.
         24    2    3    3    0    0  0.10634152462E+03  0.56070774315E+02  0.19061800364E+02  0.13853097928E+03  0.66143997422E+02 0.  0.
         -6    2    1    2    0  502 -0.89649237794E+02 -0.54400501606E+01  0.21386595533E+03  0.28836817802E+03  0.17132127498E+03 0.  0.
        -24    2    5    5    0    0 -0.26137631071E+02 -0.24663513891E+02  0.20282966166E+03  0.22093557815E+03  0.79882372084E+02 0.  0.
          5    1    3    3  501    0 -0.16692286828E+02 -0.50630724154E+02 -0.14253515019E+02  0.55383710226E+02  0.47000000000E+01 0. -1.
        -11    1    4    4    0    0  0.14384700889E+02  0.24377060414E+01  0.28132534676E+02  0.31690716901E+02  0.00000000000E+00 0.  1.
         12    1    4    4    0    0  0.91956823732E+02  0.53633068274E+02 -0.90707343119E+01  0.10684026237E+03  0.00000000000E+00 0. -1.
         -5    1    5    5    0  502 -0.63511606723E+02  0.19223463731E+02  0.11036293672E+02  0.67432599864E+02  0.47000000000E+01 0.  1.
         13    1    6    6    0    0 -0.84557826328E+01  0.29012019983E+02  0.86015125785E+02  0.91169070562E+02  0.00000000000E+00 0. -1.
        -14    1    6    6    0    0 -0.17681848438E+02 -0.53675533874E+02  0.11681453587E+03  0.12976650759E+03  0.00000000000E+00 0.  1.
</event>
<event>
12    1  0.8113184E-002  0.1789778E+03  0.7818608E-02  0.1168899E+00
         21   -1    0    0  501  502  0.00000000000E+00  0.00000000000E+00  0.46269006490E+03  0.46269006490E+03  0.00000000000E+00 0. -1.
         21   -1    0    0  502  503 -0.00000000000E+00 -0.00000000000E+00 -0.10775769433E+03  0.10775769433E+03  0.00000000000E+00 0. -1.
         -6    2    1    2    0  503  0.47245388322E+02 -0.11297283100E+02  0.64281652273E+01  0.17867202619E+03  0.17182146639E+03 0.  0.
        -24    2    3    3    0    0  0.81362716007E+02 -0.48518431938E+02  0.21687488435E+02  0.12571597919E+03  0.79751053129E+02 0.  0.
          6    2    1    2  501    0 -0.47245388322E+02  0.11297283100E+02  0.34850420534E+03  0.39177573303E+03  0.17225936414E+03 0.  0.
         24    2    5    5    0    0 -0.94622037139E+01 -0.51027993485E+02  0.13934045767E+03  0.17022760625E+03  0.82875119122E+02 0.  0.
          5    1    5    5  501    0 -0.37783184608E+02  0.62325276585E+02  0.20916374767E+03  0.22154812678E+03  0.47000000000E+01 0. -1.
        -13    1    6    6    0    0  0.25161218584E+02 -0.36282754127E+02  0.27006906191E+02  0.51758073281E+02  0.00000000000E+00 0.  1.
         14    1    6    6    0    0 -0.34623422298E+02 -0.14745239357E+02  0.11233355148E+03  0.11846953297E+03  0.00000000000E+00 0. -1.
         -5    1    3    3    0  503 -0.34117327685E+02  0.37221148838E+02 -0.15259323208E+02  0.52956047001E+02  0.47000000000E+01 0.  1.
         13    1    4    4    0    0  0.79535720496E+01 -0.44066953553E+02  0.26468587968E+02  0.52016745889E+02  0.00000000000E+00 0. -1.
        -14    1    4    4    0    0  0.73409143957E+02 -0.44514783848E+01 -0.47810995329E+01  0.73699233301E+02  0.00000000000E+00 0.  1.
</event>
<event>
12    1  0.8113184E-002  0.1907052E+03  0.7818608E-02  0.1158001E+00
         21   -1    0    0  501  502  0.00000000000E+00  0.00000000000E+00  0.14311356729E+03  0.14311356729E+03  0.00000000000E+00 0. -1.
         21   -1    0    0  502  503 -0.00000000000E+00 -0.00000000000E+00 -0.69248556780E+03  0.69248556780E+03  0.00000000000E+00 0. -1.
         -6    2    1    2    0  503 -0.38481894089E+02 -0.71107241749E+02 -0.60728594161E+03  0.63629406026E+03  0.17186279484E+03 0.  0.
        -24    2    3    3    0    0 -0.23699923953E+02 -0.11517596182E+03 -0.47703220372E+03  0.49791528673E+03  0.80825248530E+02 0.  0.
          6    2    1    2  501    0  0.38481894089E+02  0.71107241749E+02  0.57913941093E+02  0.19930507482E+03  0.17271766637E+03 0.  0.
         24    2    5    5    0    0  0.59159145543E+02 -0.14322343960E+02  0.38523088828E+02  0.10917262787E+03  0.82034750352E+02 0.  0.
          5    1    5    5  501    0 -0.20677251453E+02  0.85429585709E+02  0.19390852266E+02  0.90132446953E+02  0.47000000000E+01 0. -1.
        -13    1    6    6    0    0  0.35065830489E+02  0.14692207620E+02 -0.17326953513E+02  0.41781536002E+02  0.00000000000E+00 0.  1.
         14    1    6    6    0    0  0.24093315054E+02 -0.29014551580E+02  0.55850042341E+02  0.67391091868E+02  0.00000000000E+00 0. -1.
         -5    1    3    3    0  503 -0.14781970136E+02  0.44068720071E+02 -0.13025373789E+03  0.13837877354E+03  0.47000000000E+01 0.  1.
         13    1    4    4    0    0 -0.18310359838E+02 -0.10203681677E+03 -0.25274735439E+03  0.27318127024E+03  0.00000000000E+00 0. -1.
        -14    1    4    4    0    0 -0.53895641151E+01 -0.13139145047E+02 -0.22428484932E+03  0.22473401649E+03  0.00000000000E+00 0.  1.
</event>
<event>
12    1  0.8113184E-002  0.2041953E+03  0.7818608E-02  0.1148448E+00
         21   -1    0    0  501  502  0.00000000000E+00  0.00000000000E+00  0.21801654787E+04  0.21801654787E+04  0.00000000000E+00 0. -1.
         21   -1    0    0  502  503 -0.00000000000E+00 -0.00000000000E+00 -0.19579791015E+02  0.19579791015E+02  0.00000000000E+00 0. -1.
         -6    2    1    2    0  503  0.76264883277E+02  0.40885561833E+02  0.81058185026E+03  0.83590589474E+03  0.18495341926E+03 0.  0.
        -24    2    3    3    0    0  0.90983265745E+02 -0.32107903051E+02  0.42260486670E+03  0.44081994653E+03  0.80115415591E+02 0.  0.
          6    2    1    2  501    0 -0.76264883277E+02 -0.40885561833E+02  0.13500038374E+04  0.13638393750E+04  0.17337680955E+03 0.  0.
         24    2    5    5    0    0  0.18722855967E+02  0.41677955522E+01  0.80980425817E+03  0.81348480650E+03  0.74877753700E+02 0.  0.
          5    1    5    5  501    0 -0.94987739244E+02 -0.45053357386E+02  0.54019957924E+03  0.55035456846E+03  0.47000000000E+01 0. -1.
        -11    1    6    6    0    0 -0.68741779149E+01 -0.28029943744E+02  0.17630359300E+03  0.17865018604E+03  0.00000000000E+00 0.  1.
         12    1    6    6    0    0  0.25597033882E+02  0.32197739297E+02  0.63350066517E+03  0.63483462045E+03  0.00000000000E+00 0. -1.
         -5    1    3    3    0  503 -0.14718382468E+02  0.72993464884E+02  0.38797698356E+03  0.39508594821E+03  0.47000000000E+01 0.  1.
         11    1    4    4    0    0  0.10089719419E+03 -0.20335055360E+02  0.29812644327E+03  0.31539361827E+03  0.00000000000E+00 0. -1.
        -12    1    4    4    0    0 -0.99139284413E+01 -0.11772847690E+02  0.12447842343E+03  0.12542632826E+03  0.00000000000E+00 0.  1.
</event>
<event>
12    1  0.8113184E-002  0.1727628E+03  0.7818608E-02  0.1175538E+00
         21   -1    0    0  501  502  0.00000000000E+00  0.00000000000E+00  0.27314671021E+03  0.27314671021E+03  0.00000000000E+00 0.  1.
         21   -1    0    0  502  503 -0.00000000000E+00 -0.00000000000E+00 -0.14626528185E+03  0.14626528185E+03  0.00000000000E+00 0.  1.
         -6    2    1    2    0  503  0.59453812049E+01 -0.12335933655E+02 -0.44186587957E+02  0.17628397121E+03  0.17010602909E+03 0.  0.
        -24    2    3    3    0    0  0.18629354376E+02 -0.64738782618E+02 -0.60809364460E+02  0.11966817436E+03  0.78003399467E+02 0.  0.
          6    2    1    2  501    0 -0.59453812049E+01  0.12335933655E+02  0.17106801632E+03  0.24312802084E+03  0.17221917865E+03 0.  0.
         24    2    5    5    0    0 -0.56188496829E+02 -0.31591271438E+02  0.13470077725E+03  0.16697924480E+03  0.74716886961E+02 0.  0.
          5    1    5    5  501    0  0.50243115624E+02  0.43927205094E+02  0.36367239068E+02  0.76148776040E+02  0.47000000000E+01 0. -1.
        -13    1    6    6    0    0  0.11146721079E+02  0.11018210430E+02  0.87835416992E+01  0.17966662369E+02  0.00000000000E+00 0.  1.
         14    1    6    6    0    0 -0.67335217908E+02 -0.42609481868E+02  0.12591723555E+03  0.14901258244E+03  0.00000000000E+00 0. -1.
         -5    1    3    3    0  503 -0.12683973171E+02  0.52402848963E+02  0.16622776503E+02  0.56615796855E+02  0.47000000000E+01 0.  1.
         11    1    4    4    0    0  0.35273441955E+02 -0.20708380752E+02  0.22650953434E+01  0.40965636791E+02  0.00000000000E+00 0. -1.
        -12    1    4    4    0    0 -0.16644087579E+02 -0.44030401866E+02 -0.63074459803E+02  0.78702537566E+02  0.00000000000E+00 0.  1.
</event>
<event>
12    1  0.8113184E-002  0.1860775E+03  0.7818608E-02  0.1162404E+00
         21   -1    0    0  503  502  0.00000000000E+00  0.00000000000E+00  0.66179662198E+02  0.66179662198E+02  0.00000000000E+00 0. -1.
         21   -1    0    0  501  503 -0.00000000000E+00 -0.00000000000E+00 -0.61510724127E+03  0.61510724127E+03  0.00000000000E+00 0. -1.
          6    2    1    2  501    0 -0.37761234734E+02 -0.60229844574E+02 -0.40822537668E+03  0.44800179014E+03  0.17030590353E+03 0.  0.
         24    2    3    3    0    0  0.30194792639E+02 -0.19884773470E+02 -0.30968345740E+03  0.32159630658E+03  0.78823923393E+02 0.  0.
         -6    2    1    2    0  502  0.37761234734E+02  0.60229844574E+02 -0.14070220238E+03  0.23328511332E+03  0.17196304637E+03 0.  0.
        -24    2    5    5    0    0  0.10149518127E+02  0.10231131294E+03 -0.74898132839E+02  0.15030606511E+03  0.80072251328E+02 0.  0.
          5    1    3    3  501    0 -0.67956027373E+02 -0.40345071103E+02 -0.98541919281E+02  0.12640548356E+03  0.47000000000E+01 0. -1.
        -13    1    4    4    0    0 -0.53502455848E+01 -0.12839449171E+02 -0.25855504068E+03  0.25892892006E+03  0.00000000000E+00 0.  1.
         14    1    4    4    0    0  0.35545038224E+02 -0.70453242995E+01 -0.51128416729E+02  0.62667386526E+02  0.00000000000E+00 0. -1.
         -5    1    5    5    0  502  0.27611716607E+02 -0.42081468363E+02 -0.65804069545E+02  0.82979048212E+02  0.47000000000E+01 0.  1.
         11    1    6    6    0    0  0.28889862467E+02  0.19406072431E+02  0.31059738049E+01  0.34940905452E+02  0.00000000000E+00 0. -1.
        -12    1    6    6    0    0 -0.18740344339E+02  0.82905240506E+02 -0.78004106644E+02  0.11536515966E+03  0.00000000000E+00 0.  1.
</event>
<event>
12    1  0.8113184E-002  0.1983366E+03  0.7818608E-02  0.1152942E+00
         21   -1    0    0  501  502  0.00000000000E+00  0.00000000000E+00  0.58872454976E+03  0.58872454976E+03  0.00000000000E+00 0. -1.
         21   -1    0    0  502  503 -0.00000000000E+00 -0.00000000000E+00 -0.20751432486E+03  0.20751432486E+03  0.00000000000E+00 0. -1.
         -6    2    1    2    0  503 -0.61760407164E+02  0.76250991954E+02 -0.13911954865E+03  0.24226358393E+03  0.17236250641E+03 0.  0.
        -24    2    3    3    0    0 -0.26143176021E+02  0.11200740557E+03 -0.12939632497E+03  0.19065215740E+03  0.79848053529E+02 0.  0.
          6    2    1    2  501    0  0.61760407164E+02 -0.76250991954E+02  0.52032977356E+03  0.55397529069E+03  0.16284037513E+03 0.  0.
         24    2    5    5    0    0  0.63424439989E+02 -0.81139617782E+00  0.19405752598E+03  0.21905803052E+03  0.79402640985E+02 0.  0.
          5    1    5    5  501    0 -0.16640328246E+01 -0.75439595776E+02  0.32627224758E+03  0.33491726017E+03  0.47000000000E+01 0. -1.
        -11    1    6    6    0    0  0.72147379728E+02 -0.21337831706E+02  0.17178503416E+03  0.18753838387E+03  0.00000000000E+00 0.  1.
         12    1    6    6    0    0 -0.87229397397E+01  0.20526435528E+02  0.22272491822E+02  0.31519646653E+02  0.00000000000E+00 0. -1.
         -5    1    3    3    0  503 -0.35617231143E+02 -0.35756413619E+02 -0.97232236873E+01  0.51611426526E+02  0.47000000000E+01 0.  1.
         11    1    4    4    0    0  0.53286077674E+01  0.53049838349E+02 -0.10805966210E+03  0.12049717832E+03  0.00000000000E+00 0. -1.
        -12    1    4    4    0    0 -0.31471783788E+02  0.58957567224E+02 -0.21336662861E+02  0.70154979081E+02  0.00000000000E+00 0.  1.
</event>
<event>
12    1  0.8113184E-002  0.2218751E+03  0.7818608E-02  0.1132709E+00
         21   -1    0    0  501  502  0.00000000000E+00  0.00000000000E+00  0.29117799237E+03  0.29117799237E+03  0.00000000000E+00 0. -1.
         21   -1    0    0  502  503 -0.00000000000E+00 -0.00000000000E+00 -0.17082507834E+03  0.17082507834E+03  0.00000000000E+00 0.  1.
         -6    2    1    2    0  503  0.44594212183E+02  0.13000603687E+03  0.88771279879E+02  0.23789156670E+03  0.17269002285E+03 0.  0.
        -24    2    3    3    0    0  0.28385906616E+01  0.14454035376E+03  0.97867259634E+02  0.19250869390E+03  0.81127216487E+02 0.  0.
          6    2    1    2  501    0 -0.44594212183E+02 -0.13000603687E+03  0.31581634151E+02  0.22411150401E+03  0.17417908379E+03 0.  0.
         24    2    5    5    0    0 -0.66558358356E+02 -0.10755085235E+03 -0.31736610926E+02  0.15327401966E+03  0.80551298689E+02 0.  0.
          5    1    5    5  501    0  0.21964146173E+02 -0.22455184516E+02  0.63318245077E+02  0.70837484346E+02  0.47000000000E+01 0. -1.
        -11    1    6    6    0    0 -0.72299576704E+02 -0.46782612357E+02 -0.39437997707E+01  0.86205540235E+02  0.00000000000E+00 0.  1.
         12    1    6    6    0    0  0.57412183488E+01 -0.60768239996E+02 -0.27792811156E+02  0.67068479424E+02  0.00000000000E+00 0. -1.
         -5    1    3    3    0  503  0.41755621521E+02 -0.14534316893E+02 -0.90959797559E+01  0.45382872804E+02  0.47000000000E+01 0.  1.
         13    1    4    4    0    0  0.22233284034E+02  0.11096241675E+02  0.36981265950E+02  0.44554006885E+02  0.00000000000E+00 0. -1.
        -14    1    4    4    0    0 -0.19394693373E+02  0.13344411209E+03  0.60885993684E+02  0.14795468701E+03  0.00000000000E+00 0.  1.
</event>
<event>
12    1  0.8113184E-002  0.2176675E+03  0.7818608E-02  0.1135701E+00
         21   -1    0    0  503  502  0.00000000000E+00  0.00000000000E+00  0.76939168327E+02  0.76939168327E+02  0.00000000000E+00 0. -1.
         21   -1    0    0  501  503 -0.00000000000E+00 -0.00000000000E+00 -0.81757616484E+03  0.81757616484E+03  0.00000000000E+00 0.  1.
          6    2    1    2  501    0 -0.67977006327E+02 -0.11489451642E+03 -0.59283403722E+03  0.63140913725E+03  0.17147501166E+03 0.  0.
         24    2    3    3    0    0 -0.10999625629E+03 -0.95876409898E+02 -0.51031750024E+03  0.53676044672E+03  0.79977270158E+02 0.  0.
         -6    2    1    2    0  502  0.67977006327E+02  0.11489451642E+03 -0.14780295929E+03  0.26310619592E+03  0.17192304168E+03 0.  0.
        -24    2    5    5    0    0  0.10814795196E+03  0.81471932564E+02 -0.13915605033E+03  0.20993070326E+03  0.79830060260E+02 0.  0.
          5    1    3    3  501    0  0.42019249963E+02 -0.19018106519E+02 -0.82516536978E+02  0.94648690524E+02  0.47000000000E+01 0. -1.
        -11    1    4    4    0    0 -0.76272657297E+02 -0.10611499054E+03 -0.38457278753E+03  0.40617008553E+03  0.00000000000E+00 0.  1.
         12    1    4    4    0    0 -0.33723598993E+02  0.10238580643E+02 -0.12574471271E+03  0.13059036119E+03  0.00000000000E+00 0. -1.
         -5    1    5    5    0  502 -0.40170945628E+02  0.33422583853E+02 -0.86469089574E+01  0.53175492650E+02  0.47000000000E+01 0.  1.
         13    1    6    6    0    0  0.42381713758E+02 -0.69884235991E+01 -0.61821260480E+02  0.75278921172E+02  0.00000000000E+00 0. -1.
        -14    1    6    6    0    0  0.65766238197E+02  0.88460356163E+02 -0.77334789853E+02  0.13465178209E+03  0.00000000000E+00 0.  1.
</event>
<event>
12    1  0.8113184E-002  0.2061055E+03  0.7818608E-02  0.1144695E+00
         21   -1    0    0  501  502  0.00000000000E+00  0.00000000000E+00  0.13736178535E+03  0.13736178535E+03  0.00000000000E+00 0. -1.
         21   -1    0    0  502  503 -0.00000000000E+00 -0.00000000000E+00 -0.32854757399E+03  0.32854757399E+03  0.00000000000E+00 0. -1.
         -6    2    1    2    0  503 -0.87859798477E+02  0.70963499133E+02 -0.15211460740E+03  0.25613322053E+03  0.17236650044E+03 0.  0.
        -24    2    3    3    0    0 -0.11630783526E+03  0.18218793682E+02 -0.86021732404E+02  0.16679312384E+03  0.80998584728E+02 0.  0.
          6    2    1    2  501    0  0.87859798477E+02 -0.70963499133E+02 -0.39071181239E+02  0.20977613881E+03  0.17240739199E+03 0.  0.
         24    2    5    5    0    0  0.55876742160E+00 -0.80683815978E+02 -0.37333983672E+02  0.12179283109E+03  0.83243480139E+02 0.  0.
          5    1    5    5  501    0  0.87301031055E+02  0.97203168445E+01 -0.17371975670E+01  0.87983307725E+02  0.47000000000E+01 0. -1.
        -11    1    6    6    0    0  0.28326103569E+02 -0.30902149600E+02  0.14888268561E+02  0.44485632895E+02  0.00000000000E+00 0.  1.
         12    1    6    6    0    0 -0.27767336147E+02 -0.49781666377E+02 -0.52222252233E+02  0.77307198192E+02  0.00000000000E+00 0. -1.
         -5    1    3    3    0  503  0.28448036784E+02  0.52744705452E+02 -0.66092875001E+02  0.89340096687E+02  0.47000000000E+01 0.  1.
         11    1    4    4    0    0 -0.20845243203E+02 -0.26173552945E+02 -0.47542830201E+01  0.33796186841E+02  0.00000000000E+00 0. -1.
        -12    1    4    4    0    0 -0.95462592058E+02  0.44392346627E+02 -0.81267449383E+02  0.13299693700E+03  0.00000000000E+00 0.  1.
</event>
<event>
12    1  0.8113184E-002  0.1830369E+03  0.7818608E-02  0.1165195E+00
         21   -1    0    0  501  502  0.00000000000E+00  0.00000000000E+00  0.15376524241E+03  0.15376524241E+03  0.00000000000E+00 0.  1.
         21   -1    0    0  502  503 -0.00000000000E+00 -0.00000000000E+00 -0.47960987262E+03  0.47960987262E+03  0.00000000000E+00 0.  1.
         -6    2    1    2    0  503 -0.28489085204E+02  0.54827977634E+02 -0.39727988403E+03  0.43689230243E+03  0.17095567426E+03 0.  0.
        -24    2    3    3    0    0 -0.20164361622E+02  0.19633456857E+02 -0.81276884765E+02  0.11879178237E+03  0.81935837426E+02 0.  0.
          6    2    1    2  501    0  0.28489085204E+02 -0.54827977634E+02  0.71435253824E+02  0.19648281259E+03  0.17229267265E+03 0.  0.
         24    2    5    5    0    0  0.83321874938E+02 -0.54422787013E+02  0.40183809843E+02  0.13319346309E+03  0.78875759568E+02 0.  0.
          5    1    5    5  501    0 -0.54832789734E+02 -0.40519062038E+00  0.31251443981E+02  0.63289349501E+02  0.47000000000E+01 0. -1.
        -13    1    6    6    0    0  0.43977041827E+02 -0.39560780651E+02 -0.17607956006E+02  0.61717709681E+02  0.00000000000E+00 0.  1.
         14    1    6    6    0    0  0.39344833111E+02 -0.14862006362E+02  0.57791765849E+02  0.71475753411E+02  0.00000000000E+00 0. -1.
         -5    1    3    3    0  503 -0.83247235826E+01  0.35194520777E+02 -0.31600299927E+03  0.31810052006E+03  0.47000000000E+01 0.  1.
         13    1    4    4    0    0 -0.31390857607E+02 -0.50749274606E+01  0.13448906396E+01  0.31826868537E+02  0.00000000000E+00 0. -1.
        -14    1    4    4    0    0  0.11226495985E+02  0.24708384317E+02 -0.82621775405E+02  0.86964913837E+02  0.00000000000E+00 0.  1.
</event>
<event>
12    1  0.8113184E-002  0.1992172E+03  0.7818608E-02  0.1153745E+00
         21   -1    0    0  503  502  0.00000000000E+00  0.00000000000E+00  0.20292507142E+03  0.20292507142E+03  0.00000000000E+00 0. -1.
         21   -1    0    0  501  503 -0.00000000000E+00 -0.00000000000E+00 -0.18159966563E+03  0.18159966563E+03  0.00000000000E+00 0. -1.
          6    2    1    2  501    0  0.36767117851E+02 -0.55084866821E+02  0.21151224661E+02  0.18530747788E+03  0.17177113711E+03 0.  0.
         24    2    3    3    0    0 -0.42462292963E+02 -0.49306100190E+02  0.30449849960E+02  0.10518726748E+03  0.76831178811E+02 0.  0.
         -6    2    1    2    0  502 -0.36767117851E+02  0.55084866821E+02  0.17418112555E+00  0.19921725917E+03  0.18788646174E+03 0.  0.
        -24    2    5    5    0    0 -0.88317164512E+02  0.22158009689E+01  0.26169589761E+02  0.12079279421E+03  0.78110309070E+02 0.  0.
          5    1    3    3  501    0  0.79229410814E+02 -0.57787666316E+01 -0.92986252990E+01  0.80120210397E+02  0.47000000000E+01 0. -1.
        -11    1    4    4    0    0 -0.41556715476E+02 -0.61548383582E+02  0.21000633332E+01  0.74293838161E+02  0.00000000000E+00 0.  1.
         12    1    4    4    0    0 -0.90557748665E+00  0.12242283392E+02  0.28349786627E+02  0.30893429318E+02  0.00000000000E+00 0. -1.
         -5    1    5    5    0  502  0.51550046661E+02  0.52869065853E+02 -0.25995408636E+02  0.78424464965E+02  0.47000000000E+01 0.  1.
         11    1    6    6    0    0 -0.75383594357E+02  0.32608331023E+02  0.30216290575E+02  0.87515791526E+02  0.00000000000E+00 0. -1.
        -12    1    6    6    0    0 -0.12933570156E+02 -0.30392530055E+02 -0.40467008139E+01  0.33277002683E+02  0.00000000000E+00 0.  1.
</event>
<event>
12    1  0.8113184E-002  0.2095856E+03  0.7818608E-02  0.1141925E+00
         21   -1    0    0  501  502  0.00000000000E+00  0.00000000000E+00  0.51973849207E+03  0.51973849207E+03  0.00000000000E+00 0.  1.
         21   -1    0    0  502  503 -0.00000000000E+00 -0.00000000000E+00 -0.86873180073E+02  0.86873180073E+02  0.00000000000E+00 0.  1.
         -6    2    1    2    0  503  0.82572152735E+02 -0.78493810038E+02  0.16589346088E+03  0.26729524583E+03  0.17591665486E+03 0.  0.
        -24    2    3    3    0    0  0.20108917569E+02 -0.41816429689E+02  0.69032947963E+01  0.92518677353E+02  0.79743763532E+02 0.  0.
          6    2    1    2  501    0 -0.82572152735E+02  0.78493810038E+02  0.26697185112E+03  0.33931642632E+03  0.17573340393E+03 0.  0.
         24    2    5    5    0    0 -0.74488879383E+02  0.48189731226E+02  0.28067549241E+03  0.30476854237E+03  0.78957514066E+02 0.  0.
          5    1    5    5  501    0 -0.80832733522E+01  0.30304078812E+02 -0.13703641294E+02  0.34547883951E+02  0.47000000000E+01 0. -1.
        -11    1    6    6    0    0 -0.20575812039E+01  0.30897061895E+02  0.29430835605E+02  0.42720441928E+02  0.00000000000E+00 0.  1.
         12    1    6    6    0    0 -0.72431298179E+02  0.17292669331E+02  0.25124465681E+03  0.26204810044E+03  0.00000000000E+00 0. -1.
         -5    1    3    3    0  503  0.62463235166E+02 -0.36677380349E+02  0.15899016608E+03  0.17477656847E+03  0.47000000000E+01 0.  1.
         11    1    4    4    0    0  0.53438631003E+01 -0.27498222462E+02  0.42797112822E+02  0.51149799387E+02  0.00000000000E+00 0. -1.
        -12    1    4    4    0    0  0.14765054469E+02 -0.14318207227E+02 -0.35893818026E+02  0.41368877966E+02  0.00000000000E+00 0.  1.
</event>
<event>
12    1  0.8113184E-002  0.2275455E+03  0.7818608E-02  0.1128653E+00
         21   -1    0    0  501  502  0.00000000000E+00  0.00000000000E+00  0.93297539783E+02  0.93297539783E+02  0.00000000000E+00 0.  1.
         21   -1    0    0  502  503 -0.00000000000E+00 -0.00000000000E+00 -0.56213230900E+03  0.56213230900E+03  0.00000000000E+00 0.  1.
         -6    2    1    2    0  503 -0.12666027344E+03 -0.76383605089E+02 -0.28080934745E+03  0.36142892052E+03  0.17291528266E+03 0.  0.
        -24    2    3    3    0    0 -0.83237867434E+02 -0.35735854704E+02 -0.27621544020E+03  0.30158797351E+03  0.80341411980E+02 0.  0.
          6    2    1    2  501    0  0.12666027344E+03  0.76383605089E+02 -0.18802542177E+03  0.29400092827E+03  0.17089677176E+03 0.  0.
         24    2    5    5    0    0  0.39222564730E+02  0.94645138030E+02 -0.14531223049E+03  0.19487805907E+03  0.79785348516E+02 0.  0.
          5    1    5    5  501    0  0.87437708710E+02 -0.18261532941E+02 -0.42713191278E+02  0.99122869203E+02  0.47000000000E+01 0. -1.
        -11    1    6    6    0    0  0.33857507446E+02  0.65177987336E+02 -0.36495973100E+02  0.82014979706E+02  0.00000000000E+00 0.  1.
         12    1    6    6    0    0  0.53650572838E+01  0.29467150693E+02 -0.10881625739E+03  0.11286307936E+03  0.00000000000E+00 0. -1.
         -5    1    3    3    0  503 -0.43422406006E+02 -0.40647750385E+02 -0.45939072548E+01  0.59840947006E+02  0.47000000000E+01 0.  1.
         11    1    4    4    0    0 -0.54051158930E+02 -0.48286504718E+02 -0.25031712909E+03  0.26059888610E+03  0.00000000000E+00 0. -1.
        -12    1    4    4    0    0 -0.29186708504E+02  0.12550650013E+02 -0.25898311107E+02  0.40989087417E+02  0.00000000000E+00 0.  1.
</event>
<event>
12    1  0.8113184E-002  0.1977675E+03  0.7818608E-02  0.1152653E+00
         21   -1    0    0  503  502  0.00000000000E+00  0.00000000000E+00  0.12862281528E+03  0.12862281528E+03  0.00000000000E+00 0.  1.
         21   -1    0    0  501  503 -0.00000000000E+00 -0.00000000000E+00 -0.29883434701E+03  0.29883434701E+03  0.00000000000E+00 0. -1.
          6    2    1    2  501    0 -0.98595864561E+02 -0.11613997756E+02 -0.10122148985E+03  0.21800167046E+03  0.16559863787E+03 0.  0.
         24    2    3    3    0    0 -0.59876233881E+02 -0.34118520833E+02 -0.12763402806E+03  0.16579654108E+03  0.80304489721E+02 0.  0.
         -6    2    1    2    0  502  0.98595864561E+02  0.11613997756E+02 -0.68990041873E+02  0.20945549183E+03  0.17104370122E+03 0.  0.
        -24    2    5    5    0    0  0.11277452972E+03 -0.26645550447E+02 -0.86422652074E+02  0.16483695899E+03  0.79210279285E+02 0.  0.
          5    1    3    3  501    0 -0.38719630680E+02  0.22504523077E+02  0.26412538205E+02  0.52205129378E+02  0.47000000000E+01 0. -1.
        -13    1    4    4    0    0 -0.54258455100E+02 -0.23990066822E+02 -0.28193728010E+02  0.65684012933E+02  0.00000000000E+00 0.  1.
         14    1    4    4    0    0 -0.56177787816E+01 -0.10128454011E+02 -0.99440300046E+02  0.10011252815E+03  0.00000000000E+00 0. -1.
         -5    1    5    5    0  502 -0.14178665161E+02  0.38259548202E+02  0.17432610201E+02  0.44618532840E+02  0.47000000000E+01 0.  1.
         11    1    6    6    0    0  0.12161066719E+02 -0.37137320282E+02 -0.20957707423E+02  0.44342954366E+02  0.00000000000E+00 0. -1.
        -12    1    6    6    0    0  0.10061346300E+03  0.10491769836E+02 -0.65464944651E+02  0.12049400462E+03  0.00000000000E+00 0.  1.
</event>
<event>
12    1  0.8113184E-002  0.2018823E+03  0.7818608E-02  0.1151761E+00
         21   -1    0    0  503  502  0.00000000000E+00  0.00000000000E+00  0.33697521719E+03  0.33697521719E+03  0.00000000000E+00 0. -1.
         21   -1    0    0  501  503 -0.00000000000E+00 -0.00000000000E+00 -0.11939557963E+03  0.11939557963E+03  0.00000000000E+00 0. -1.
          6    2    1    2  501    0  0.35256259793E+02  0.54339210150E+02  0.17262619135E+03  0.26562427404E+03  0.19120852336E+03 0.  0.
         24    2    3    3    0    0  0.78930531081E+02  0.18297151018E+02  0.17489164223E+03  0.20875869336E+03  0.80176624130E+02 0.  0.
         -6    2    1    2    0  502 -0.35256259793E+02 -0.54339210150E+02  0.44953446219E+02  0.19074652278E+03  0.17368842797E+03 0.  0.
        -24    2    5    5    0    0 -0.49662080653E+02 -0.77297469997E+02 -0.13127297182E+02  0.12648088558E+03  0.85929432466E+02 0.  0.
          5    1    3    3  501    0 -0.43674271288E+02  0.36042059132E+02 -0.22654508846E+01  0.56865580685E+02  0.47000000000E+01 0. -1.
        -11    1    4    4    0    0  0.15040657355E+02 -0.35694168169E+01  0.12201824984E+03  0.12299355838E+03  0.00000000000E+00 0.  1.
         12    1    4    4    0    0  0.63889873726E+02  0.21866567835E+02  0.52873392393E+02  0.85765134972E+02  0.00000000000E+00 0. -1.
         -5    1    5    5    0  502  0.14405820860E+02  0.22958259847E+02  0.58080743401E+02  0.64265637193E+02  0.47000000000E+01 0.  1.
         11    1    6    6    0    0 -0.67767820195E+02 -0.47917344680E+02  0.11905700981E+02  0.83846854986E+02  0.00000000000E+00 0. -1.
        -12    1    6    6    0    0  0.18105739542E+02 -0.29380125316E+02 -0.25032998163E+02  0.42634030597E+02  0.00000000000E+00 0.  1.
</event>
<event>
12    1  0.8113184E-002  0.1945294E+03  0.7818608E-02  0.1155173E+00
         21   -1    0    0  503  502  0.00000000000E+00  0.00000000000E+00  0.51554978587E+03  0.51554978587E+03  0.00000000000E+00 0. -1.
         21   -1    0    0  501  503 -0.00000000000E+00 -0.00000000000E+00 -0.18356318552E+03  0.18356318552E+03  0.00000000000E+00 0. -1.
          6    2    1    2  501    0 -0.82652094693E+02 -0.17899885080E+02 -0.10576799849E+03  0.22142395314E+03  0.17518539574E+03 0.  0.
         24    2    3    3    0    0 -0.15307748716E+02 -0.62513072846E+02 -0.93848856451E+02  0.13963304042E+03  0.80917035733E+02 0.  0.
         -6    2    1    2    0  502  0.82652094693E+02  0.17899885080E+02  0.43775459883E+03  0.47768901825E+03  0.17148158710E+03 0.  0.
        -24    2    5    5    0    0  0.37478730763E+02  0.60102112363E+02  0.37385139311E+03  0.38865323613E+03  0.79180519412E+02 0.  0.
          5    1    3    3  501    0 -0.67344345977E+02  0.44613187766E+02 -0.11919142035E+02  0.81790912726E+02  0.47000000000E+01 0. -1.
        -11    1    4    4    0    0  0.63763565217E+01 -0.33511921985E+02  0.48915433981E+01  0.34462066601E+02  0.00000000000E+00 0.  1.
         12    1    4    4    0    0 -0.21684105238E+02 -0.29001150861E+02 -0.98740399849E+02  0.10517097382E+03  0.00000000000E+00 0. -1.
         -5    1    5    5    0  502  0.45173363930E+02 -0.42202227282E+02  0.63903205723E+02  0.89035782122E+02  0.47000000000E+01 0.  1.
         13    1    6    6    0    0  0.60218662672E+02  0.56307615005E+02  0.30968340641E+03  0.32046941671E+03  0.00000000000E+00 0. -1.
        -14    1    6    6    0    0 -0.22739931909E+02  0.37944973579E+01  0.64167986697E+02  0.68183819417E+02  0.00000000000E+00 0.  1.
</event>
<event>
12    1  0.8113184E-002  0.2322053E+03  0.7818608E-02  0.1127490E+00
         21   -1    0    0  501  502  0.00000000000E+00  0.00000000000E+00  0.23639669429E+03  0.23639669429E+03  0.00000000000E+00 0. -1.
         21   -1    0    0  502  503 -0.00000000000E+00 -0.00000000000E+00 -0.36256716745E+03  0.36256716745E+03  0.00000000000E+00 0.  1.
         -6    2    1    2    0  503  0.51271218256E+02 -0.12298472465E+03 -0.25509121387E+03  0.34495050478E+03  0.19017187762E+03 0.  0.
        -24    2    3    3    0    0  0.16975640432E+02 -0.14727972530E+03 -0.13880931521E+03  0.22121690517E+03  0.87689242741E+02 0.  0.
          6    2    1    2  501    0 -0.51271218256E+02  0.12298472465E+03  0.12892074070E+03  0.25401335696E+03  0.17363250793E+03 0.  0.
         24    2    5    5    0    0 -0.73464949577E+02  0.20937284550E+02  0.45940576339E+02  0.12054411174E+03  0.81147258862E+02 0.  0.
          5    1    5    5  501    0  0.22193731321E+02  0.10204744010E+03  0.82980164365E+02  0.13346924521E+03  0.47000000000E+01 0. -1.
        -13    1    6    6    0    0 -0.64532640790E+02  0.36958324924E+02  0.61491405172E+02  0.96496489151E+02  0.00000000000E+00 0.  1.
         14    1    6    6    0    0 -0.89323087875E+01 -0.16021040373E+02 -0.15550828833E+02  0.24047622592E+02  0.00000000000E+00 0. -1.
         -5    1    3    3    0  503  0.34295577824E+02  0.24295000657E+02 -0.11628189866E+03  0.12373359961E+03  0.47000000000E+01 0.  1.
         11    1    4    4    0    0 -0.24057585099E+01  0.81894533711E+01  0.38147620024E+01  0.93491833686E+01  0.00000000000E+00 0. -1.
        -12    1    4    4    0    0  0.19381398942E+02 -0.15546917867E+03 -0.14262407721E+03  0.21186772180E+03  0.00000000000E+00 0.  1.
</event>
<event>
12    1  0.8113184E-002  0.2801698E+03  0.7818608E-02  0.1095816E+00
         21   -1    0    0  503  502  0.00000000000E+00  0.00000000000E+00  0.10686888132E+04  0.10686888132E+04  0.00000000000E+00 0. -1.
         21   -1    0    0  501  503 -0.00000000000E+00 -0.00000000000E+00 -0.84160477001E+02  0.84160477001E+02  0.00000000000E+00 0. -1.
          6    2    1    2  501    0 -0.16614575368E+03 -0.14483467628E+03  0.28385974446E+03  0.39883764074E+03  0.17295552673E+03 0.  0.
         24    2    3    3    0    0 -0.15661069833E+03 -0.12552875094E+03  0.15116443379E+03  0.26432455027E+03  0.82051226009E+02 0.  0.
         -6    2    1    2    0  502  0.16614575368E+03  0.14483467628E+03  0.70066859173E+03  0.75401164946E+03  0.17033965235E+03 0.  0.
        -24    2    5    5    0    0  0.15902883840E+03  0.51607423155E+02  0.46637325113E+03  0.50170554997E+03  0.79062961866E+02 0.  0.
          5    1    3    3  501    0 -0.95350553490E+01 -0.19305925339E+02  0.13269531067E+03  0.13451309047E+03  0.47000000000E+01 0. -1.
        -11    1    4    4    0    0  0.14882100110E+00 -0.44787382268E+01  0.33819078520E+02  0.34114678890E+02  0.00000000000E+00 0.  1.
         12    1    4    4    0    0 -0.15675951933E+03 -0.12105001271E+03  0.11734535527E+03  0.23020987138E+03  0.00000000000E+00 0. -1.
         -5    1    5    5    0  502  0.71169152721E+01  0.93227253122E+02  0.23429534060E+03  0.25230609948E+03  0.47000000000E+01 0.  1.
         11    1    6    6    0    0  0.14212316197E+03  0.53744409585E+02  0.31887401731E+03  0.35322527323E+03  0.00000000000E+00 0. -1.
        -12    1    6    6    0    0  0.16905676435E+02 -0.21369864301E+01  0.14749923381E+03  0.14848027675E+03  0.00000000000E+00 0.  1.
</event>
<event>
12    1  0.8113184E-002  0.1842128E+03  0.7818608E-02  0.1163904E+00
         21   -1    0    0  503  502  0.00000000000E+00  0.00000000000E+00  0.30871527239E+02  0.30871527239E+02  0.00000000000E+00 0.  1.
         21   -1    0    0  501  503 -0.00000000000E+00 -0.00000000000E+00 -0.12969007867E+04  0.12969007867E+04  0.00000000000E+00 0.  1.
          6    2    1    2  501    0  0.57353997323E+02  0.31957836514E+02 -0.89342253227E+03  0.91211603313E+03  0.17158395150E+03 0.  0.
         24    2    3    3    0    0  0.43153933016E+02  0.23522946248E+02 -0.88969370649E+03  0.89454380101E+03  0.78981830999E+02 0.  0.
         -6    2    1    2    0  502 -0.57353997323E+02 -0.31957836514E+02 -0.37260672723E+03  0.41565628084E+03  0.17211503799E+03 0.  0.
        -24    2    5    5    0    0 -0.46195789806E+02 -0.87809337650E+02 -0.23078110920E+03  0.26274947359E+03  0.77024896847E+02 0.  0.
          5    1    3    3  501    0  0.14200064307E+02  0.84348902666E+01 -0.37288257814E+01  0.17572232125E+02  0.47000000000E+01 0. -1.
        -13    1    4    4    0    0  0.39364246939E+02  0.13651850075E+02 -0.17952342605E+03  0.18429481124E+03  0.00000000000E+00 0.  1.
         14    1    4    4    0    0  0.37896860776E+01  0.98710961725E+01 -0.71017028043E+03  0.71024898977E+03  0.00000000000E+00 0. -1.
         -5    1    5    5    0  502 -0.11158207518E+02  0.55851501135E+02 -0.14182561803E+03  0.15290680725E+03  0.47000000000E+01 0.  1.
         13    1    6    6    0    0 -0.10440832973E+02 -0.88082310657E+02 -0.17968567169E+03  0.20038574065E+03  0.00000000000E+00 0. -1.
        -14    1    6    6    0    0 -0.35754956832E+02  0.27297300692E+00 -0.51095437507E+02  0.62363732941E+02  0.00000000000E+00 0.  1.
</event>
<event>
12    1  0.8113184E-002  0.1747768E+03  0.7818608E-02  0.1174722E+00
         21   -1    0    0  501  502  0.00000000000E+00  0.00000000000E+00  0.24054602329E+03  0.24054602329E+03  0.00000000000E+00 0. -1.
         21   -1    0    0  502  503 -0.00000000000E+00 -0.00000000000E+00 -0.12445202667E+03  0.12445202667E+03  0.00000000000E+00 0. -1.
         -6    2    1    2    0  503  0.10823289756E+02  0.24432920978E+02  0.84568804495E+02  0.19416186366E+03  0.17272184395E+03 0.  0.
        -24    2    3    3    0    0 -0.45123718389E+02 -0.26641069190E+02  0.71219442349E+02  0.11709750314E+03  0.76770565617E+02 0.  0.
          6    2    1    2  501    0 -0.10823289756E+02 -0.24432920978E+02  0.31525192121E+02  0.17083618630E+03  0.16576203902E+03 0.  0.
         24    2    5    5    0    0  0.35952295619E+02  0.29436878277E+02 -0.14316281286E+01  0.92107839052E+02  0.79515451912E+02 0.  0.
          5    1    5    5  501    0 -0.46775585375E+02 -0.53869799255E+02  0.32956820250E+02  0.78728347245E+02  0.47000000000E+01 0. -1.
        -11    1    6    6    0    0 -0.12535484400E+01 -0.12004752159E+01  0.32892344006E+02  0.32938105875E+02  0.00000000000E+00 0.  1.
         12    1    6    6    0    0  0.37205844059E+02  0.30637353493E+02 -0.34323972134E+02  0.59169733177E+02  0.00000000000E+00 0. -1.
         -5    1    3    3    0  503  0.55947008145E+02  0.51073990168E+02  0.13349362145E+02  0.77064360516E+02  0.47000000000E+01 0.  1.
         13    1    4    4    0    0 -0.26955991524E+02  0.15311185665E+02  0.63595282691E+02  0.70748977845E+02  0.00000000000E+00 0. -1.
        -14    1    4    4    0    0 -0.18167726865E+02 -0.41952254856E+02  0.76241596579E+01  0.46348525299E+02  0.00000000000E+00 0.  1.
</event>
<event>
12    1  0.8113184E-002  0.2207183E+03  0.7818608E-02  0.1133372E+00
         21   -1    0    0  503  502  0.00000000000E+00  0.00000000000E+00  0.29695736791E+03  0.29695736791E+03  0.00000000000E+00 0. -1.
         21   -1    0    0  501  503 -0.00000000000E+00 -0.00000000000E+00 -0.16557561684E+03  0.16557561684E+03  0.00000000000E+00 0. -1.
          6    2    1    2  501    0  0.76628403171E+02  0.11535305267E+03  0.42849135828E+02  0.22483908446E+03  0.17186717699E+03 0.  0.
         24    2    3    3    0    0  0.78543773885E+02  0.93994191395E+02  0.90715131655E+02  0.17217872787E+03  0.80076505832E+02 0.  0.
         -6    2    1    2    0  502 -0.76628403171E+02 -0.11535305267E+03  0.88532615241E+02  0.23769390029E+03  0.17170360317E+03 0.  0.
        -24    2    5    5    0    0 -0.21695010781E+02  0.10005019239E+02  0.26971748397E+02  0.87546792033E+02  0.79788418213E+02 0.  0.
          5    1    3    3  501    0 -0.19153707140E+01  0.21358861272E+02 -0.47865995828E+02  0.52660356592E+02  0.47000000000E+01 0. -1.
        -11    1    4    4    0    0  0.26296544244E-01 -0.56864028550E+01  0.31753109577E+02  0.32258267727E+02  0.00000000000E+00 0.  1.
         12    1    4    4    0    0  0.78517477341E+02  0.99680594250E+02  0.58962022078E+02  0.13992046014E+03  0.00000000000E+00 0. -1.
         -5    1    5    5    0  502 -0.54933392391E+02 -0.12535807191E+03  0.61560866844E+02  0.15014710826E+03  0.47000000000E+01 0.  1.
         13    1    6    6    0    0 -0.43797831722E+02 -0.37152395030E+01  0.39113310518E+02  0.58837948025E+02  0.00000000000E+00 0. -1.
        -14    1    6    6    0    0  0.22102820941E+02  0.13720258742E+02 -0.12141562121E+02  0.28708844008E+02  0.00000000000E+00 0.  1.
</event>
<event>
12    1  0.8113184E-002  0.1992063E+03  0.7818608E-02  0.1151336E+00
         21   -1    0    0  501  502  0.00000000000E+00  0.00000000000E+00  0.10342745851E+04  0.10342745851E+04  0.00000000000E+00 0. -1.
         21   -1    0    0  502  503 -0.00000000000E+00 -0.00000000000E+00 -0.41642232356E+02  0.41642232356E+02  0.00000000000E+00 0.  1.
         -6    2    1    2    0  503  0.16690810335E+02 -0.91405214396E+02  0.33240612266E+03  0.38752676539E+03  0.17620915738E+03 0.  0.
        -24    2    3    3    0    0  0.56747083088E+02 -0.83479486918E+02  0.13784188901E+03  0.18866839076E+03  0.80039484840E+02 0.  0.
          6    2    1    2  501    0 -0.16690810335E+02  0.91405214396E+02  0.66022623012E+03  0.68839005210E+03  0.17131460102E+03 0.  0.
         24    2    5    5    0    0  0.75056284628E+01  0.17235056136E+02  0.13582959316E+03  0.15820083787E+03  0.78895152620E+02 0.  0.
          5    1    5    5  501    0 -0.24196438797E+02  0.74170158259E+02  0.52439663696E+03  0.53018921422E+03  0.47000000000E+01 0. -1.
        -13    1    6    6    0    0  0.27344723350E+02 -0.23663672170E+01  0.12549033832E+03  0.12845683555E+03  0.00000000000E+00 0.  1.
         14    1    6    6    0    0 -0.19839094887E+02  0.19601423353E+02  0.10339254844E+02  0.29744002322E+02  0.00000000000E+00 0. -1.
         -5    1    3    3    0  503 -0.40056272753E+02 -0.79257274777E+01  0.19456423365E+03  0.19885837463E+03  0.47000000000E+01 0.  1.
         13    1    4    4    0    0  0.76893290149E+02 -0.58139387723E+02  0.10085031565E+03  0.13951183692E+03  0.00000000000E+00 0. -1.
        -14    1    4    4    0    0 -0.20146207061E+02 -0.25340099195E+02  0.36991573356E+02  0.49156553841E+02  0.00000000000E+00 0.  1.
</event>
<event>
12    1  0.8113184E-002  0.1975320E+03  0.7818608E-02  0.1153718E+00
         21   -1    0    0  501  502  0.00000000000E+00  0.00000000000E+00  0.13985590829E+03  0.13985590829E+03  0.00000000000E+00 0. -1.
         21   -1    0    0  502  503 -0.00000000000E+00 -0.00000000000E+00 -0.39400881549E+03  0.39400881549E+03  0.00000000000E+00 0. -1.
         -6    2    1    2    0  503 -0.72024746219E+02 -0.62765891852E+02 -0.28049743956E+03  0.34307099886E+03  0.17289238100E+03 0.  0.
        -24    2    3    3    0    0  0.10217559748E+02 -0.16357556089E+02 -0.56548571296E+02  0.99981064644E+02  0.80165480123E+02 0.  0.
          6    2    1    2  501    0  0.72024746219E+02  0.62765891852E+02  0.26344532357E+02  0.19079372492E+03  0.16303708117E+03 0.  0.
         24    2    5    5    0    0 -0.19543733197E+02  0.24915364098E+02  0.30929473793E+02  0.91493369628E+02  0.80072913406E+02 0.  0.
          5    1    5    5  501    0  0.91568479416E+02  0.37850527754E+02 -0.45849414358E+01  0.99300355296E+02  0.47000000000E+01 0. -1.
        -13    1    6    6    0    0 -0.11943235571E+02  0.24628176020E+02 -0.23779549433E+02  0.36258170130E+02  0.00000000000E+00 0.  1.
         14    1    6    6    0    0 -0.76004976260E+01  0.28718807775E+00  0.54709023226E+02  0.55235199497E+02  0.00000000000E+00 0. -1.
         -5    1    3    3    0  503 -0.82242305967E+02 -0.46408335763E+02 -0.22394886826E+03  0.24308993421E+03  0.47000000000E+01 0.  1.
         13    1    4    4    0    0  0.10758436969E+02 -0.49374976931E+01 -0.76271192140E+02  0.77184309286E+02  0.00000000000E+00 0. -1.
        -14    1    4    4    0    0 -0.54087722193E+00 -0.11420058396E+02  0.19722620843E+02  0.22796755358E+02  0.00000000000E+00 0.  1.
</event>
<event>
12    1  0.8113184E-002  0.1832256E+03  0.7818608E-02  0.1165277E+00
         21   -1    0    0  503  502  0.00000000000E+00  0.00000000000E+00  0.31341186097E+03  0.31341186097E+03  0.00000000000E+00 0. -1.
         21   -1    0    0  501  503 -0.00000000000E+00 -0.00000000000E+00 -0.16411279814E+03  0.16411279814E+03  0.00000000000E+00 0. -1.
          6    2    1    2  501    0 -0.52959111368E+02 -0.22585051868E+02 -0.68048283650E+02  0.19325101754E+03  0.17146613318E+03 0.  0.
         24    2    3    3    0    0 -0.91170460839E+02 -0.37247219658E+02 -0.79357028562E+02  0.15053024854E+03  0.81623583855E+02 0.  0.
         -6    2    1    2    0  502  0.52959111368E+02  0.22585051868E+02  0.21734734649E+03  0.28427364157E+03  0.17394505518E+03 0.  0.
        -24    2    5    5    0    0 -0.25517302841E+02  0.51726822902E+02  0.10808282812E+03  0.14654704508E+03  0.80419784476E+02 0.  0.
          5    1    3    3  501    0  0.38211349470E+02  0.14662167790E+02  0.11308744913E+02  0.42720769002E+02  0.47000000000E+01 0. -1.
        -11    1    4    4    0    0 -0.30203176050E+02  0.24493010077E+02 -0.12031580557E+02  0.40705015868E+02  0.00000000000E+00 0.  1.
         12    1    4    4    0    0 -0.60967284789E+02 -0.61740229735E+02 -0.67325448005E+02  0.10982523267E+03  0.00000000000E+00 0. -1.
         -5    1    5    5    0  502  0.78476414209E+02 -0.29141771033E+02  0.10926451837E+03  0.13772659649E+03  0.47000000000E+01 0.  1.
         13    1    6    6    0    0  0.26701300718E+02  0.34823233015E+02  0.43450511273E+02  0.61754060170E+02  0.00000000000E+00 0. -1.
        -14    1    6    6    0    0 -0.52218603559E+02  0.16903589887E+02  0.64632316842E+02  0.84792984905E+02  0.00000000000E+00 0.  1.
</event>
<event>
12    1  0.8113184E-002  0.1815352E+03  0.7818608E-02  0.1167313E+00
         21   -1    0    0  503  502  0.00000000000E+00  0.00000000000E+00  0.53543558561E+02  0.53543558561E+02  0.00000000000E+00 0. -1.
         21   -1    0    0  501  503 -0.00000000000E+00 -0.00000000000E+00 -0.60582829160E+03  0.60582829160E+03  0.00000000000E+00 0. -1.
          6    2    1    2  501    0  0.56993127029E+02  0.13674138990E+01 -0.30013348920E+03  0.34867056452E+03  0.16805048311E+03 0.  0.
         24    2    3    3    0    0 -0.13521939117E+02 -0.59136191240E+01 -0.24822765800E+03  0.26068367170E+03  0.78238051905E+02 0.  0.
         -6    2    1    2    0  502 -0.56993127029E+02 -0.13674138990E+01 -0.25215124384E+03  0.31070128565E+03  0.17235124827E+03 0.  0.
        -24    2    5    5    0    0  0.29235984503E+02 -0.23320974187E+02 -0.10433540741E+03  0.13810629735E+03  0.82394547762E+02 0.  0.
          5    1    3    3  501    0  0.70515066146E+02  0.72810330230E+01 -0.51905831196E+02  0.87986892817E+02  0.47000000000E+01 0. -1.
        -13    1    4    4    0    0 -0.55030302239E+01 -0.40927968179E+02 -0.10054675223E+03  0.10869697008E+03  0.00000000000E+00 0.  1.
         14    1    4    4    0    0 -0.80189088932E+01  0.35014349055E+02 -0.14768090578E+03  0.15198670162E+03  0.00000000000E+00 0. -1.
         -5    1    5    5    0  502 -0.86229111532E+02  0.21953560288E+02 -0.14781583643E+03  0.17259498830E+03  0.47000000000E+01 0.  1.
         13    1    6    6    0    0  0.14563592978E+02 -0.53880351064E+02 -0.73425250431E+02  0.92230460651E+02  0.00000000000E+00 0. -1.
        -14    1    6    6    0    0  0.14672391525E+02  0.30559376876E+02 -0.30910156982E+02  0.45875836698E+02  0.00000000000E+00 0.  1.
</event>
<event>
12    1  0.8113184E-002  0.1966265E+03  0.7818608E-02  0.1152625E+00
         21   -1    0    0  501  502  0.00000000000E+00  0.00000000000E+00  0.46889102163E+03  0.46889102163E+03  0.00000000000E+00 0. -1.
         21   -1    0    0  502  503 -0.00000000000E+00 -0.00000000000E+00 -0.19201433074E+03  0.19201433074E+03  0.00000000000E+00 0. -1.
         -6    2    1    2    0  503  0.84491846552E+02 -0.44454379984E+02 -0.11120052117E+03  0.22585833075E+03  0.17184692499E+03 0.  0.
        -24    2    3    3    0    0  0.11438867739E+02  0.35889205894E-02 -0.11412339299E+03  0.14016187871E+03  0.80562743925E+02 0.  0.
          6    2    1    2  501    0 -0.84491846552E+02  0.44454379984E+02  0.38807721206E+03  0.43504702162E+03  0.17189218851E+03 0.  0.
         24    2    5    5    0    0 -0.11976333699E+03  0.13255934318E+02  0.31358224118E+03  0.34679164368E+03  0.86090913933E+02 0.  0.
          5    1    5    5  501    0  0.35271490439E+02  0.31198445666E+02  0.74494970879E+02  0.88255377943E+02  0.47000000000E+01 0. -1.
        -11    1    6    6    0    0 -0.54190480672E+02  0.24709958671E+02  0.59701733623E+02  0.84329634474E+02  0.00000000000E+00 0.  1.
         12    1    6    6    0    0 -0.65572856319E+02 -0.11454024353E+02  0.25388050755E+03  0.26246200920E+03  0.00000000000E+00 0. -1.
         -5    1    3    3    0  503  0.73052978813E+02 -0.44457968905E+02  0.29228718211E+01  0.85696452040E+02  0.47000000000E+01 0.  1.
         13    1    4    4    0    0  0.44645586081E+02 -0.74224354662E+00 -0.84878217390E+02  0.95906678961E+02  0.00000000000E+00 0. -1.
        -14    1    4    4    0    0 -0.33206718342E+02  0.74583246721E+00 -0.29245175598E+02  0.44255199750E+02  0.00000000000E+00 0.  1.
</event>
<event>
12    1  0.8113184E-002  0.1892033E+03  0.7818608E-02  0.1161158E+00
         21   -1    0    0  503  502  0.00000000000E+00  0.00000000000E+00  0.10531327000E+03  0.10531327000E+03  0.00000000000E+00 0. -1.
         21   -1    0    0  501  503 -0.00000000000E+00 -0.00000000000E+00 -0.39911667579E+03  0.39911667579E+03  0.00000000000E+00 0. -1.
          6    2    1    2  501    0 -0.50368203992E+02 -0.23371824212E+02 -0.25295590054E+03  0.31086749940E+03  0.17195556526E+03 0.  0.
         24    2    3    3    0    0 -0.49222138728E+02 -0.79911062139E+02 -0.17609845377E+03  0.21533134910E+03  0.80921738058E+02 0.  0.
         -6    2    1    2    0  502  0.50368203992E+02  0.23371824212E+02 -0.40847505249E+02  0.19356244638E+03  0.18087206479E+03 0.  0.
        -24    2    5    5    0    0  0.97755964213E+02 -0.33047685160E+01 -0.15922209118E+01  0.12632921229E+03  0.79933626687E+02 0.  0.
          5    1    3    3  501    0 -0.11460652636E+01  0.56539237927E+02 -0.76857446773E+02  0.95536150307E+02  0.47000000000E+01 0. -1.
        -11    1    4    4    0    0  0.13789259510E+02 -0.25420890791E+02 -0.94088988097E+02  0.98433241578E+02  0.00000000000E+00 0.  1.
         12    1    4    4    0    0 -0.63011398238E+02 -0.54490171349E+02 -0.82009465675E+02  0.11689810752E+03  0.00000000000E+00 0. -1.
         -5    1    5    5    0  502 -0.47387760221E+02  0.26676592728E+02 -0.39255284338E+02  0.67233234094E+02  0.47000000000E+01 0.  1.
         11    1    6    6    0    0  0.22408999138E+02  0.23199341608E+02 -0.27472110536E+02  0.42368497149E+02  0.00000000000E+00 0. -1.
        -12    1    6    6    0    0  0.75346965074E+02 -0.26504110124E+02  0.25879889624E+02  0.83960715137E+02  0.00000000000E+00 0.  1.
</event>
<event>
12    1  0.8113184E-002  0.2349619E+03  0.7818608E-02  0.1123504E+00
         21   -1    0    0  501  502  0.00000000000E+00  0.00000000000E+00  0.60100242771E+02  0.60100242771E+02  0.00000000000E+00 0.  1.
         21   -1    0    0  502  503 -0.00000000000E+00 -0.00000000000E+00 -0.11084067524E+04  0.11084067524E+04  0.00000000000E+00 0.  1.
         -6    2    1    2    0  503  0.27364951677E+02  0.16271005850E+03 -0.27959853312E+03  0.36521562368E+03  0.16728331758E+03 0.  0.
        -24    2    3    3    0    0  0.14970510851E+02  0.18825928456E+03 -0.23184171453E+03  0.30945552292E+03  0.79664707692E+02 0.  0.
          6    2    1    2  501    0 -0.27364951677E+02 -0.16271005850E+03 -0.76870797655E+03  0.80329137153E+03  0.16474729329E+03 0.  0.
         24    2    5    5    0    0  0.35520863960E+01 -0.79710588717E+02 -0.21641274693E+03  0.24391950426E+03  0.79346406697E+02 0.  0.
          5    1    5    5  501    0 -0.30917038074E+02 -0.82999469784E+02 -0.55229522962E+03  0.55937186727E+03  0.47000000000E+01 0. -1.
        -13    1    6    6    0    0  0.25448968331E+02 -0.72489421581E+01 -0.11120070063E+03  0.11430569965E+03  0.00000000000E+00 0.  1.
         14    1    6    6    0    0 -0.21896881935E+02 -0.72461646559E+02 -0.10521204630E+03  0.12961380462E+03  0.00000000000E+00 0. -1.
         -5    1    3    3    0  503  0.12394440826E+02 -0.25549226054E+02 -0.47756818592E+02  0.55760100765E+02  0.47000000000E+01 0.  1.
         13    1    4    4    0    0 -0.21986838595E+02  0.12789295414E+02 -0.24323668246E+02  0.35194147035E+02  0.00000000000E+00 0. -1.
        -14    1    4    4    0    0  0.36957349447E+02  0.17546998914E+03 -0.20751804628E+03  0.27426137588E+03  0.00000000000E+00 0.  1.
</event>
<event>
12    1  0.8113184E-002  0.2163051E+03  0.7818608E-02  0.1137025E+00
         21   -1    0    0  503  502  0.00000000000E+00  0.00000000000E+00  0.19111985704E+04  0.19111985704E+04  0.00000000000E+00 0.  1.
         21   -1    0    0  501  503 -0.00000000000E+00 -0.00000000000E+00 -0.61352010566E+02  0.61352010566E+02  0.00000000000E+00 0.  1.
          6    2    1    2  501    0 -0.98186260048E+02  0.81722667015E+02  0.15657259448E+03  0.26551671541E+03  0.17223534148E+03 0.  0.
         24    2    3    3    0    0 -0.43705926752E+02  0.11403802696E+03  0.14842947814E+03  0.20147930800E+03  0.60396373598E+02 0.  0.
         -6    2    1    2    0  502  0.98186260048E+02 -0.81722667015E+02  0.16932739653E+04  0.17070338655E+04  0.17455303044E+03 0.  0.
        -24    2    5    5    0    0  0.13076771203E+03 -0.74746830840E+02  0.15662359292E+04  0.15756148185E+04  0.82339462332E+02 0.  0.
          5    1    3    3  501    0 -0.54480333296E+02 -0.32315359948E+02  0.81431163408E+01  0.64037407414E+02  0.47000000000E+01 0. -1.
        -13    1    4    4    0    0 -0.37531818055E+02  0.32204698973E+02  0.82599586615E+02  0.96272902270E+02  0.00000000000E+00 0.  1.
         14    1    4    4    0    0 -0.61741086965E+01  0.81833327989E+02  0.65829891523E+02  0.10520640573E+03  0.00000000000E+00 0. -1.
         -5    1    5    5    0  502 -0.32581451986E+02 -0.69758361751E+01  0.12703803606E+03  0.13141904698E+03  0.47000000000E+01 0.  1.
         11    1    6    6    0    0  0.25311722661E+02 -0.24621723862E+02  0.77561244175E+03  0.77641585017E+03  0.00000000000E+00 0. -1.
        -12    1    6    6    0    0  0.10545598937E+03 -0.50125106978E+02  0.79062348750E+03  0.79919896836E+03  0.00000000000E+00 0.  1.
</event>
<event>
12    1  0.8113184E-002  0.1964367E+03  0.7818608E-02  0.1152908E+00
         21   -1    0    0  503  502  0.00000000000E+00  0.00000000000E+00  0.41073486906E+02  0.41073486906E+02  0.00000000000E+00 0. -1.
         21   -1    0    0  501  503 -0.00000000000E+00 -0.00000000000E+00 -0.21969032882E+04  0.21969032882E+04  0.00000000000E+00 0.  1.
          6    2    1    2  501    0 -0.92463374844E+02  0.72609267441E+01 -0.19247409745E+04  0.19346792185E+04  0.17249250103E+03 0.  0.
         24    2    3    3    0    0 -0.10133753145E+03  0.46898111711E+02 -0.95909649528E+03  0.96816941136E+03  0.70832151431E+02 0.  0.
         -6    2    1    2    0  502  0.92463374844E+02 -0.72609267441E+01 -0.23108882686E+03  0.30329755665E+03  0.17316225116E+03 0.  0.
        -24    2    5    5    0    0  0.93713471678E+02  0.13454230303E+02 -0.73326152833E+02  0.14410637665E+03  0.80166651515E+02 0.  0.
          5    1    3    3  501    0  0.88741566015E+01 -0.39637184967E+02 -0.96564447917E+03  0.96650980711E+03  0.47000000000E+01 0. -1.
        -13    1    4    4    0    0 -0.55485540145E+02 -0.82942623042E+01 -0.30199643211E+03  0.30716328713E+03  0.00000000000E+00 0.  1.
         14    1    4    4    0    0 -0.45851991300E+02  0.55192374015E+02 -0.65710006317E+03  0.66100612424E+03  0.00000000000E+00 0. -1.
         -5    1    5    5    0  502 -0.12500968338E+01 -0.20715157047E+02 -0.15776267402E+03  0.15919118000E+03  0.47000000000E+01 0.  1.
         13    1    6    6    0    0  0.24181905282E+02 -0.18673347857E+02  0.88106133321E+01  0.31797568626E+02  0.00000000000E+00 0. -1.
        -14    1    6    6    0    0  0.69531566395E+02  0.32127578159E+02 -0.82136766165E+02  0.11230880802E+03  0.00000000000E+00 0.  1.
</event>
<event>
12    1  0.8113184E-002  0.1805063E+03  0.7818608E-02  0.1167574E+00
         21   -1    0    0  503  502  0.00000000000E+00  0.00000000000E+00  0.20983498706E+04  0.20983498706E+04  0.00000000000E+00 0.  1.
         21   -1    0    0  501  503 -0.00000000000E+00 -0.00000000000E+00 -0.19032406339E+02  0.19032406339E+02  0.00000000000E+00 0.  1.
          6    2    1    2  501    0  0.38543628014E+01 -0.53542670476E+02  0.58191915083E+03  0.60927205328E+03  0.17233938356E+03 0.  0.
         24    2    3    3    0    0  0.60440680780E+02 -0.39887548213E+02  0.25266746569E+03  0.27488121023E+03  0.80465763666E+02 0.  0.
         -6    2    1    2    0  502 -0.38543628014E+01  0.53542670476E+02  0.14973983135E+04  0.15081102237E+04  0.17121058373E+03 0.  0.
        -24    2    5    5    0    0  0.63992592904E+02  0.45253144971E+02  0.79636873001E+03  0.80374065272E+03  0.75186326089E+02 0.  0.
          5    1    3    3  501    0 -0.56586317978E+02 -0.13655122263E+02  0.32925168514E+03  0.33439084305E+03  0.47000000000E+01 0. -1.
        -11    1    4    4    0    0 -0.77373992383E+00  0.93723472485E+01 -0.87308853748E+00  0.94446731024E+01  0.00000000000E+00 0.  1.
         12    1    4    4    0    0  0.61214420704E+02 -0.49259895461E+02  0.25354055423E+03  0.26543653713E+03  0.00000000000E+00 0. -1.
         -5    1    5    5    0  502 -0.67846955705E+02  0.82895255049E+01  0.70102958347E+03  0.70436957098E+03  0.47000000000E+01 0.  1.
         11    1    6    6    0    0  0.17300019371E+02  0.56160795093E+02  0.36278919757E+03  0.36751779202E+03  0.00000000000E+00 0. -1.
        -12    1    6    6    0    0  0.46692573532E+02 -0.10907650122E+02  0.43357953244E+03  0.43622286070E+03  0.00000000000E+00 0.  1.
</event>
<event>
12    1  0.8113184E-002  0.1818495E+03  0.7818608E-02  0.1166731E+00
         21   -1    0    0  501  502  0.00000000000E+00  0.00000000000E+00  0.15213580876E+03  0.15213580876E+03  0.00000000000E+00 0.  1.
         21   -1    0    0  502  503 -0.00000000000E+00 -0.00000000000E+00 -0.43316010810E+03  0.43316010810E+03  0.00000000000E+00 0.  1.
         -6    2    1    2    0  503  0.45901072321E+02 -0.38598432892E+02 -0.34929199211E+03  0.39379451553E+03  0.17167549985E+03 0.  0.
        -24    2    3    3    0    0  0.43930694392E+02 -0.90806037672E+02 -0.24588787877E+03  0.27784617772E+03  0.81006216795E+02 0.  0.
          6    2    1    2  501    0 -0.45901072321E+02  0.38598432892E+02  0.68267692774E+02  0.19150140133E+03  0.16856915902E+03 0.  0.
         24    2    5    5    0    0 -0.95167441184E+02  0.38817164529E+02  0.49604971707E+02  0.13860896234E+03  0.78664967422E+02 0.  0.
          5    1    5    5  501    0  0.49266368863E+02 -0.21873163786E+00  0.18662721067E+02  0.52892438988E+02  0.47000000000E+01 0. -1.
        -11    1    6    6    0    0 -0.18952120858E+02  0.48920749780E+02  0.17688043733E+02  0.55365056987E+02  0.00000000000E+00 0.  1.
         12    1    6    6    0    0 -0.76215320326E+02 -0.10103585251E+02  0.31916927974E+02  0.83243905354E+02  0.00000000000E+00 0. -1.
         -5    1    3    3    0  503  0.19703779295E+01  0.52207604781E+02 -0.10340411334E+03  0.11594833782E+03  0.47000000000E+01 0.  1.
         13    1    4    4    0    0 -0.89513798664E+01 -0.34261021486E+02 -0.23839352687E+02  0.42687931916E+02  0.00000000000E+00 0. -1.
        -14    1    4    4    0    0  0.52882074258E+02 -0.56545016187E+02 -0.22204852608E+03  0.23515824580E+03  0.00000000000E+00 0.  1.
</event>
<event>
12    1  0.8113184E-002  0.2377871E+03  0.7818608E-02  0.1121759E+00
         21   -1    0    0  503  502  0.00000000000E+00  0.00000000000E+00  0.76365882832E+02  0.76365882832E+02  0.00000000000E+00 0.  1.
         21   -1    0    0  501  503 -0.00000000000E+00 -0.00000000000E+00 -0.90400156522E+03  0.90400156522E+03  0.00000000000E+00 0. -1.
          6    2    1    2  501    0  0.39771761029E+01 -0.16403946986E+03 -0.19772100257E+03  0.30706570976E+03  0.16813979198E+03 0.  0.
         24    2    3    3    0    0 -0.45801607542E+02 -0.36400374843E+02 -0.84000662677E+02  0.12895318470E+03  0.78422177800E+02 0.  0.
         -6    2    1    2    0  502 -0.39771761029E+01  0.16403946986E+03 -0.62991467981E+03  0.67330173829E+03  0.17209869652E+03 0.  0.
        -24    2    5    5    0    0 -0.69038901616E+02  0.10742745911E+03 -0.36884905867E+03  0.39831938171E+03  0.79383076658E+02 0.  0.
          5    1    3    3  501    0  0.49778783645E+02 -0.12763909501E+03 -0.11372033989E+03  0.17811252506E+03  0.47000000000E+01 0. -1.
        -11    1    4    4    0    0 -0.17756608428E+02 -0.48543243412E+02 -0.15529490549E+02  0.53971369267E+02  0.00000000000E+00 0.  1.
         12    1    4    4    0    0 -0.28044999114E+02  0.12142868569E+02 -0.68471172129E+02  0.74981815429E+02  0.00000000000E+00 0. -1.
         -5    1    5    5    0  502  0.65061725513E+02  0.56612010750E+02 -0.26106562114E+03  0.27498235658E+03  0.47000000000E+01 0.  1.
         13    1    6    6    0    0  0.17256248035E+02  0.28424333600E+02 -0.88177189149E+02  0.94238726239E+02  0.00000000000E+00 0. -1.
        -14    1    6    6    0    0 -0.86295149651E+02  0.79003125508E+02 -0.28067186952E+03  0.30408065547E+03  0.00000000000E+00 0.  1.
</event>
<event>
12    1  0.8113184E-002  0.1883007E+03  0.7818608E-02  0.1160377E+00
         21   -1    0    0  503  502  0.00000000000E+00  0.00000000000E+00  0.21740291195E+04  0.21740291195E+04  0.00000000000E+00 0.  1.
         21   -1    0    0  501  503 -0.00000000000E+00 -0.00000000000E+00 -0.35895293032E+02  0.35895293032E+02  0.00000000000E+00 0. -1.
          6    2    1    2  501    0  0.43202829152E+02  0.62865316533E+02  0.24782956741E+03  0.31026461913E+03  0.17037049901E+03 0.  0.
         24    2    3    3    0    0  0.85269071495E+02  0.76535304644E+02  0.21022399642E+03  0.25201767681E+03  0.78678544379E+02 0.  0.
         -6    2    1    2    0  502 -0.43202829152E+02 -0.62865316533E+02  0.18903042591E+04  0.18996597934E+04  0.17215866628E+03 0.  0.
        -24    2    5    5    0    0  0.18814454929E+02 -0.15219299630E+02  0.47816807463E+03  0.48535184255E+03  0.79599577137E+02 0.  0.
          5    1    3    3  501    0 -0.42066242344E+02 -0.13669988111E+02  0.37605570993E+02  0.58246942320E+02  0.47000000000E+01 0. -1.
        -11    1    4    4    0    0  0.87994557514E+02  0.85209615920E+02  0.20977001900E+03  0.24291393881E+03  0.00000000000E+00 0.  1.
         12    1    4    4    0    0 -0.27254860184E+01 -0.86743112762E+01  0.45397742057E+00  0.91037380043E+01  0.00000000000E+00 0. -1.
         -5    1    5    5    0  502 -0.62017284081E+02 -0.47646016903E+02  0.14121361844E+04  0.14143079509E+04  0.47000000000E+01 0.  1.
         11    1    6    6    0    0 -0.20705837038E+02 -0.33073293162E+02  0.26046183963E+03  0.26336845733E+03  0.00000000000E+00 0. -1.
        -12    1    6    6    0    0  0.39520291966E+02  0.17853993531E+02  0.21770623499E+03  0.22198338523E+03  0.00000000000E+00 0.  1.
</event>
<event>
12    1  0.8113184E-002  0.2108509E+03  0.7818608E-02  0.1141410E+00
         21   -1    0    0  503  502  0.00000000000E+00  0.00000000000E+00  0.49762785715E+03  0.49762785715E+03  0.00000000000E+00 0.  1.
         21   -1    0    0  501  503 -0.00000000000E+00 -0.00000000000E+00 -0.13872091868E+03  0.13872091868E+03  0.00000000000E+00 0. -1.
          6    2    1    2  501    0  0.97593505298E+02  0.72903734460E+02 -0.13191000274E+02  0.20866315019E+03  0.16889896680E+03 0.  0.
         24    2    3    3    0    0  0.10424980105E+02  0.11471198725E+02 -0.50168699215E+02  0.95695241254E+02  0.80002576255E+02 0.  0.
         -6    2    1    2    0  502 -0.97593505298E+02 -0.72903734460E+02  0.37209793874E+03  0.42768562563E+03  0.17210075996E+03 0.  0.
        -24    2    5    5    0    0 -0.71235065610E+02  0.19237921825E+02  0.13728027531E+03  0.17401994560E+03  0.77411467287E+02 0.  0.
          5    1    3    3  501    0  0.87168525193E+02  0.61432535735E+02  0.36977698941E+02  0.11296790894E+03  0.47000000000E+01 0. -1.
        -13    1    4    4    0    0  0.13253662685E+02 -0.12197611040E+02  0.16787523518E+02  0.24622392969E+02  0.00000000000E+00 0.  1.
         14    1    4    4    0    0 -0.28286825799E+01  0.23668809764E+02 -0.66956222733E+02  0.71072848286E+02  0.00000000000E+00 0. -1.
         -5    1    5    5    0  502 -0.26358439689E+02 -0.92141656285E+02  0.23481766343E+03  0.25366568003E+03  0.47000000000E+01 0.  1.
         11    1    6    6    0    0 -0.67304254705E+02 -0.15469539371E+02  0.10919289953E+03  0.12919852421E+03  0.00000000000E+00 0. -1.
        -12    1    6    6    0    0 -0.39308109046E+01  0.34707461196E+02  0.28087375778E+02  0.44821421387E+02  0.00000000000E+00 0.  1.
</event>
<event>
12    1  0.8113184E-002  0.1728004E+03  0.7818608E-02  0.1175095E+00
         21   -1    0    0  501  502  0.00000000000E+00  0.00000000000E+00  0.25753559080E+03  0.25753559080E+03  0.00000000000E+00 0.  1.
         21   -1    0    0  502  503 -0.00000000000E+00 -0.00000000000E+00 -0.26110029247E+03  0.26110029247E+03  0.00000000000E+00 0.  1.
         -6    2    1    2    0  503  0.51030861738E+01  0.10846347467E+02 -0.19537287028E+03  0.26082663820E+03  0.17238414084E+03 0.  0.
        -24    2    3    3    0    0 -0.48788901303E+02 -0.33242546457E+02 -0.88697864985E+02  0.13335184212E+03  0.80187148336E+02 0.  0.
          6    2    1    2  501    0 -0.51030861738E+01 -0.10846347467E+02  0.19180816861E+03  0.25780924506E+03  0.17184745722E+03 0.  0.
         24    2    5    5    0    0  0.34768100196E+02 -0.31950604653E+02  0.19167515751E+03  0.21245278063E+03  0.78531242574E+02 0.  0.
          5    1    5    5  501    0 -0.39871186370E+02  0.21104257186E+02  0.13301109274E+00  0.45356464433E+02  0.47000000000E+01 0. -1.
        -13    1    6    6    0    0  0.36214362920E+02  0.28049021198E+01  0.30094587870E+02  0.47170242491E+02  0.00000000000E+00 0.  1.
         14    1    6    6    0    0 -0.14462627237E+01 -0.34755506773E+02  0.16158056964E+03  0.16528253814E+03  0.00000000000E+00 0. -1.
         -5    1    3    3    0  503  0.53891987477E+02  0.44088893924E+02 -0.10667500530E+03  0.12747479608E+03  0.47000000000E+01 0.  1.
         11    1    4    4    0    0 -0.32116015361E+02 -0.48502653064E+02 -0.93619112244E+02  0.11022016138E+03  0.00000000000E+00 0. -1.
        -12    1    4    4    0    0 -0.16672885941E+02  0.15260106607E+02  0.49212472596E+01  0.23131680740E+02  0.00000000000E+00 0.  1.
</event>
<event>
12    1  0.8113184E-002  0.2306149E+03  0.7818608E-02  0.1126394E+00
         21   -1    0    0  503  502  0.00000000000E+00  0.00000000000E+00  0.39374795570E+03  0.39374795570E+03  0.00000000000E+00 0. -1.
         21   -1    0    0  501  503 -0.00000000000E+00 -0.00000000000E+00 -0.17323895541E+03  0.17323895541E+03  0.00000000000E+00 0.  1.
          6    2    1    2  501    0  0.10540753488E+03 -0.10984573349E+03 -0.23692998476E+02  0.23182878327E+03  0.17322353478E+03 0.  0.
         24    2    3    3    0    0  0.15554082764E+02 -0.51315373346E+02 -0.38128587677E+01  0.12266488874E+03  0.11025851443E+03 0.  0.
         -6    2    1    2    0  502 -0.10540753488E+03  0.10984573349E+03  0.24420199877E+03  0.33515812784E+03  0.17181245844E+03 0.  0.
        -24    2    5    5    0    0  0.23761048110E+00  0.42358932034E+02  0.47983896589E+02  0.10226545141E+03  0.79758589744E+02 0.  0.
          5    1    3    3  501    0  0.89853452113E+02 -0.58530360148E+02 -0.19880139709E+02  0.10916389454E+03  0.47000000000E+01 0. -1.
        -11    1    4    4    0    0 -0.18408466376E+02 -0.57616011696E+02 -0.40096343227E+02  0.72568541244E+02  0.00000000000E+00 0.  1.
         12    1    4    4    0    0  0.33962549140E+02  0.63006383509E+01  0.36283484459E+02  0.50096347494E+02  0.00000000000E+00 0. -1.
         -5    1    5    5    0  502 -0.10564514536E+03  0.67486801460E+02  0.19621810219E+03  0.23289267643E+03  0.47000000000E+01 0.  1.
         11    1    6    6    0    0 -0.36242410915E+02  0.11881505290E+02  0.37703522855E+02  0.53630571063E+02  0.00000000000E+00 0. -1.
        -12    1    6    6    0    0  0.36480021396E+02  0.30477426744E+02  0.10280373734E+02  0.48634880345E+02  0.00000000000E+00 0.  1.
</event>
<event>
12    1  0.8113184E-002  0.2365582E+03  0.7818608E-02  0.1122257E+00
         21   -1    0    0  503  502  0.00000000000E+00  0.00000000000E+00  0.10155115834E+04  0.10155115834E+04  0.00000000000E+00 0. -1.
         21   -1    0    0  501  503 -0.00000000000E+00 -0.00000000000E+00 -0.15749322714E+03  0.15749322714E+03  0.00000000000E+00 0. -1.
          6    2    1    2  501    0 -0.16132107176E+03 -0.12116360704E+02 -0.44635524166E+02  0.23986826974E+03  0.17138600415E+03 0.  0.
         24    2    3    3    0    0 -0.16046964947E+03 -0.17592761114E+02  0.16164936314E+02  0.17863509347E+03  0.74760803945E+02 0.  0.
         -6    2    1    2    0  502  0.16132107176E+03  0.12116360704E+02  0.90265388046E+03  0.93313654084E+03  0.17259339951E+03 0.  0.
        -24    2    5    5    0    0  0.11713710554E+02  0.32534708318E+02  0.25626592405E+03  0.26933028022E+03  0.75305097801E+02 0.  0.
          5    1    3    3  501    0 -0.85142228504E+00  0.54764004108E+01 -0.60800460480E+02  0.61233176269E+02  0.47000000000E+01 0. -1.
        -11    1    4    4    0    0 -0.16726409595E+03 -0.14836850385E+02  0.86614807113E+01  0.16814407860E+03  0.00000000000E+00 0.  1.
         12    1    4    4    0    0  0.67944464738E+01 -0.27559107299E+01  0.75034556031E+01  0.10491014862E+02  0.00000000000E+00 0. -1.
         -5    1    5    5    0  502  0.14960736120E+03 -0.20418347614E+02  0.64638795641E+03  0.66380626062E+03  0.47000000000E+01 0.  1.
         11    1    6    6    0    0  0.26747777699E+02 -0.15100568229E+02  0.12914331854E+03  0.13274587563E+03  0.00000000000E+00 0. -1.
        -12    1    6    6    0    0 -0.15034067145E+02  0.47635276546E+02  0.12712260551E+03  0.13658440459E+03  0.00000000000E+00 0.  1.
</event>
<event>
12    1  0.8113184E-002  0.2180350E+03  0.7818608E-02  0.1135980E+00
         21   -1    0    0  501  502  0.00000000000E+00  0.00000000000E+00  0.11317599051E+03  0.11317599051E+03  0.00000000000E+00 0.  1.
         21   -1    0    0  502  503 -0.00000000000E+00 -0.00000000000E+00 -0.41377685688E+03  0.41377685688E+03  0.00000000000E+00 0.  1.
         -6    2    1    2    0  503  0.42161412143E+01  0.12910894955E+03 -0.15324675076E+03  0.26650294362E+03  0.17564838638E+03 0.  0.
        -24    2    3    3    0    0 -0.27817917981E+02  0.55292893112E+02 -0.15773735471E+03  0.18577347774E+03  0.76154916922E+02 0.  0.
          6    2    1    2  501    0 -0.42161412143E+01 -0.12910894955E+03 -0.14735411561E+03  0.26044990377E+03  0.17156345847E+03 0.  0.
         24    2    5    5    0    0 -0.42760662782E+02 -0.14422772088E+03 -0.13768018113E+03  0.21767219465E+03  0.76126488788E+02 0.  0.
          5    1    5    5  501    0  0.38544521568E+02  0.15118771322E+02 -0.96739344840E+01  0.42777709121E+02  0.47000000000E+01 0. -1.
        -13    1    6    6    0    0 -0.91136985688E+01 -0.24106214047E+02  0.69350454157E+01  0.26688272934E+02  0.00000000000E+00 0.  1.
         14    1    6    6    0    0 -0.33646964214E+02 -0.12012150683E+03 -0.14461522654E+03  0.19098392171E+03  0.00000000000E+00 0. -1.
         -5    1    3    3    0  503  0.32034059196E+02  0.73816056443E+02  0.44906039491E+01  0.80729465879E+02  0.47000000000E+01 0.  1.
         11    1    4    4    0    0 -0.24040690112E+02 -0.37114526019E+01 -0.10078814470E+03  0.10368210923E+03  0.00000000000E+00 0. -1.
        -12    1    4    4    0    0 -0.37772278696E+01  0.59004345714E+02 -0.56949210002E+02  0.82091368507E+02  0.00000000000E+00 0.  1.
</event>
<event>
12    1  0.8113184E-002  0.2030405E+03  0.7818608E-02  0.1147458E+00
         21   -1    0    0  501  502  0.00000000000E+00  0.00000000000E+00  0.56897989179E+03  0.56897989179E+03  0.00000000000E+00 0. -1.
         21   -1    0    0  502  503 -0.00000000000E+00 -0.00000000000E+00 -0.75100519317E+02  0.75100519317E+02  0.00000000000E+00 0.  1.
         -6    2    1    2    0  503  0.10309547802E+02 -0.10563565384E+03  0.18088045178E+03  0.27099358155E+03  0.17162344032E+03 0.  0.
        -24    2    3    3    0    0 -0.29400270597E+02  0.40854033224E+00  0.58154381433E+02  0.10394263382E+03  0.80978986346E+02 0.  0.
          6    2    1    2  501    0 -0.10309547802E+02  0.10563565384E+03  0.31299892070E+03  0.37308682956E+03  0.17309038070E+03 0.  0.
         24    2    5    5    0    0  0.46754373671E+02  0.10755338330E+03  0.24973643027E+03  0.28773929582E+03  0.81681797463E+02 0.  0.
          5    1    5    5  501    0 -0.57063921473E+02 -0.19177294585E+01  0.63262490433E+02  0.85347533742E+02  0.47000000000E+01 0. -1.
        -11    1    6    6    0    0  0.36473769582E+02  0.75465803453E+02  0.84193845482E+02  0.11880247041E+03  0.00000000000E+00 0.  1.
         12    1    6    6    0    0  0.10280604088E+02  0.32087579850E+02  0.16554258479E+03  0.16893682541E+03  0.00000000000E+00 0. -1.
         -5    1    3    3    0  503  0.39709818399E+02 -0.10604419418E+03  0.12272607034E+03  0.16705094773E+03  0.47000000000E+01 0.  1.
         11    1    4    4    0    0 -0.10035460923E+02  0.40037928199E+02  0.35049213145E+02  0.54149732340E+02  0.00000000000E+00 0. -1.
        -12    1    4    4    0    0 -0.19364809674E+02 -0.39629387866E+02  0.23105168287E+02  0.49792901482E+02  0.00000000000E+00 0.  1.
</event>
<event>
12    1  0.8113184E-002  0.1881814E+03  0.7818608E-02  0.1162754E+00
         21   -1    0    0  503  502  0.00000000000E+00  0.00000000000E+00  0.15890261909E+03  0.15890261909E+03  0.00000000000E+00 0.  1.
         21   -1    0    0  501  503 -0.00000000000E+00 -0.00000000000E+00 -0.46891736993E+03  0.46891736993E+03  0.00000000000E+00 0.  1.
          6    2    1    2  501    0 -0.17126728699E+02 -0.42316686837E+02 -0.38618465500E+03  0.42480747683E+03  0.17099350220E+03 0.  0.
         24    2    3    3    0    0 -0.36521954649E+01 -0.89077644677E+02 -0.30570613442E+03  0.33064255503E+03  0.88994905806E+02 0.  0.
         -6    2    1    2    0  502  0.17126728699E+02  0.42316686837E+02  0.76169904154E+02  0.20301251219E+03  0.18256012430E+03 0.  0.
        -24    2    5    5    0    0  0.11150149232E+02 -0.34328222782E+02 -0.65047412725E+01  0.90019819198E+02  0.82210117882E+02 0.  0.
          5    1    3    3  501    0 -0.13474533234E+02  0.46760957839E+02 -0.80478520581E+02  0.94164921807E+02  0.47000000000E+01 0. -1.
        -13    1    4    4    0    0  0.18676585436E+01 -0.93847161968E+02 -0.16564691089E+03  0.19039347952E+03  0.00000000000E+00 0.  1.
         14    1    4    4    0    0 -0.55198540085E+01  0.47695172907E+01 -0.14005922353E+03  0.14024907550E+03  0.00000000000E+00 0. -1.
         -5    1    5    5    0  502  0.59765794668E+01  0.76644909619E+02  0.82674645426E+02  0.11299269299E+03  0.47000000000E+01 0.  1.
         11    1    6    6    0    0  0.14114763302E+01 -0.51249059137E+02  0.21737520900E+02  0.55686426917E+02  0.00000000000E+00 0. -1.
        -12    1    6    6    0    0  0.97386729019E+01  0.16920836356E+02 -0.28242262173E+02  0.34333392281E+02  0.00000000000E+00 0.  1.
</event>
<event>
12    1  0.8113184E-002  0.1743127E+03  0.7818608E-02  0.1174355E+00
         21   -1    0    0  503  502  0.00000000000E+00  0.00000000000E+00  0.19548887644E+03  0.19548887644E+03  0.00000000000E+00 0. -1.
         21   -1    0    0  501  503 -0.00000000000E+00 -0.00000000000E+00 -0.15749957870E+03  0.15749957870E+03  0.00000000000E+00 0. -1.
          6    2    1    2  501    0 -0.39689715746E+01 -0.24608325098E+02 -0.13596324239E+02  0.17120286861E+03  0.16883198687E+03 0.  0.
         24    2    3    3    0    0  0.41782731997E+02  0.95215922294E+01  0.33616447383E+02  0.96978846621E+02  0.80239477475E+02 0.  0.
         -6    2    1    2    0  502  0.39689715746E+01  0.24608325098E+02  0.51585621978E+02  0.18178558652E+03  0.17252130498E+03 0.  0.
        -24    2    5    5    0    0  0.44967392161E+02  0.38368436266E+02 -0.15317898609E+02  0.10198344233E+03  0.81680972280E+02 0.  0.
          5    1    3    3  501    0 -0.45751703572E+02 -0.34129917327E+02 -0.47212771623E+02  0.74224021993E+02  0.47000000000E+01 0. -1.
        -11    1    4    4    0    0  0.12475525963E+02 -0.18420065363E+02 -0.19914203139E+02  0.29858215665E+02  0.00000000000E+00 0.  1.
         12    1    4    4    0    0  0.29307206035E+02  0.27941657593E+02  0.53530650522E+02  0.67120630956E+02  0.00000000000E+00 0. -1.
         -5    1    5    5    0  502 -0.40998420587E+02 -0.13760111169E+02  0.66903520587E+02  0.79802144187E+02  0.47000000000E+01 0.  1.
         11    1    6    6    0    0  0.23698021461E+02 -0.17689667737E+02  0.16752554970E+02  0.33987772270E+02  0.00000000000E+00 0. -1.
        -12    1    6    6    0    0  0.21269370700E+02  0.56058104003E+02 -0.32070453579E+02  0.67995670062E+02  0.00000000000E+00 0.  1.
</event>
<event>
12    1  0.8113184E-002  0.1871802E+03  0.7818608E-02  0.1165216E+00
         21   -1    0    0  501  502  0.00000000000E+00  0.00000000000E+00  0.49818617736E+02  0.49818617736E+02  0.00000000000E+00 0. -1.
         21   -1    0    0  502  503 -0.00000000000E+00 -0.00000000000E+00 -0.65304851585E+03  0.65304851585E+03  0.00000000000E+00 0. -1.
         -6    2    1    2    0  503 -0.58681211654E+00 -0.20435696211E+02 -0.23733949308E+03  0.29187782234E+03  0.16865546588E+03 0.  0.
        -24    2    3    3    0    0 -0.71693482458E+01  0.51150691174E+02 -0.11977336799E+03  0.15399444985E+03  0.81858647329E+02 0.  0.
          6    2    1    2  501    0  0.58681211654E+00  0.20435696211E+02 -0.36589040504E+03  0.41098931125E+03  0.18606037578E+03 0.  0.
         24    2    5    5    0    0 -0.39271194110E+02  0.47842507038E+02 -0.15296624275E+03  0.19258925900E+03  0.99301657048E+02 0.  0.
          5    1    5    5  501    0  0.39858006226E+02 -0.27406810827E+02 -0.21292416229E+03  0.21840005226E+03  0.47000000000E+01 0. -1.
        -11    1    6    6    0    0 -0.36326468216E+02  0.63166079730E+02 -0.15974296993E+03  0.17557728316E+03  0.00000000000E+00 0.  1.
         12    1    6    6    0    0 -0.29447258939E+01 -0.15323572692E+02  0.67767271730E+01  0.17011975835E+02  0.00000000000E+00 0. -1.
         -5    1    3    3    0  503  0.65825361293E+01 -0.71586387385E+02 -0.11756612509E+03  0.13788337249E+03  0.47000000000E+01 0.  1.
         13    1    4    4    0    0 -0.59488263464E+01  0.21578119402E+02  0.72814808450E+01  0.23537708791E+02  0.00000000000E+00 0. -1.
        -14    1    4    4    0    0 -0.12205218994E+01  0.29572571771E+02 -0.12705484883E+03  0.13045674105E+03  0.00000000000E+00 0.  1.
</event>
<event>
12    1  0.8113184E-002  0.2637042E+03  0.7818608E-02  0.1105100E+00
         21   -1    0    0  501  502  0.00000000000E+00  0.00000000000E+00  0.52225069811E+03  0.52225069811E+03  0.00000000000E+00 0.  1.
         21   -1    0    0  502  503 -0.00000000000E+00 -0.00000000000E+00 -0.15141146720E+03  0.15141146720E+03  0.00000000000E+00 0. -1.
         -6    2    1    2    0  503  0.12763879705E+03  0.15310024639E+03  0.67032734959E+02  0.27209057336E+03  0.17265151200E+03 0.  0.
        -24    2    3    3    0    0  0.15423952929E+03  0.10337331800E+03  0.72482901705E+02  0.21523847859E+03  0.81227805296E+02 0.  0.
          6    2    1    2  501    0 -0.12763879705E+03 -0.15310024639E+03  0.30380649594E+03  0.40157159195E+03  0.17096785817E+03 0.  0.
         24    2    5    5    0    0  0.50735255078E+01 -0.43055322412E+02  0.11272665558E+03  0.14416910314E+03  0.78726932955E+02 0.  0.
          5    1    5    5  501    0 -0.13271232256E+03 -0.11004492398E+03  0.19107984036E+03  0.25740248881E+03  0.47000000000E+01 0. -1.
        -11    1    6    6    0    0  0.41325067354E+01 -0.57562863040E+02  0.11573256258E+03  0.12932357424E+03  0.00000000000E+00 0.  1.
         12    1    6    6    0    0  0.94101877239E+00  0.14507540628E+02 -0.30059069977E+01  0.14845528899E+02  0.00000000000E+00 0. -1.
         -5    1    3    3    0  503 -0.26600732241E+02  0.49726928387E+02 -0.54501667460E+01  0.56852094773E+02  0.47000000000E+01 0.  1.
         13    1    4    4    0    0  0.92458654653E+02  0.10614440848E+03  0.47995931352E+02  0.14872406563E+03  0.00000000000E+00 0. -1.
        -14    1    4    4    0    0  0.61780874640E+02 -0.27710904753E+01  0.24486970353E+02  0.66514412955E+02  0.00000000000E+00 0.  1.
</event>
<event>
12    1  0.8113184E-002  0.1773946E+03  0.7818608E-02  0.1170380E+00
         21   -1    0    0  503  502  0.00000000000E+00  0.00000000000E+00  0.29439803117E+03  0.29439803117E+03  0.00000000000E+00 0. -1.
         21   -1    0    0  501  503 -0.00000000000E+00 -0.00000000000E+00 -0.10695976427E+03  0.10695976427E+03  0.00000000000E+00 0. -1.
          6    2    1    2  501    0  0.33085850622E+02  0.28809922568E+02  0.10102891495E+03  0.20403716294E+03  0.17175458379E+03 0.  0.
         24    2    3    3    0    0  0.25678654043E+02  0.64765363885E+02  0.12201027445E+03  0.16149344698E+03  0.79622111957E+02 0.  0.
         -6    2    1    2    0  502 -0.33085850622E+02 -0.28809922568E+02  0.86409351943E+02  0.19732063250E+03  0.17188417832E+03 0.  0.
        -24    2    5    5    0    0 -0.44392328672E+02 -0.79632321931E+02  0.71078578467E+02  0.14284242274E+03  0.83903562953E+02 0.  0.
          5    1    3    3  501    0  0.74071965791E+01 -0.35955441318E+02 -0.20981359497E+02  0.42543715962E+02  0.47000000000E+01 0. -1.
        -13    1    4    4    0    0  0.51652199466E+02  0.40294093105E+02  0.54847987870E+02  0.85439249893E+02  0.00000000000E+00 0.  1.
         14    1    4    4    0    0 -0.25973545423E+02  0.24471270780E+02  0.67162286580E+02  0.76054197084E+02  0.00000000000E+00 0. -1.
         -5    1    5    5    0  502  0.11306478049E+02  0.50822399363E+02  0.15330773477E+02  0.54478209757E+02  0.47000000000E+01 0.  1.
         11    1    6    6    0    0  0.14571405578E+02 -0.95295717132E+01 -0.10370708147E+02  0.20265492469E+02  0.00000000000E+00 0. -1.
        -12    1    6    6    0    0 -0.58963734250E+02 -0.70102750218E+02  0.81449286613E+02  0.12257693027E+03  0.00000000000E+00 0.  1.
</event>
<event>
12    1  0.8113184E-002  0.1798760E+03  0.7818608E-02  0.1168568E+00
         21   -1    0    0  503  502  0.00000000000E+00  0.00000000000E+00  0.65169086791E+03  0.65169086791E+03  0.00000000000E+00 0. -1.
         21   -1    0    0  501  503 -0.00000000000E+00 -0.00000000000E+00 -0.49677772812E+02  0.49677772812E+02  0.00000000000E+00 0. -1.
          6    2    1    2  501    0 -0.47795454681E+02  0.11634134906E+02  0.25555079835E+03  0.31099508632E+03  0.17027029862E+03 0.  0.
         24    2    3    3    0    0  0.12195485316E+02  0.22985378966E+02  0.49689841456E+02  0.96219419176E+02  0.78179529125E+02 0.  0.
         -6    2    1    2    0  502  0.47795454681E+02 -0.11634134906E+02  0.34646229676E+03  0.39037355441E+03  0.17301916174E+03 0.  0.
        -24    2    5    5    0    0  0.85092045339E+02  0.15418860357E+02  0.16426981613E+03  0.20238661278E+03  0.80606272130E+02 0.  0.
          5    1    3    3  501    0 -0.59990939997E+02 -0.11351244060E+02  0.20586095689E+03  0.21477566714E+03  0.47000000000E+01 0. -1.
        -13    1    4    4    0    0 -0.27267695385E+02  0.25863608271E+01 -0.27089826446E+01  0.27523718152E+02  0.00000000000E+00 0.  1.
         14    1    4    4    0    0  0.39463180701E+02  0.20399018138E+02  0.52398824101E+02  0.68695701024E+02  0.00000000000E+00 0. -1.
         -5    1    5    5    0  502 -0.37296590658E+02 -0.27052995263E+02  0.18219248062E+03  0.18798694163E+03  0.47000000000E+01 0.  1.
         11    1    6    6    0    0  0.49659596342E+02 -0.30388032624E+02  0.63409143833E+02  0.86082678614E+02  0.00000000000E+00 0. -1.
        -12    1    6    6    0    0  0.35432448997E+02  0.45806892981E+02  0.10086067230E+03  0.11630393417E+03  0.00000000000E+00 0.  1.
</event>
<event>
12    1  0.8113184E-002  0.1782911E+03  0.7818608E-02  0.1170614E+00
         21   -1    0    0  501  502  0.00000000000E+00  0.00000000000E+00  0.26830530910E+02  0.26830530910E+02  0.00000000000E+00 0.  1.
         21   -1    0    0  502  503 -0.00000000000E+00 -0.00000000000E+00 -0.12914806042E+04  0.12914806042E+04  0.00000000000E+00 0.  1.
         -6    2    1    2    0  503  0.32289464855E+02  0.26920227554E+02 -0.85455926833E+03  0.87296005961E+03  0.17326400202E+03 0.  0.
        -24    2    3    3    0    0 -0.34386405500E+02 -0.24758508391E+02 -0.55384063197E+03  0.56059784728E+03  0.75730391108E+02 0.  0.
          6    2    1    2  501    0 -0.32289464855E+02 -0.26920227554E+02 -0.41009080494E+03  0.44535107548E+03  0.16851054549E+03 0.  0.
         24    2    5    5    0    0 -0.62896385172E+02  0.19944964934E+02 -0.13737941272E+03  0.16691486504E+03  0.68071376048E+02 0.  0.
          5    1    5    5  501    0  0.30606920317E+02 -0.46865192488E+02 -0.27271139222E+03  0.27843621044E+03  0.47000000000E+01 0. -1.
        -11    1    6    6    0    0  0.50969669446E+01 -0.15396063165E+02 -0.12826340983E+02  0.20676867655E+02  0.00000000000E+00 0.  1.
         12    1    6    6    0    0 -0.67993352117E+02  0.35341028099E+02 -0.12455307174E+03  0.14623799739E+03  0.00000000000E+00 0. -1.
         -5    1    3    3    0  503  0.66675870355E+02  0.51678735945E+02 -0.30071863636E+03  0.31236221233E+03  0.47000000000E+01 0.  1.
         11    1    4    4    0    0 -0.13341258009E+02  0.23049781430E+02 -0.90945418511E+02  0.94764712511E+02  0.00000000000E+00 0. -1.
        -12    1    4    4    0    0 -0.21045147491E+02 -0.47808289821E+02 -0.46289521346E+03  0.46583313477E+03  0.00000000000E+00 0.  1.
</event>
<event>
12    1  0.8113184E-002  0.2283673E+03  0.7818608E-02  0.1127895E+00
         21   -1    0    0  501  502  0.00000000000E+00  0.00000000000E+00  0.17506390263E+04  0.17506390263E+04  0.00000000000E+00 0. -1.
         21   -1    0    0  502  503 -0.00000000000E+00 -0.00000000000E+00 -0.37328833282E+02  0.37328833282E+02  0.00000000000E+00 0.  1.
         -6    2    1    2    0  503  0.14801775992E+03 -0.28005900845E+02  0.45210327367E+03  0.50625239295E+03  0.17088161859E+03 0.  0.
        -24    2    3    3    0    0  0.42613309374E+02  0.16585551807E+02  0.27160603596E+03  0.29247718703E+03  0.98397619386E+02 0.  0.
          6    2    1    2  501    0 -0.14801775992E+03  0.28005900845E+02  0.12612069193E+04  0.12817154666E+04  0.17163349398E+03 0.  0.
         24    2    5    5    0    0 -0.13728399170E+03 -0.35473780501E+02  0.95132497302E+03  0.96518143310E+03  0.80316318550E+02 0.  0.
          5    1    5    5  501    0 -0.10733768217E+02  0.63479681346E+02  0.30988194631E+03  0.31653403351E+03  0.47000000000E+01 0. -1.
        -11    1    6    6    0    0 -0.30166097116E+02 -0.45064569690E+02  0.26628328202E+03  0.27174914009E+03  0.00000000000E+00 0.  1.
         12    1    6    6    0    0 -0.10711789459E+03  0.95907891889E+01  0.68504169100E+03  0.69343229301E+03  0.00000000000E+00 0. -1.
         -5    1    3    3    0  503  0.10540445055E+03 -0.44591452652E+02  0.18049723772E+03  0.21377520592E+03  0.47000000000E+01 0.  1.
         11    1    4    4    0    0  0.59924562440E+02 -0.16097717557E+02  0.10630154643E+03  0.12308577687E+03  0.00000000000E+00 0. -1.
        -12    1    4    4    0    0 -0.17311253066E+02  0.32683269365E+02  0.16530448952E+03  0.16939141016E+03  0.00000000000E+00 0.  1.
</event>
<event>
12    1  0.8113184E-002  0.1823120E+03  0.7818608E-02  0.1165812E+00
         21   -1    0    0  503  502  0.00000000000E+00  0.00000000000E+00  0.10211053269E+04  0.10211053269E+04  0.00000000000E+00 0.  1.
         21   -1    0    0  501  503 -0.00000000000E+00 -0.00000000000E+00 -0.59360440263E+02  0.59360440263E+02  0.00000000000E+00 0.  1.
          6    2    1    2  501    0  0.41286493048E+02 -0.42235699085E+02  0.11735066931E+03  0.21681524243E+03  0.17247968280E+03 0.  0.
         24    2    3    3    0    0  0.52292773297E+02 -0.62604639401E+02  0.19934035465E+02  0.11657491879E+03  0.80860811938E+02 0.  0.
         -6    2    1    2    0  502 -0.41286493048E+02  0.42235699085E+02  0.84439421736E+03  0.86365052476E+03  0.17147071420E+03 0.  0.
        -24    2    5    5    0    0 -0.44462119908E+02  0.91901697190E+02  0.55579787758E+03  0.57075680119E+03  0.80182562506E+02 0.  0.
          5    1    3    3  501    0 -0.11006280249E+02  0.20368940316E+02  0.97416633841E+02  0.10024032364E+03  0.47000000000E+01 0. -1.
        -11    1    4    4    0    0  0.18404222651E+02 -0.24121202827E+02 -0.31647637559E+02  0.43841998133E+02  0.00000000000E+00 0.  1.
         12    1    4    4    0    0  0.33888550646E+02 -0.38483436574E+02  0.51581673024E+02  0.72732920657E+02  0.00000000000E+00 0. -1.
         -5    1    5    5    0  502  0.31756268605E+01 -0.49665998105E+02  0.28859633978E+03  0.29289372357E+03  0.47000000000E+01 0.  1.
         11    1    6    6    0    0  0.12780839799E+02  0.59721449207E+02  0.32998747614E+03  0.33559162053E+03  0.00000000000E+00 0. -1.
        -12    1    6    6    0    0 -0.57242959707E+02  0.32180247983E+02  0.22581040144E+03  0.23516518066E+03  0.00000000000E+00 0.  1.
</event>
<event>
12    1  0.8113184E-002  0.1802681E+03  0.7818608E-02  0.1167686E+00
         21   -1    0    0  503  502  0.00000000000E+00  0.00000000000E+00  0.61695798956E+02  0.61695798956E+02  0.00000000000E+00 0. -1.
         21   -1    0    0  501  503 -0.00000000000E+00 -0.00000000000E+00 -0.57793092868E+03  0.57793092868E+03  0.00000000000E+00 0. -1.
          6    2    1    2  501    0  0.42978895834E+02 -0.31633462539E+02 -0.35527894791E+03  0.39839643327E+03  0.17218805351E+03 0.  0.
         24    2    3    3    0    0  0.94429810346E+02 -0.34785829731E+02 -0.25808496223E+03  0.28827879219E+03  0.79810846803E+02 0.  0.
         -6    2    1    2    0  502 -0.42978895834E+02  0.31633462539E+02 -0.16095618181E+03  0.24123029437E+03  0.17157301949E+03 0.  0.
        -24    2    5    5    0    0  0.15927613957E+02 -0.15195018604E+02 -0.29999303976E+02  0.90118820964E+02  0.82078414800E+02 0.  0.
          5    1    3    3  501    0 -0.51450914512E+02  0.31523671921E+01 -0.97193985681E+02  0.11011764107E+03  0.47000000000E+01 0. -1.
        -11    1    4    4    0    0  0.59914286303E+02 -0.29517801462E+02 -0.69129001444E+02  0.96124092438E+02  0.00000000000E+00 0.  1.
         12    1    4    4    0    0  0.34515524043E+02 -0.52680282688E+01 -0.18895596079E+03  0.19215469976E+03  0.00000000000E+00 0. -1.
         -5    1    5    5    0  502 -0.58906509791E+02  0.46828481143E+02 -0.13095687784E+03  0.15111147341E+03  0.47000000000E+01 0.  1.
         13    1    6    6    0    0  0.28324170619E+02  0.25573254466E+02 -0.27044387905E+00  0.38161801911E+02  0.00000000000E+00 0. -1.
        -14    1    6    6    0    0 -0.12396556662E+02 -0.40768273070E+02 -0.29728860097E+02  0.51957019052E+02  0.00000000000E+00 0.  1.
</event>
<event>
12    1  0.8113184E-002  0.1986658E+03  0.7818608E-02  0.1150998E+00
         21   -1    0    0  501  502  0.00000000000E+00  0.00000000000E+00  0.29459199421E+03  0.29459199421E+03  0.00000000000E+00 0. -1.
         21   -1    0    0  502  503 -0.00000000000E+00 -0.00000000000E+00 -0.18573386182E+03  0.18573386182E+03  0.00000000000E+00 0. -1.
         -6    2    1    2    0  503  0.45186015620E+02 -0.87733915439E+02 -0.72907216798E+02  0.21105507431E+03  0.17172584605E+03 0.  0.
        -24    2    3    3    0    0  0.86237229718E+02 -0.64274097321E+02 -0.88919209823E+02  0.16091487920E+03  0.80118369275E+02 0.  0.
          6    2    1    2  501    0 -0.45186015620E+02  0.87733915439E+02  0.18176534919E+03  0.26927078173E+03  0.17242127421E+03 0.  0.
         24    2    5    5    0    0 -0.43100228072E+02  0.17119934999E+02  0.17182843944E+03  0.19777590835E+03  0.86252973814E+02 0.  0.
          5    1    5    5  501    0 -0.20857875484E+01  0.70613980441E+02  0.99369097500E+01  0.71494873374E+02  0.47000000000E+01 0. -1.
        -13    1    6    6    0    0  0.55617929574E+01 -0.32995987230E+01 -0.80443524202E+01  0.10321458157E+02  0.00000000000E+00 0.  1.
         14    1    6    6    0    0 -0.48662021029E+02  0.20419533722E+02  0.17987279186E+03  0.18745445020E+03  0.00000000000E+00 0. -1.
         -5    1    3    3    0  503 -0.41051214098E+02 -0.23459818118E+02  0.16011993024E+02  0.50140195110E+02  0.47000000000E+01 0.  1.
         11    1    4    4    0    0  0.79084966828E+02 -0.33067302166E+02 -0.24780929188E+02  0.89229887942E+02  0.00000000000E+00 0. -1.
        -12    1    4    4    0    0  0.71522628896E+01 -0.31206795155E+02 -0.64138280635E+02  0.71684991254E+02  0.00000000000E+00 0.  1.
</event>
<event>
12    1  0.8113184E-002  0.1989258E+03  0.7818608E-02  0.1150894E+00
         21   -1    0    0  503  502  0.00000000000E+00  0.00000000000E+00  0.47284855644E+02  0.47284855644E+02  0.00000000000E+00 0. -1.
         21   -1    0    0  501  503 -0.00000000000E+00 -0.00000000000E+00 -0.12161619657E+04  0.12161619657E+04  0.00000000000E+00 0. -1.
          6    2    1    2  501    0  0.15883998596E+02 -0.98113175131E+02 -0.94062939196E+03  0.96143388273E+03  0.17231645686E+03 0.  0.
         24    2    3    3    0    0 -0.44553740472E+02 -0.10233987370E+03 -0.68052957904E+03  0.69432980570E+03  0.80714841292E+02 0.  0.
         -6    2    1    2    0  502 -0.15883998596E+02  0.98113175131E+02 -0.22824771813E+03  0.30201293864E+03  0.17098625012E+03 0.  0.
        -24    2    5    5    0    0 -0.36568615613E+02  0.62291506575E+02 -0.47748942978E+02  0.11677540694E+03  0.78352017662E+02 0.  0.
          5    1    3    3  501    0  0.60437739067E+02  0.42266985686E+01 -0.26009981292E+03  0.26710407703E+03  0.47000000000E+01 0. -1.
        -11    1    4    4    0    0 -0.27814844349E+02 -0.34263107843E+02 -0.96557696708E+02  0.10616503624E+03  0.00000000000E+00 0.  1.
         12    1    4    4    0    0 -0.16738896123E+02 -0.68076765857E+02 -0.58397188233E+03  0.58816476947E+03  0.00000000000E+00 0. -1.
         -5    1    5    5    0  502  0.20684617017E+02  0.35821668555E+02 -0.18049877515E+03  0.18523753170E+03  0.47000000000E+01 0.  1.
         13    1    6    6    0    0  0.65868662712E+01  0.38836389355E+02  0.10318820239E+02  0.40720142393E+02  0.00000000000E+00 0. -1.
        -14    1    6    6    0    0 -0.43155481884E+02  0.23455117220E+02 -0.58067763218E+02  0.76055264549E+02  0.00000000000E+00 0.  1.
</event>
<event>
12    1  0.8113184E-002  0.1973196E+03  0.7818608E-02  0.1152093E+00
         21   -1    0    0  503  502  0.00000000000E+00  0.00000000000E+00  0.41560046333E+03  0.41560046333E+03  0.00000000000E+00 0.  1.
         21   -1    0    0  501  503 -0.00000000000E+00 -0.00000000000E+00 -0.96745105517E+02  0.96745105517E+02  0.00000000000E+00 0.  1.
          6    2    1    2  501    0  0.20059931794E+02  0.94681596157E+02  0.11253951390E+03  0.22686135642E+03  0.17156318758E+03 0.  0.
         24    2    3    3    0    0 -0.40373162959E+01  0.88158506958E+02  0.14394500404E+03  0.18646800462E+03  0.79132359280E+02 0.  0.
         -6    2    1    2    0  502 -0.20059931794E+02 -0.94681596157E+02  0.20631584392E+03  0.28548421243E+03  0.17195348959E+03 0.  0.
        -24    2    5    5    0    0  0.19203613929E+02 -0.94624524181E+02  0.72568873000E+02  0.14601388759E+03  0.82044102028E+02 0.  0.
          5    1    3    3  501    0  0.24097248090E+02  0.65230891997E+01 -0.31405490147E+02  0.40393351799E+02  0.47000000000E+01 0. -1.
        -11    1    4    4    0    0  0.34544197384E+02  0.25799397773E+02  0.70800721918E+02  0.82895432458E+02  0.00000000000E+00 0.  1.
         12    1    4    4    0    0 -0.38581513680E+02  0.62359109184E+02  0.73144282125E+02  0.10357257216E+03  0.00000000000E+00 0. -1.
         -5    1    5    5    0  502 -0.39263545723E+02 -0.57071976068E-01  0.13374697092E+03  0.13947032484E+03  0.47000000000E+01 0.  1.
         11    1    6    6    0    0  0.45063666887E+02 -0.34994014917E+02  0.14531604898E+02  0.58876843447E+02  0.00000000000E+00 0. -1.
        -12    1    6    6    0    0 -0.25860052958E+02 -0.59630509265E+02  0.58037268102E+02  0.87137044148E+02  0.00000000000E+00 0.  1.
</event>
<event>
12    1  0.8113184E-002  0.1742537E+03  0.7818608E-02  0.1173538E+00
         21   -1    0    0  503  502  0.00000000000E+00  0.00000000000E+00  0.36745321116E+03  0.36745321116E+03  0.00000000000E+00 0. -1.
         21   -1    0    0  501  503 -0.00000000000E+00 -0.00000000000E+00 -0.84498549054E+02  0.84498549054E+02  0.00000000000E+00 0. -1.
          6    2    1    2  501    0  0.24617363126E+02  0.45727898083E+01  0.10690943141E+03  0.20424976617E+03  0.17222489798E+03 0.  0.
         24    2    3    3    0    0  0.77298680087E+02 -0.21086729665E+02  0.57514959778E+02  0.12746672166E+03  0.80746878711E+02 0.  0.
         -6    2    1    2    0  502 -0.24617363126E+02 -0.45727898083E+01  0.17604523069E+03  0.24770199404E+03  0.17244543957E+03 0.  0.
        -24    2    5    5    0    0 -0.35573767103E+02  0.46368363298E+02  0.44879255487E+02  0.10648709780E+03  0.76875460354E+02 0.  0.
          5    1    3    3  501    0 -0.52681316961E+02  0.25659519474E+02  0.49394471634E+02  0.76783044511E+02  0.47000000000E+01 0. -1.
        -11    1    4    4    0    0  0.30596253916E+02  0.31135615155E+02  0.23755339059E+02  0.49697821065E+02  0.00000000000E+00 0.  1.
         12    1    4    4    0    0  0.46702426171E+02 -0.52222344821E+02  0.33759620719E+02  0.77768900596E+02  0.00000000000E+00 0. -1.
         -5    1    5    5    0  502  0.10956403976E+02 -0.50941153107E+02  0.13116597521E+03  0.14121489624E+03  0.47000000000E+01 0.  1.
         11    1    6    6    0    0 -0.54482428393E+02  0.51691416713E+02  0.43510708984E+02  0.86795848758E+02  0.00000000000E+00 0. -1.
        -12    1    6    6    0    0  0.18908661290E+02 -0.53230534145E+01  0.13685465027E+01  0.19691249045E+02  0.00000000000E+00 0.  1.
</event>
<event>
12    1  0.8113184E-002  0.2165214E+03  0.7818608E-02  0.1137054E+00
         21   -1    0    0  501  502  0.00000000000E+00  0.00000000000E+00  0.29931327756E+03  0.29931327756E+03  0.00000000000E+00 0. -1.
         21   -1    0    0  502  503 -0.00000000000E+00 -0.00000000000E+00 -0.15470392387E+03  0.15470392387E+03  0.00000000000E+00 0.  1.
         -6    2    1    2    0  503  0.56790891981E+02 -0.11614512047E+03  0.64892099656E+02  0.22328712960E+03  0.17009192581E+03 0.  0.
        -24    2    3    3    0    0  0.31561016007E+02 -0.60234646702E+02 -0.29104269714E+02  0.11094864477E+03  0.82693608374E+02 0.  0.
          6    2    1    2  501    0 -0.56790891981E+02  0.11614512047E+03  0.79717254032E+02  0.23073007184E+03  0.17368543704E+03 0.  0.
         24    2    5    5    0    0 -0.21712729520E+02 -0.15234246090E+02  0.26044747148E+02  0.84463727683E+02  0.75843704834E+02 0.  0.
          5    1    5    5  501    0 -0.35078162461E+02  0.13137936656E+03  0.53672506884E+02  0.14626634416E+03  0.47000000000E+01 0. -1.
        -13    1    6    6    0    0 -0.20650495804E+02 -0.25185473458E+02 -0.19413996086E+02  0.37916411938E+02  0.00000000000E+00 0.  1.
         14    1    6    6    0    0 -0.10622337160E+01  0.99512273681E+01  0.45458743234E+02  0.46547315744E+02  0.00000000000E+00 0. -1.
         -5    1    3    3    0  503  0.25229875974E+02 -0.55910473764E+02  0.93996369370E+02  0.11233848483E+03  0.47000000000E+01 0.  1.
         11    1    4    4    0    0  0.28797792724E+02 -0.20511452792E+01  0.19704081775E+02  0.34953839579E+02  0.00000000000E+00 0. -1.
        -12    1    4    4    0    0  0.27632232828E+01 -0.58183501423E+02 -0.48808351489E+02  0.75994805190E+02  0.00000000000E+00 0.  1.
</event>
<event>
12    1  0.8113184E-002  0.1899740E+03  0.7818608E-02  0.1158547E+00
         21   -1    0    0  501  502  0.00000000000E+00  0.00000000000E+00  0.60147878269E+03  0.60147878269E+03  0.00000000000E+00 0. -1.
         21   -1    0    0  502  503 -0.00000000000E+00 -0.00000000000E+00 -0.24987815225E+03  0.24987815225E+03  0.00000000000E+00 0. -1.
         -6    2    1    2    0  503  0.60418258008E+02  0.50691236866E+02 -0.19532105224E+03  0.27247100985E+03  0.17282988853E+03 0.  0.
        -24    2    3    3    0    0  0.87128805949E+01  0.78363327931E+02 -0.17978960322E+03  0.21162278403E+03  0.79013769951E+02 0.  0.
          6    2    1    2  501    0 -0.60418258008E+02 -0.50691236866E+02  0.54692168268E+03  0.57888592510E+03  0.17252715698E+03 0.  0.
         24    2    5    5    0    0 -0.66437704438E+02  0.45997272559E+01  0.48395544662E+03  0.49474223055E+03  0.78242407393E+02 0.  0.
          5    1    5    5  501    0  0.60194464302E+01 -0.55290964122E+02  0.62966236059E+02  0.84143694549E+02  0.47000000000E+01 0. -1.
        -13    1    6    6    0    0  0.57045975483E+01  0.23431028199E+02  0.67816143703E+02  0.71976279860E+02  0.00000000000E+00 0.  1.
         14    1    6    6    0    0 -0.72142301986E+02 -0.18831300943E+02  0.41613930291E+03  0.42276595069E+03  0.00000000000E+00 0. -1.
         -5    1    3    3    0  503  0.51705377413E+02 -0.27672091064E+02 -0.15531449017E+02  0.60848225823E+02  0.47000000000E+01 0.  1.
         13    1    4    4    0    0  0.17527349808E+02  0.13147804654E+02 -0.12227688389E+03  0.12422443033E+03  0.00000000000E+00 0. -1.
        -14    1    4    4    0    0 -0.88144692131E+01  0.65215523277E+02 -0.57512719333E+02  0.87398353696E+02  0.00000000000E+00 0.  1.
</event>
<event>
12    1  0.8113184E-002  0.1788044E+03  0.7818608E-02  0.1169054E+00
         21   -1    0    0  503  502  0.00000000000E+00  0.00000000000E+00  0.89097730337E+02  0.89097730337E+02  0.00000000000E+00 0.  1.
         21   -1    0    0  501  503 -0.00000000000E+00 -0.00000000000E+00 -0.39920483316E+03  0.39920483316E+03  0.00000000000E+00 0. -1.
          6    2    1    2  501    0 -0.39278134976E+02 -0.20170372103E+02 -0.23325256881E+03  0.29368077175E+03  0.17289308558E+03 0.  0.
         24    2    3    3    0    0 -0.68927847271E+02  0.51979136880E+01 -0.72728496790E+02  0.12841515808E+03  0.80143322515E+02 0.  0.
         -6    2    1    2    0  502  0.39278134976E+02  0.20170372103E+02 -0.76854534015E+02  0.19462179175E+03  0.17326686535E+03 0.  0.
        -24    2    5    5    0    0  0.38989451051E+02 -0.36383118229E+02 -0.93055896381E+02  0.13560522840E+03  0.82978729400E+02 0.  0.
          5    1    3    3  501    0  0.29649712295E+02 -0.25368285791E+02 -0.16052407202E+03  0.16526561367E+03  0.47000000000E+01 0. -1.
        -13    1    4    4    0    0 -0.23259982043E+02 -0.11503817002E+02  0.13627431409E+02  0.29309920795E+02  0.00000000000E+00 0.  1.
         14    1    4    4    0    0 -0.45667865228E+02  0.16701730690E+02 -0.86355928198E+02  0.99105237286E+02  0.00000000000E+00 0. -1.
         -5    1    5    5    0  502  0.28868392565E+00  0.56553490331E+02  0.16201362366E+02  0.59016563350E+02  0.47000000000E+01 0.  1.
         13    1    6    6    0    0 -0.12508336854E+02 -0.34791952338E+02 -0.69990395945E+02  0.79155504944E+02  0.00000000000E+00 0. -1.
        -14    1    6    6    0    0  0.51497787904E+02 -0.15911658912E+01 -0.23065500436E+02  0.56449723456E+02  0.00000000000E+00 0.  1.
</event>
<event>
12    1  0.8113184E-002  0.1735434E+03  0.7818608E-02  0.1174770E+00
         21   -1    0    0  503  502  0.00000000000E+00  0.00000000000E+00  0.64033722119E+02  0.64033722119E+02  0.00000000000E+00 0. -1.
         21   -1    0    0  501  503 -0.00000000000E+00 -0.00000000000E+00 -0.61094090246E+03  0.61094090246E+03  0.00000000000E+00 0.  1.
          6    2    1    2  501    0  0.21561529994E+02 -0.31816449395E+01 -0.43743540133E+03  0.46978843916E+03  0.16993064700E+03 0.  0.
         24    2    3    3    0    0  0.58223671820E+01 -0.67964703674E+02 -0.27798743131E+03  0.29690029299E+03  0.78864891438E+02 0.  0.
         -6    2    1    2    0  502 -0.21561529994E+02  0.31816449395E+01 -0.10947177901E+03  0.20518618542E+03  0.17216932899E+03 0.  0.
        -24    2    5    5    0    0  0.15641528278E+02 -0.52090129633E+02 -0.30539592386E+02  0.10178687839E+03  0.80435457956E+02 0.  0.
          5    1    3    3  501    0  0.15739162812E+02  0.64783058734E+02 -0.15944797002E+03  0.17288814618E+03  0.47000000000E+01 0. -1.
        -11    1    4    4    0    0  0.36201477163E+02 -0.33918792058E+02 -0.83439374482E+02  0.97072965430E+02  0.00000000000E+00 0.  1.
         12    1    4    4    0    0 -0.30379109981E+02 -0.34045911615E+02 -0.19454805683E+03  0.19982732756E+03  0.00000000000E+00 0. -1.
         -5    1    5    5    0  502 -0.37203058272E+02  0.55271774573E+02 -0.78932186621E+02  0.10339930703E+03  0.47000000000E+01 0.  1.
         11    1    6    6    0    0 -0.20068639745E+01  0.19200466796E+02  0.53662098756E+01  0.20037006678E+02  0.00000000000E+00 0. -1.
        -12    1    6    6    0    0  0.17648392252E+02 -0.71290596429E+02 -0.35905802261E+02  0.81749871709E+02  0.00000000000E+00 0.  1.
</event>
<event>
12    1  0.8113184E-002  0.2026491E+03  0.7818608E-02  0.1147883E+00
         21   -1    0    0  503  502  0.00000000000E+00  0.00000000000E+00  0.71860294820E+02  0.71860294820E+02  0.00000000000E+00 0. -1.
         21   -1    0    0  501  503 -0.00000000000E+00 -0.00000000000E+00 -0.57989903743E+03  0.57989903743E+03  0.00000000000E+00 0.  1.
          6    2    1    2  501    0 -0.32032332637E+02  0.97139447503E+02 -0.30227797131E+03  0.36296153570E+03  0.17293629423E+03 0.  0.
         24    2    3    3    0    0  0.17908416624E+02  0.24329793964E+01 -0.19990036677E+03  0.21475000629E+03  0.76359529805E+02 0.  0.
         -6    2    1    2    0  502  0.32032332637E+02 -0.97139447503E+02 -0.20576077130E+03  0.28879779655E+03  0.17494150363E+03 0.  0.
        -24    2    5    5    0    0  0.81802356286E+02 -0.30068456093E+02 -0.13225534978E+03  0.17743932074E+03  0.79984357549E+02 0.  0.
          5    1    3    3  501    0 -0.49940749262E+02  0.94706468107E+02 -0.10237760455E+03  0.14821152941E+03  0.47000000000E+01 0. -1.
        -11    1    4    4    0    0  0.23991086139E+02  0.35383040231E+02 -0.13653414319E+03  0.14307027646E+03  0.00000000000E+00 0.  1.
         12    1    4    4    0    0 -0.60826695149E+01 -0.32950060835E+02 -0.63366223573E+02  0.71679729822E+02  0.00000000000E+00 0. -1.
         -5    1    5    5    0  502 -0.49770023649E+02 -0.67070991410E+02 -0.73505421514E+02  0.11135847581E+03  0.47000000000E+01 0.  1.
         13    1    6    6    0    0  0.74927495612E+02 -0.44104494382E+02 -0.65438322618E+02  0.10881870285E+03  0.00000000000E+00 0. -1.
        -14    1    6    6    0    0  0.68748606748E+01  0.14036038289E+02 -0.66817027164E+02  0.68620617887E+02  0.00000000000E+00 0.  1.
</event>
<event>
12    1  0.8113184E-002  0.1863601E+03  0.7818608E-02  0.1161893E+00
         21   -1    0    0  501  502  0.00000000000E+00  0.00000000000E+00  0.64523214801E+02  0.64523214801E+02  0.00000000000E+00 0. -1.
         21   -1    0    0  502  503 -0.00000000000E+00 -0.00000000000E+00 -0.74498620717E+03  0.74498620717E+03  0.00000000000E+00 0. -1.
         -6    2    1    2    0  503  0.55331350680E+02 -0.46464394387E+02 -0.55382868553E+03  0.58419554829E+03  0.17128259518E+03 0.  0.
        -24    2    3    3    0    0  0.52915413911E+02 -0.13741543589E+01 -0.14673292883E+03  0.17457619862E+03  0.78386015293E+02 0.  0.
          6    2    1    2  501    0 -0.55331350680E+02  0.46464394387E+02 -0.12663430683E+03  0.22531387368E+03  0.17178357224E+03 0.  0.
         24    2    5    5    0    0 -0.86806376740E+02  0.67438639944E+02 -0.12874828917E+03  0.18714117187E+03  0.79764522459E+02 0.  0.
          5    1    5    5  501    0  0.31475026060E+02 -0.20974245557E+02  0.21139823372E+01  0.38172701810E+02  0.47000000000E+01 0. -1.
        -13    1    6    6    0    0 -0.23189597875E+02 -0.91276050312E+01 -0.63241802990E+02  0.67974967956E+02  0.00000000000E+00 0.  1.
         14    1    6    6    0    0 -0.63616778865E+02  0.76566244975E+02 -0.65506486180E+02  0.11916620391E+03  0.00000000000E+00 0. -1.
         -5    1    3    3    0  503  0.24159367690E+01 -0.45090240028E+02 -0.40709575671E+03  0.40961934967E+03  0.47000000000E+01 0.  1.
         11    1    4    4    0    0  0.19775072836E+02 -0.19625615560E+02 -0.13044182892E+03  0.13338399088E+03  0.00000000000E+00 0. -1.
        -12    1    4    4    0    0  0.33140341075E+02  0.18251461201E+02 -0.16291099913E+02  0.41192207745E+02  0.00000000000E+00 0.  1.
</event>
<event>
12    1  0.8113184E-002  0.2159714E+03  0.7818608E-02  0.1138741E+00
         21   -1    0    0  503  502  0.00000000000E+00  0.00000000000E+00  0.64238573675E+02  0.64238573675E+02  0.00000000000E+00 0.  1.
         21   -1    0    0  501  503 -0.00000000000E+00 -0.00000000000E+00 -0.72793285770E+03  0.72793285770E+03  0.00000000000E+00 0.  1.
          6    2    1    2  501    0  0.12754091952E+03  0.52619106724E+02 -0.40888935224E+03  0.45815168331E+03  0.15387334403E+03 0.  0.
         24    2    3    3    0    0  0.44398962273E+02  0.21642789664E+01 -0.28036691187E+03  0.29691154446E+03  0.87033947441E+02 0.  0.
         -6    2    1    2    0  502 -0.12754091952E+03 -0.52619106724E+02 -0.25480493179E+03  0.33401974807E+03  0.16615710123E+03 0.  0.
        -24    2    5    5    0    0 -0.28022322087E+02 -0.68315255654E+01 -0.18726474509E+03  0.20524001114E+03  0.78888891118E+02 0.  0.
          5    1    3    3  501    0  0.83141957249E+02  0.50454827757E+02 -0.12852244037E+03  0.16124013885E+03  0.47000000000E+01 0. -1.
        -11    1    4    4    0    0  0.50554586210E+02  0.32768472889E+02 -0.12921209239E+03  0.14256683984E+03  0.00000000000E+00 0.  1.
         12    1    4    4    0    0 -0.61556239371E+01 -0.30604193923E+02 -0.15115481948E+03  0.15434470462E+03  0.00000000000E+00 0. -1.
         -5    1    5    5    0  502 -0.99518597435E+02 -0.45787581158E+02 -0.67540186700E+02  0.12877973693E+03  0.47000000000E+01 0.  1.
         13    1    6    6    0    0  0.17542065598E+02 -0.18275854275E+02 -0.12330594894E+03  0.12588124546E+03  0.00000000000E+00 0. -1.
        -14    1    6    6    0    0 -0.45564387685E+02  0.11444328710E+02 -0.63958796146E+02  0.79358765674E+02  0.00000000000E+00 0.  1.
</event>
<event>
12    1  0.8113184E-002  0.2100166E+03  0.7818608E-02  0.1142244E+00
         21   -1    0    0  503  502  0.00000000000E+00  0.00000000000E+00  0.35402402668E+03  0.35402402668E+03  0.00000000000E+00 0.  1.
         21   -1    0    0  501  503 -0.00000000000E+00 -0.00000000000E+00 -0.20227411156E+03  0.20227411156E+03  0.00000000000E+00 0.  1.
          6    2    1    2  501    0 -0.10211189644E+03 -0.61153931356E+02 -0.98371102635E+02  0.23191347623E+03  0.17303278275E+03 0.  0.
         24    2    3    3    0    0 -0.11344834533E+03 -0.77577063164E+01 -0.10788586077E+03  0.17630509067E+03  0.80705743150E+02 0.  0.
         -6    2    1    2    0  502  0.10211189644E+03  0.61153931356E+02  0.25012101775E+03  0.32438466200E+03  0.16881422542E+03 0.  0.
        -24    2    5    5    0    0  0.54814685933E+02  0.86528457643E+02  0.97127716467E+02  0.16218129291E+03  0.79857089148E+02 0.  0.
          5    1    3    3  501    0  0.11336448890E+02 -0.53396225039E+02  0.95147581320E+01  0.55608385556E+02  0.47000000000E+01 0. -1.
        -11    1    4    4    0    0  0.44965233411E+01 -0.13671736547E+02 -0.34210193918E+02  0.37114316244E+02  0.00000000000E+00 0.  1.
         12    1    4    4    0    0 -0.11794486868E+03  0.59140302307E+01 -0.73675666848E+02  0.13919077443E+03  0.00000000000E+00 0. -1.
         -5    1    5    5    0  502  0.47297210512E+02 -0.25374526287E+02  0.15299330129E+03  0.16220336909E+03  0.47000000000E+01 0.  1.
         11    1    6    6    0    0  0.11388892453E+02  0.85683339190E+02  0.63707114683E+02  0.10737754862E+03  0.00000000000E+00 0. -1.
        -12    1    6    6    0    0  0.43425793480E+02  0.84511845256E+00  0.33420601784E+02  0.54803744290E+02  0.00000000000E+00 0.  1.
</event>
<event>
12    1  0.8113184E-002  0.1838397E+03  0.7818608E-02  0.1164598E+00
         21   -1    0    0  503  502  0.00000000000E+00  0.00000000000E+00  0.61034918291E+02  0.61034918291E+02  0.00000000000E+00 0. -1.
         21   -1    0    0  501  503 -0.00000000000E+00 -0.00000000000E+00 -0.20039713649E+04  0.20039713649E+04  0.00000000000E+00 0. -1.
          6    2    1    2  501    0  0.14542453055E+02  0.62506942659E+02 -0.18529890877E+04  0.18620863559E+04  0.17227430782E+03 0.  0.
         24    2    3    3    0    0  0.52589527736E+02  0.32183443331E+02 -0.16569037991E+04  0.16600006689E+04  0.80439970843E+02 0.  0.
         -6    2    1    2    0  502 -0.14542453055E+02 -0.62506942659E+02 -0.89947358975E+02  0.20291992729E+03  0.17019802784E+03 0.  0.
        -24    2    5    5    0    0 -0.47258972346E+02 -0.66890347277E+02 -0.72028853424E+01  0.11371049512E+03  0.78552314526E+02 0.  0.
          5    1    3    3  501    0 -0.38047074681E+02  0.30323499329E+02 -0.19608528862E+03  0.20208568707E+03  0.47000000000E+01 0.  1.
        -13    1    4    4    0    0  0.62219682423E+02  0.26799597423E+02 -0.75600109984E+03  0.75903041458E+03  0.00000000000E+00 0.  1.
         14    1    4    4    0    0 -0.96301546877E+01  0.53838459075E+01 -0.90090269922E+03  0.90097025430E+03  0.00000000000E+00 0. -1.
         -5    1    5    5    0  502  0.32716519291E+02  0.43834046174E+01 -0.82744473632E+02  0.89209432165E+02  0.47000000000E+01 0.  1.
         11    1    6    6    0    0 -0.36795438398E+02 -0.13670788420E+02 -0.35154068475E+02  0.52693484164E+02  0.00000000000E+00 0. -1.
        -12    1    6    6    0    0 -0.10463533948E+02 -0.53219558857E+02  0.27951183133E+02  0.61017010957E+02  0.00000000000E+00 0.  1.
</event>
<event>
12    1  0.8113184E-002  0.2104912E+03  0.7818608E-02  0.1142693E+00
         21   -1    0    0  503  502  0.00000000000E+00  0.00000000000E+00  0.23949379299E+03  0.23949379299E+03  0.00000000000E+00 0. -1.
         21   -1    0    0  501  503 -0.00000000000E+00 -0.00000000000E+00 -0.51971630594E+03  0.51971630594E+03  0.00000000000E+00 0.  1.
          6    2    1    2  501    0  0.78221283451E+02 -0.90561262231E+02 -0.44682819870E+03  0.49076270416E+03  0.16392889079E+03 0.  0.
         24    2    3    3    0    0  0.70820788161E+01 -0.96831517454E+02 -0.34024227333E+03  0.36237753358E+03  0.78269877160E+02 0.  0.
         -6    2    1    2    0  502 -0.78221283451E+02  0.90561262231E+02  0.16660568575E+03  0.26844739478E+03  0.17316650322E+03 0.  0.
        -24    2    5    5    0    0  0.21357967547E+02  0.83410670010E+01  0.59644819302E+02  0.10070084583E+03  0.77829426981E+02 0.  0.
          5    1    3    3  501    0  0.71139204635E+02  0.62702552231E+01 -0.10658592537E+03  0.12838517058E+03  0.47000000000E+01 0. -1.
        -13    1    4    4    0    0 -0.25612062267E+01 -0.43034322032E+02 -0.26978207051E+03  0.27320482832E+03  0.00000000000E+00 0.  1.
         14    1    4    4    0    0  0.96432850428E+01 -0.53797195422E+02 -0.70460202821E+02  0.89172705259E+02  0.00000000000E+00 0. -1.
         -5    1    5    5    0  502 -0.99579250998E+02  0.82220195230E+02  0.10696086645E+03  0.16774654895E+03  0.47000000000E+01 0.  1.
         11    1    6    6    0    0  0.46990397917E+01  0.34614109919E+02  0.60183937753E+02  0.69586808692E+02  0.00000000000E+00 0. -1.
        -12    1    6    6    0    0  0.16658927756E+02 -0.26273042918E+02 -0.53911845067E+00  0.31114037135E+02  0.00000000000E+00 0.  1.
</event>
<event>
12    1  0.8113184E-002  0.2827855E+03  0.7818608E-02  0.1094348E+00
         21   -1    0    0  503  502  0.00000000000E+00  0.00000000000E+00  0.60010221293E+03  0.60010221293E+03  0.00000000000E+00 0.  1.
         21   -1    0    0  501  503 -0.00000000000E+00 -0.00000000000E+00 -0.13465399432E+03  0.13465399432E+03  0.00000000000E+00 0.  1.
          6    2    1    2  501    0  0.10787569070E+02  0.22403295437E+03  0.18854525408E+03  0.33987784595E+03  0.17222224316E+03 0.  0.
         24    2    3    3    0    0  0.73744026837E+01  0.22376218780E+03  0.11334081955E+03  0.26444893908E+03  0.83445799777E+02 0.  0.
         -6    2    1    2    0  502 -0.10787569070E+02 -0.22403295437E+03  0.27690296454E+03  0.39487836131E+03  0.17013680428E+03 0.  0.
        -24    2    5    5    0    0 -0.65234781558E+02 -0.95522587720E+02  0.14030754255E+03  0.19953299384E+03  0.82140535934E+02 0.  0.
          5    1    3    3  501    0  0.34131663863E+01  0.27076657595E+00  0.75204434526E+02  0.75428906871E+02  0.47000000000E+01 0. -1.
        -13    1    4    4    0    0  0.90294738897E+00  0.21347593400E+03  0.12518817267E+03  0.24747700557E+03  0.00000000000E+00 0.  1.
         14    1    4    4    0    0  0.64714552947E+01  0.10286253798E+02 -0.11847353123E+02  0.16971933504E+02  0.00000000000E+00 0. -1.
         -5    1    5    5    0  502  0.54447212488E+02 -0.12851036665E+03  0.13659542198E+03  0.19534536747E+03  0.47000000000E+01 0.  1.
         11    1    6    6    0    0 -0.52444867514E+02 -0.83633636629E+01  0.43548614656E+02  0.68679631761E+02  0.00000000000E+00 0. -1.
        -12    1    6    6    0    0 -0.12789914044E+02 -0.87159224057E+02  0.96758927898E+02  0.13085336208E+03  0.00000000000E+00 0.  1.
</event>
<event>
12    1  0.8113184E-002  0.3029508E+03  0.7818608E-02  0.1083870E+00
         21   -1    0    0  501  502  0.00000000000E+00  0.00000000000E+00  0.59283238036E+03  0.59283238036E+03  0.00000000000E+00 0. -1.
         21   -1    0    0  502  503 -0.00000000000E+00 -0.00000000000E+00 -0.32469153829E+03  0.32469153829E+03  0.00000000000E+00 0.  1.
         -6    2    1    2    0  503 -0.15955191531E+03  0.19039552817E+03 -0.19822555131E+03  0.36139729697E+03  0.17206791171E+03 0.  0.
        -24    2    3    3    0    0 -0.13520684449E+03  0.13827323337E+03 -0.70876132629E+02  0.22157819768E+03  0.81689005672E+02 0.  0.
          6    2    1    2  501    0  0.15955191531E+03 -0.19039552817E+03  0.46636639338E+03  0.55612662168E+03  0.17341261674E+03 0.  0.
         24    2    5    5    0    0  0.82683055563E+02 -0.13200505843E+03  0.16737499894E+03  0.24190343268E+03  0.79000362945E+02 0.  0.
          5    1    5    5  501    0  0.76868859745E+02 -0.58390469739E+02  0.29899139445E+03  0.31422318900E+03  0.47000000000E+01 0. -1.
        -13    1    6    6    0    0 -0.14638487045E+02 -0.11848348671E+02  0.27936489142E+02  0.33691484010E+02  0.00000000000E+00 0.  1.
         14    1    6    6    0    0  0.97321542608E+02 -0.12015670976E+03  0.13943850979E+03  0.20821194867E+03  0.00000000000E+00 0. -1.
         -5    1    3    3    0  503 -0.24345070823E+02  0.52122294792E+02 -0.12734941868E+03  0.13981909929E+03  0.47000000000E+01 0.  1.
         13    1    4    4    0    0  0.62784751898E+01  0.17516504991E+02  0.70564964524E+01  0.19900787422E+02  0.00000000000E+00 0. -1.
        -14    1    4    4    0    0 -0.14148531968E+03  0.12075672838E+03 -0.77932629081E+02  0.20167741026E+03  0.00000000000E+00 0.  1.
</event>
<event>
12    1  0.8113184E-002  0.2490612E+03  0.7818608E-02  0.1114177E+00
         21   -1    0    0  501  502  0.00000000000E+00  0.00000000000E+00  0.77654701835E+02  0.77654701835E+02  0.00000000000E+00 0. -1.
         21   -1    0    0  502  503 -0.00000000000E+00 -0.00000000000E+00 -0.88853132151E+03  0.88853132151E+03  0.00000000000E+00 0.  1.
         -6    2    1    2    0  503  0.86873794815E+02 -0.15778338751E+03 -0.24596707101E+03  0.34880909607E+03  0.16948549165E+03 0.  0.
        -24    2    3    3    0    0  0.21506673045E+02 -0.87817688008E+02 -0.49464289486E+02  0.13016899714E+03  0.79515838477E+02 0.  0.
          6    2    1    2  501    0 -0.86873794815E+02  0.15778338751E+03 -0.56490954867E+03  0.61737692728E+03  0.17201400686E+03 0.  0.
         24    2    5    5    0    0 -0.86892473790E+02  0.84788384185E+02 -0.49626661071E+03  0.51706634064E+03  0.79609544790E+02 0.  0.
          5    1    5    5  501    0  0.18678975068E-01  0.72995003329E+02 -0.68642937958E+02  0.10031058664E+03  0.47000000000E+01 0. -1.
        -13    1    6    6    0    0 -0.72838551494E+02  0.30587447269E+02 -0.37862538906E+03  0.38677930627E+03  0.00000000000E+00 0.  1.
         14    1    6    6    0    0 -0.14053922296E+02  0.54200936916E+02 -0.11764122165E+03  0.13028703437E+03  0.00000000000E+00 0. -1.
         -5    1    3    3    0  503  0.65367121770E+02 -0.69965699506E+02 -0.19650278152E+03  0.21864009893E+03  0.47000000000E+01 0.  1.
         13    1    4    4    0    0  0.45055388528E+02 -0.38476877291E+02 -0.46675115061E+02  0.75425622221E+02  0.00000000000E+00 0. -1.
        -14    1    4    4    0    0 -0.23548715483E+02 -0.49340810718E+02 -0.27891744247E+01  0.54743374916E+02  0.00000000000E+00 0.  1.
</event>
<event>
12    1  0.8113184E-002  0.1800243E+03  0.7818608E-02  0.1168246E+00
         21   -1    0    0  503  502  0.00000000000E+00  0.00000000000E+00  0.34169296302E+03  0.34169296302E+03  0.00000000000E+00 0. -1.
         21   -1    0    0  501  503 -0.00000000000E+00 -0.00000000000E+00 -0.11763932948E+03  0.11763932948E+03  0.00000000000E+00 0. -1.
          6    2    1    2  501    0 -0.45416646642E+02 -0.15700598479E+02  0.82473326242E+01  0.17829654016E+03  0.17150060394E+03 0.  0.
         24    2    3    3    0    0 -0.61455136491E+02 -0.54686444232E+01 -0.52804290273E+02  0.11417699011E+03  0.80258657640E+02 0.  0.
         -6    2    1    2    0  502  0.45416646642E+02  0.15700598479E+02  0.21580630091E+03  0.28103575234E+03  0.17349223036E+03 0.  0.
        -24    2    5    5    0    0  0.27606804182E+02 -0.11668839016E+02  0.27030386015E+02  0.89398823117E+02  0.79769733392E+02 0.  0.
          5    1    3    3  501    0  0.16038489849E+02 -0.10231954056E+02  0.61051622897E+02  0.64119550052E+02  0.47000000000E+01 0. -1.
        -11    1    4    4    0    0 -0.48940947309E+02  0.34149724767E+02 -0.31810226716E+02  0.67626256358E+02  0.00000000000E+00 0.  1.
         12    1    4    4    0    0 -0.12514189181E+02 -0.39618369190E+02 -0.20994063557E+02  0.46550733751E+02  0.00000000000E+00 0. -1.
         -5    1    5    5    0  502  0.17809842460E+02  0.27369437495E+02  0.18877591490E+03  0.19163692923E+03  0.47000000000E+01 0.  1.
         13    1    6    6    0    0 -0.20410798095E+02 -0.82010989726E+01  0.34262670493E+02  0.40715958696E+02  0.00000000000E+00 0. -1.
        -14    1    6    6    0    0  0.48017602277E+02 -0.34677400436E+01 -0.72322844783E+01  0.48682864421E+02  0.00000000000E+00 0.  1.
</event>
<event>
12    1  0.8113184E-002  0.1889622E+03  0.7818608E-02  0.1164283E+00
         21   -1    0    0  501  502  0.00000000000E+00  0.00000000000E+00  0.30940943585E+03  0.30940943585E+03  0.00000000000E+00 0. -1.
         21   -1    0    0  502  503 -0.00000000000E+00 -0.00000000000E+00 -0.11555862410E+03  0.11555862410E+03  0.00000000000E+00 0.  1.
         -6    2    1    2    0  503  0.71047365291E+02  0.53852399185E+01  0.23119440456E+02  0.17029980886E+03  0.15294047027E+03 0.  0.
        -24    2    3    3    0    0  0.94718860749E+02  0.31247889280E+02 -0.53089463781E+00  0.12774813816E+03  0.79819870882E+02 0.  0.
          6    2    1    2  501    0 -0.71047365291E+02 -0.53852399185E+01  0.17073137129E+03  0.25466825110E+03  0.17501425099E+03 0.  0.
         24    2    5    5    0    0 -0.65312219043E+02  0.36522798135E+02  0.18142127152E+03  0.21078728115E+03  0.76928534336E+02 0.  0.
          5    1    5    5  501    0 -0.57351462483E+01 -0.41908038053E+02 -0.10689900234E+02  0.43880969941E+02  0.47000000000E+01 0. -1.
        -13    1    6    6    0    0 -0.31012085615E+02  0.54907035146E+02  0.14210284743E+03  0.15546623817E+03  0.00000000000E+00 0.  1.
         14    1    6    6    0    0 -0.34300133428E+02 -0.18384237011E+02  0.39318424090E+02  0.55321042982E+02  0.00000000000E+00 0. -1.
         -5    1    3    3    0  503 -0.23671495458E+02 -0.25862649361E+02  0.23650335094E+02  0.42551670698E+02  0.47000000000E+01 0.  1.
         11    1    4    4    0    0 -0.62211294312E+00 -0.15102442888E+02  0.14175429930E+02  0.20722297638E+02  0.00000000000E+00 0. -1.
        -12    1    4    4    0    0  0.95340973692E+02  0.46350332168E+02 -0.14706324568E+02  0.10702584052E+03  0.00000000000E+00 0.  1.
</event>
<event>
12    1  0.8113184E-002  0.1993260E+03  0.7818608E-02  0.1150718E+00
         21   -1    0    0  503  502  0.00000000000E+00  0.00000000000E+00  0.28292645795E+03  0.28292645795E+03  0.00000000000E+00 0.  1.
         21   -1    0    0  501  503 -0.00000000000E+00 -0.00000000000E+00 -0.14062242767E+03  0.14062242767E+03  0.00000000000E+00 0. -1.
          6    2    1    2  501    0 -0.65565755937E+02  0.71632076112E+02  0.49291405571E+02  0.20533023961E+03  0.17407137030E+03 0.  0.
         24    2    3    3    0    0 -0.67349597781E+02  0.11517286944E+03  0.36731668859E+02  0.15973616367E+03  0.79785138401E+02 0.  0.
         -6    2    1    2    0  502  0.65565755937E+02 -0.71632076112E+02  0.93012624710E+02  0.21821864601E+03  0.17186624576E+03 0.  0.
        -24    2    5    5    0    0  0.10152645479E+03 -0.88773685536E+02  0.66816511256E+02  0.17030901237E+03  0.79701475847E+02 0.  0.
          5    1    3    3  501    0  0.17838418441E+01 -0.43540793326E+02  0.12559736712E+02  0.45594075947E+02  0.47000000000E+01 0. -1.
        -13    1    4    4    0    0 -0.76862476243E+02  0.79672561316E+02  0.48896580311E+02  0.12102244770E+03  0.00000000000E+00 0.  1.
         14    1    4    4    0    0  0.95128784615E+01  0.35500308122E+02 -0.12164911452E+02  0.38713715968E+02  0.00000000000E+00 0. -1.
         -5    1    5    5    0  502 -0.35960698853E+02  0.17141609424E+02  0.26196113454E+02  0.47909633642E+02  0.47000000000E+01 0.  1.
         13    1    6    6    0    0  0.34011016766E+02 -0.79164786340E+02  0.51617833504E+02  0.10044009853E+03  0.00000000000E+00 0. -1.
        -14    1    6    6    0    0  0.67515438025E+02 -0.96088991968E+01  0.15198677752E+02  0.69868913837E+02  0.00000000000E+00 0.  1.
</event>
<event>
12    1  0.8113184E-002  0.2814003E+03  0.7818608E-02  0.1094968E+00
         21   -1    0    0  503  502  0.00000000000E+00  0.00000000000E+00  0.59100195530E+03  0.59100195530E+03  0.00000000000E+00 0. -1.
         21   -1    0    0  501  503 -0.00000000000E+00 -0.00000000000E+00 -0.15413459403E+04  0.15413459403E+04  0.00000000000E+00 0.  1.
          6    2    1    2  501    0 -0.14938166774E+03 -0.16482267540E+03 -0.14940277125E+04  0.15202976455E+04  0.17235059710E+03 0.  0.
         24    2    3    3    0    0 -0.71204147982E+02 -0.17238759372E+02 -0.74972323657E+03  0.75747133519E+03  0.79439830480E+02 0.  0.
         -6    2    1    2    0  502  0.14938166774E+03  0.16482267540E+03  0.54368372750E+03  0.61205025006E+03  0.17184910843E+03 0.  0.
        -24    2    5    5    0    0  0.86534085116E+02  0.12029757364E+03  0.48939079478E+03  0.51769922531E+03  0.80928880878E+02 0.  0.
          5    1    3    3  501    0 -0.78177519762E+02 -0.14758391603E+03 -0.74430447591E+03  0.76282631033E+03  0.47000000000E+01 0. -1.
        -13    1    4    4    0    0 -0.36345948891E+02 -0.43580302194E+02 -0.27823404705E+03  0.28396206732E+03  0.00000000000E+00 0.  1.
         14    1    4    4    0    0 -0.34858199091E+02  0.26341542822E+02 -0.47148918952E+03  0.47350926787E+03  0.00000000000E+00 0. -1.
         -5    1    5    5    0  502  0.62847582628E+02  0.44525101757E+02  0.54292932728E+02  0.94351024758E+02  0.47000000000E+01 0.  1.
         11    1    6    6    0    0  0.75799905483E+02  0.43329190205E+02  0.20360524783E+03  0.22153586920E+03  0.00000000000E+00 0. -1.
        -12    1    6    6    0    0  0.10734179633E+02  0.76968383440E+02  0.28578554694E+03  0.29616335611E+03  0.00000000000E+00 0.  1.
</event>
<event>
12    1  0.8113184E-002  0.2144673E+03  0.7818608E-02  0.1138124E+00
         21   -1    0    0  503  502  0.00000000000E+00  0.00000000000E+00  0.18421461444E+03  0.18421461444E+03  0.00000000000E+00 0.  1.
         21   -1    0    0  501  503 -0.00000000000E+00 -0.00000000000E+00 -0.46204397122E+03  0.46204397122E+03  0.00000000000E+00 0.  1.
          6    2    1    2  501    0  0.84560701803E+02  0.97017086003E+02 -0.35808115323E+03  0.41726823358E+03  0.17125372753E+03 0.  0.
         24    2    3    3    0    0  0.58888280995E+02  0.66592330469E+00 -0.25506933870E+03  0.27382436415E+03  0.80319000048E+02 0.  0.
         -6    2    1    2    0  502 -0.84560701803E+02 -0.97017086003E+02  0.80251796454E+02  0.22899035207E+03  0.17156166018E+03 0.  0.
        -24    2    5    5    0    0  0.12041740630E+02 -0.60455741413E+02  0.70169349581E+02  0.12510334838E+03  0.83229862233E+02 0.  0.
          5    1    3    3  501    0  0.25672420807E+02  0.96351162698E+02 -0.10301181453E+03  0.14344386943E+03  0.47000000000E+01 0. -1.
        -13    1    4    4    0    0  0.48736593184E+01  0.34661613695E+02 -0.74636898984E+02  0.82436925641E+02  0.00000000000E+00 0.  1.
         14    1    4    4    0    0  0.54014621677E+02 -0.33995690391E+02 -0.18043243971E+03  0.19138743851E+03  0.00000000000E+00 0. -1.
         -5    1    5    5    0  502 -0.96602442433E+02 -0.36561344590E+02  0.10082446872E+02  0.10388700370E+03  0.47000000000E+01 0.  1.
         11    1    6    6    0    0  0.40905578023E+02 -0.14630755531E+02  0.10845428974E+02  0.44776652962E+02  0.00000000000E+00 0. -1.
        -12    1    6    6    0    0 -0.28863837393E+02 -0.45824985882E+02  0.59323920607E+02  0.80326695415E+02  0.00000000000E+00 0.  1.
</event>
<event>
12    1  0.8113184E-002  0.1903861E+03  0.7818608E-02  0.1158495E+00
         21   -1    0    0  503  502  0.00000000000E+00  0.00000000000E+00  0.40747694308E+02  0.40747694308E+02  0.00000000000E+00 0. -1.
         21   -1    0    0  501  503 -0.00000000000E+00 -0.00000000000E+00 -0.92035967671E+03  0.92035967671E+03  0.00000000000E+00 0. -1.
          6    2    1    2  501    0 -0.46533155531E+02 -0.67105055200E+02 -0.53645662013E+03  0.56867590705E+03  0.17011219528E+03 0.  0.
         24    2    3    3    0    0 -0.56614404921E+01 -0.47674831237E+02 -0.13578052041E+03  0.16542479721E+03  0.81388404394E+02 0.  0.
         -6    2    1    2    0  502  0.46533155531E+02  0.67105055200E+02 -0.34315536226E+03  0.39243146396E+03  0.17198380231E+03 0.  0.
        -24    2    5    5    0    0  0.43100132518E+01  0.13342048905E+02 -0.30277261360E+03  0.31289461100E+03  0.77686521100E+02 0.  0.
          5    1    3    3  501    0 -0.40871715039E+02 -0.19430223962E+02 -0.40067609973E+03  0.40325110984E+03  0.47000000000E+01 0. -1.
        -11    1    4    4    0    0 -0.30999304939E+02 -0.29212207792E+01 -0.94440042238E+02  0.99440494847E+02  0.00000000000E+00 0.  1.
         12    1    4    4    0    0  0.25337864447E+02 -0.44753610458E+02 -0.41340478167E+02  0.65984302367E+02  0.00000000000E+00 0. -1.
         -5    1    5    5    0  502  0.42223142279E+02  0.53763006295E+02 -0.40382748665E+02  0.79536852964E+02  0.47000000000E+01 0.  1.
         13    1    6    6    0    0 -0.26177014780E+02  0.32107133972E+02 -0.12957724724E+03  0.13603810921E+03  0.00000000000E+00 0. -1.
        -14    1    6    6    0    0  0.30487028032E+02 -0.18765085067E+02 -0.17319536636E+03  0.17685650179E+03  0.00000000000E+00 0.  1.
</event>
<event>
12    1  0.8113184E-002  0.2037034E+03  0.7818608E-02  0.1147359E+00
         21   -1    0    0  501  502  0.00000000000E+00  0.00000000000E+00  0.84657208003E+02  0.84657208003E+02  0.00000000000E+00 0.  1.
         21   -1    0    0  502  503 -0.00000000000E+00 -0.00000000000E+00 -0.49806138415E+03  0.49806138415E+03  0.00000000000E+00 0.  1.
         -6    2    1    2    0  503 -0.34063496060E+02 -0.98354119262E+02 -0.15605602948E+03  0.25660970850E+03  0.17510340836E+03 0.  0.
        -24    2    3    3    0    0 -0.85512992124E+02 -0.37341805417E+02 -0.10342621684E+03  0.16089377323E+03  0.80516716781E+02 0.  0.
          6    2    1    2  501    0  0.34063496060E+02  0.98354119262E+02 -0.25734814667E+03  0.32610888365E+03  0.17112884287E+03 0.  0.
         24    2    5    5    0    0  0.87934642766E+02  0.60343059737E+02 -0.15665660360E+03  0.20566048001E+03  0.79882133989E+02 0.  0.
          5    1    5    5  501    0 -0.53871146706E+02  0.38011059525E+02 -0.10069154307E+03  0.12044840364E+03  0.47000000000E+01 0. -1.
        -11    1    6    6    0    0  0.22601174436E+01  0.45121241421E+02 -0.66181583803E+02  0.80131370841E+02  0.00000000000E+00 0.  1.
         12    1    6    6    0    0  0.85674525322E+02  0.15221818317E+02 -0.90475019792E+02  0.12552910917E+03  0.00000000000E+00 0. -1.
         -5    1    3    3    0  503  0.51449496064E+02 -0.61012313845E+02 -0.52629812641E+02  0.95715935270E+02  0.47000000000E+01 0.  1.
         11    1    4    4    0    0  0.37807161471E+01  0.49508178156E+01  0.91753075690E+01  0.11090116348E+02  0.00000000000E+00 0. -1.
        -12    1    4    4    0    0 -0.89293708271E+02 -0.42292623233E+02 -0.11260152441E+03  0.14980365688E+03  0.00000000000E+00 0.  1.
</event>
<event>
12    1  0.8113184E-002  0.4001543E+03  0.7818608E-02  0.1043992E+00
         21   -1    0    0  501  502  0.00000000000E+00  0.00000000000E+00  0.19034549887E+03  0.19034549887E+03  0.00000000000E+00 0. -1.
         21   -1    0    0  502  503 -0.00000000000E+00 -0.00000000000E+00 -0.16719183946E+04  0.16719183946E+04  0.00000000000E+00 0.  1.
         -6    2    1    2    0  503  0.25941718416E+03 -0.23829226951E+03 -0.14010697042E+04  0.14570929089E+04  0.18984980364E+03 0.  0.
        -24    2    3    3    0    0  0.18404544087E+03 -0.25148312434E+03 -0.10602333536E+04  0.11077415009E+04  0.76681045198E+02 0.  0.
          6    2    1    2  501    0 -0.25941718416E+03  0.23829226951E+03 -0.80503191517E+02  0.40517098458E+03  0.18330925168E+03 0.  0.
         24    2    5    5    0    0 -0.21419197776E+03  0.22813139575E+03 -0.11933376634E+03  0.34452062439E+03  0.80819402209E+02 0.  0.
          5    1    5    5  501    0 -0.45225206405E+02  0.10160873763E+02  0.38830574828E+02  0.60650360192E+02  0.47000000000E+01 0. -1.
        -11    1    6    6    0    0 -0.18601037229E+03  0.15732225544E+03 -0.69049124991E+02  0.25321518975E+03  0.00000000000E+00 0.  1.
         12    1    6    6    0    0 -0.28181605467E+02  0.70809140314E+02 -0.50284641353E+02  0.91305434640E+02  0.00000000000E+00 0. -1.
         -5    1    3    3    0  503  0.75371743290E+02  0.13190854831E+02 -0.34083635064E+03  0.34935140797E+03  0.47000000000E+01 0.  1.
         13    1    4    4    0    0  0.42800928404E+02 -0.11958806960E+03 -0.38614183527E+03  0.40649568609E+03  0.00000000000E+00 0. -1.
        -14    1    4    4    0    0  0.14124451247E+03 -0.13189505474E+03 -0.67409151829E+03  0.70124581482E+03  0.00000000000E+00 0.  1.
</event>
<event>
12    1  0.8113184E-002  0.2145325E+03  0.7818608E-02  0.1138316E+00
         21   -1    0    0  501  502  0.00000000000E+00  0.00000000000E+00  0.50432688730E+03  0.50432688730E+03  0.00000000000E+00 0.  1.
         21   -1    0    0  502  503 -0.00000000000E+00 -0.00000000000E+00 -0.94761748820E+02  0.94761748820E+02  0.00000000000E+00 0. -1.
         -6    2    1    2    0  503 -0.12392714118E+03 -0.32732051090E+02  0.26671004652E+03  0.34134506154E+03  0.17015545431E+03 0.  0.
        -24    2    3    3    0    0 -0.22159042863E+02 -0.65088946903E+02  0.11839263735E+03  0.15852313067E+03  0.79907272450E+02 0.  0.
          6    2    1    2  501    0  0.12392714118E+03  0.32732051090E+02  0.14285509196E+03  0.25774357458E+03  0.17203153620E+03 0.  0.
         24    2    5    5    0    0  0.19802487386E+02 -0.13927888971E+02  0.10907339991E+03  0.13865375028E+03  0.82108046495E+02 0.  0.
          5    1    5    5  501    0  0.10412465380E+03  0.46659940061E+02  0.33781692044E+02  0.11908982430E+03  0.47000000000E+01 0. -1.
        -13    1    6    6    0    0 -0.31245606060E+02 -0.27628109149E+01  0.55915878535E+02  0.64113231822E+02  0.00000000000E+00 0.  1.
         14    1    6    6    0    0  0.51048093447E+02 -0.11165078056E+02  0.53157521379E+02  0.74540518456E+02  0.00000000000E+00 0. -1.
         -5    1    3    3    0  503 -0.10176809832E+03  0.32356895813E+02  0.14831740917E+03  0.18282193087E+03  0.47000000000E+01 0.  1.
         13    1    4    4    0    0 -0.27246887178E+02 -0.78543354089E+01  0.16482961652E+01  0.28404230774E+02  0.00000000000E+00 0. -1.
        -14    1    4    4    0    0  0.50878443152E+01 -0.57234611494E+02  0.11674434118E+03  0.13011889990E+03  0.00000000000E+00 0.  1.
</event>
<event>
12    1  0.8113184E-002  0.1809919E+03  0.7818608E-02  0.1167117E+00
         21   -1    0    0  501  502  0.00000000000E+00  0.00000000000E+00  0.65846875834E+03  0.65846875834E+03  0.00000000000E+00 0.  1.
         21   -1    0    0  502  503 -0.00000000000E+00 -0.00000000000E+00 -0.57565620437E+02  0.57565620437E+02  0.00000000000E+00 0.  1.
         -6    2    1    2    0  503  0.39152066283E+02 -0.34634002925E+02  0.16514641487E+03  0.24418482958E+03  0.17210605508E+03 0.  0.
        -24    2    3    3    0    0  0.10235126622E+02  0.35164034737E+01  0.90776949334E+01  0.80871700124E+02  0.79628540269E+02 0.  0.
          6    2    1    2  501    0 -0.39152066283E+02  0.34634002925E+02  0.43575672303E+03  0.47184954920E+03  0.17327918791E+03 0.  0.
         24    2    5    5    0    0 -0.17455131577E+02  0.90449167605E+02  0.28444334320E+03  0.30904930811E+03  0.78215892331E+02 0.  0.
          5    1    5    5  501    0 -0.21696934706E+02 -0.55815164680E+02  0.15131337984E+03  0.16280024110E+03  0.47000000000E+01 0. -1.
        -11    1    6    6    0    0  0.74272704529E+01  0.16682295915E+02  0.16793424701E+03  0.16892416838E+03  0.00000000000E+00 0.  1.
         12    1    6    6    0    0 -0.24882402029E+02  0.73766871691E+02  0.11650909619E+03  0.14012513973E+03  0.00000000000E+00 0. -1.
         -5    1    3    3    0  503  0.28916939662E+02 -0.38150406399E+02  0.15606871994E+03  0.16331312945E+03  0.47000000000E+01 0.  1.
         13    1    4    4    0    0 -0.11155793954E+02  0.28544668855E+02  0.29162672845E+02  0.42304980160E+02  0.00000000000E+00 0. -1.
        -14    1    4    4    0    0  0.21390920576E+02 -0.25028265382E+02 -0.20084977912E+02  0.38566719965E+02  0.00000000000E+00 0.  1.
</event>
<event>
12    1  0.8113184E-002  0.2189616E+03  0.7818608E-02  0.1134755E+00
         21   -1    0    0  503  502  0.00000000000E+00  0.00000000000E+00  0.21682025968E+03  0.21682025968E+03  0.00000000000E+00 0.  1.
         21   -1    0    0  501  503 -0.00000000000E+00 -0.00000000000E+00 -0.31036619521E+03  0.31036619521E+03  0.00000000000E+00 0.  1.
          6    2    1    2  501    0  0.79536664314E+02 -0.10824694016E+03 -0.18856338258E+03  0.28896420784E+03  0.17291814000E+03 0.  0.
         24    2    3    3    0    0  0.79212004606E+02 -0.62009342085E+02 -0.39883799307E+02  0.13318959707E+03  0.77646964786E+02 0.  0.
         -6    2    1    2    0  502 -0.79536664314E+02  0.10824694016E+03  0.95017447044E+02  0.23822224704E+03  0.17227316309E+03 0.  0.
        -24    2    5    5    0    0 -0.62276059574E+02 -0.12379973959E+00  0.13013262564E+02  0.10114955824E+03  0.78635648455E+02 0.  0.
          5    1    3    3  501    0  0.32465970778E+00 -0.46237598077E+02 -0.14867958327E+03  0.15577461077E+03  0.47000000000E+01 0. -1.
        -11    1    4    4    0    0  0.18574521730E+02 -0.98947931609E+00 -0.43269109971E+02  0.47097853502E+02  0.00000000000E+00 0.  1.
         12    1    4    4    0    0  0.60637482877E+02 -0.61019862769E+02  0.33853106644E+01  0.86091743566E+02  0.00000000000E+00 0. -1.
         -5    1    5    5    0  502 -0.17260604740E+02  0.10837073990E+03  0.82004184480E+02  0.13707268880E+03  0.47000000000E+01 0.  1.
         13    1    6    6    0    0 -0.27503551517E+02 -0.18203571458E+02  0.41272373569E+02  0.52832037439E+02  0.00000000000E+00 0. -1.
        -14    1    6    6    0    0 -0.34772508058E+02  0.18079771719E+02 -0.28259111005E+02  0.48317520806E+02  0.00000000000E+00 0.  1.
</event>
<event>
12    1  0.8113184E-002  0.3756702E+03  0.7818608E-02  0.1053277E+00
         21   -1    0    0  501  502  0.00000000000E+00  0.00000000000E+00  0.30842274292E+03  0.30842274292E+03  0.00000000000E+00 0.  1.
         21   -1    0    0  502  503 -0.00000000000E+00 -0.00000000000E+00 -0.53137459145E+03  0.53137459145E+03  0.00000000000E+00 0. -1.
         -6    2    1    2    0  503  0.11647219853E+03 -0.31545710556E+03  0.53630642658E+02  0.37947901810E+03  0.16747871766E+03 0.  0.
        -24    2    3    3    0    0  0.36814804255E+02 -0.14672305860E+03 -0.32199478193E+02  0.17403954109E+03  0.79812090139E+02 0.  0.
          6    2    1    2  501    0 -0.11647219853E+03  0.31545710556E+03 -0.27658249119E+03  0.46031831627E+03  0.14938580717E+03 0.  0.
         24    2    5    5    0    0 -0.11251971153E+03  0.25079352777E+03 -0.27285861941E+03  0.39525713224E+03  0.78856168731E+02 0.  0.
          5    1    5    5  501    0 -0.39524869982E+01  0.64663577786E+02 -0.37238717754E+01  0.65061184024E+02  0.47000000000E+01 0. -1.
        -11    1    6    6    0    0 -0.38780505294E+02  0.33233957165E+02 -0.23514365760E+02  0.56225873909E+02  0.00000000000E+00 0.  1.
         12    1    6    6    0    0 -0.73739206236E+02  0.21755957061E+03 -0.24934425365E+03  0.33903125833E+03  0.00000000000E+00 0. -1.
         -5    1    3    3    0  503  0.79657394272E+02 -0.16873404696E+03  0.85830120851E+02  0.20543947700E+03  0.47000000000E+01 0.  1.
         13    1    4    4    0    0  0.28723614231E+02 -0.15540870423E+03 -0.24597657635E+02  0.15994360296E+03  0.00000000000E+00 0. -1.
        -14    1    4    4    0    0  0.80911900242E+01  0.86856456377E+01 -0.76018205581E+01  0.14095938137E+02  0.00000000000E+00 0.  1.
</event>
<event>
12    1  0.8113184E-002  0.1838752E+03  0.7818608E-02  0.1164925E+00
         21   -1    0    0  501  502  0.00000000000E+00  0.00000000000E+00  0.38396575973E+03  0.38396575973E+03  0.00000000000E+00 0. -1.
         21   -1    0    0  502  503 -0.00000000000E+00 -0.00000000000E+00 -0.10315441025E+03  0.10315441025E+03  0.00000000000E+00 0. -1.
         -6    2    1    2    0  503 -0.46150119788E+02 -0.22458171652E+02  0.41163766941E+02  0.18505885615E+03  0.17296855639E+03 0.  0.
        -24    2    3    3    0    0 -0.56265512067E+02 -0.76971597746E+02  0.27027645331E+02  0.12764845013E+03  0.80456189942E+02 0.  0.
          6    2    1    2  501    0  0.46150119788E+02  0.22458171652E+02  0.23964758254E+03  0.30206131383E+03  0.17656690081E+03 0.  0.
         24    2    5    5    0    0  0.27138220331E+02 -0.25294731407E+02  0.39191441796E+02  0.95067240398E+02  0.78265603218E+02 0.  0.
          5    1    5    5  501    0  0.19011899456E+02  0.47752903060E+02  0.20045614075E+03  0.20699407343E+03  0.47000000000E+01 0. -1.
        -13    1    6    6    0    0  0.46048208301E+02  0.65918211369E+01  0.92832146162E+01  0.47434878172E+02  0.00000000000E+00 0.  1.
         14    1    6    6    0    0 -0.18909987969E+02 -0.31886552544E+02  0.29908227180E+02  0.47632362226E+02  0.00000000000E+00 0. -1.
         -5    1    3    3    0  503  0.10115392279E+02  0.54513426093E+02  0.14136121610E+02  0.57410406021E+02  0.47000000000E+01 0.  1.
         13    1    4    4    0    0 -0.36751251605E+02 -0.77631048286E+02 -0.93133118258E+01  0.86394281811E+02  0.00000000000E+00 0. -1.
        -14    1    4    4    0    0 -0.19514260461E+02  0.65945053987E+00  0.36340957157E+02  0.41254168316E+02  0.00000000000E+00 0.  1.
</event>
<event>
12    1  0.8113184E-002  0.2404384E+03  0.7818608E-02  0.1119801E+00
         21   -1    0    0  503  502  0.00000000000E+00  0.00000000000E+00  0.59657159496E+03  0.59657159496E+03  0.00000000000E+00 0.  1.
         21   -1    0    0  501  503 -0.00000000000E+00 -0.00000000000E+00 -0.10462932796E+03  0.10462932796E+03  0.00000000000E+00 0.  1.
          6    2    1    2  501    0 -0.28895227557E+02 -0.16479696073E+03  0.14549480946E+03  0.27949431810E+03  0.17016275100E+03 0.  0.
         24    2    3    3    0    0 -0.21847941492E+02 -0.78056960972E+02  0.15352096143E+03  0.19197288693E+03  0.81943163321E+02 0.  0.
         -6    2    1    2    0  502  0.28895227557E+02  0.16479696073E+03  0.34644745754E+03  0.42170660481E+03  0.17267787138E+03 0.  0.
        -24    2    5    5    0    0 -0.27983025044E+02  0.24661184276E+02  0.11570616690E+03  0.14577761998E+03  0.80448578168E+02 0.  0.
          5    1    3    3  501    0 -0.70472860656E+01 -0.86739999763E+02 -0.80261519641E+01  0.87521431176E+02  0.47000000000E+01 0. -1.
        -11    1    4    4    0    0  0.41361406156E+00 -0.89989457958E+02  0.12100521095E+03  0.15079965086E+03  0.00000000000E+00 0.  1.
         12    1    4    4    0    0 -0.22261555553E+02  0.11932496986E+02  0.32515750471E+02  0.41173236072E+02  0.00000000000E+00 0. -1.
         -5    1    5    5    0  502  0.56878252602E+02  0.14013577646E+03  0.23074129064E+03  0.27592898483E+03  0.47000000000E+01 0.  1.
         11    1    6    6    0    0 -0.16215160607E+02 -0.23727839627E+02  0.78555415607E+02  0.83647445437E+02  0.00000000000E+00 0. -1.
        -12    1    6    6    0    0 -0.11767864437E+02  0.48389023903E+02  0.37150751291E+02  0.62130174547E+02  0.00000000000E+00 0.  1.
</event>
<event>
12    1  0.8113184E-002  0.1928816E+03  0.7818608E-02  0.1156733E+00
         21   -1    0    0  503  502  0.00000000000E+00  0.00000000000E+00  0.12172716300E+03  0.12172716300E+03  0.00000000000E+00 0.  1.
         21   -1    0    0  501  503 -0.00000000000E+00 -0.00000000000E+00 -0.32492791111E+03  0.32492791111E+03  0.00000000000E+00 0. -1.
          6    2    1    2  501    0 -0.77266779753E+02  0.39695376787E+02 -0.16294122354E+03  0.24961662183E+03  0.16796647694E+03 0.  0.
         24    2    3    3    0    0 -0.70677370308E+02 -0.15126131725E+02 -0.16151149322E+03  0.19418240639E+03  0.79979709783E+02 0.  0.
         -6    2    1    2    0  502  0.77266779753E+02 -0.39695376787E+02 -0.40259524571E+02  0.19703845228E+03  0.17221336815E+03 0.  0.
        -24    2    5    5    0    0  0.10446482031E+03 -0.49503319403E+02 -0.68792134631E+02  0.15614677849E+03  0.79284180851E+02 0.  0.
          5    1    3    3  501    0 -0.65894094450E+01  0.54821508512E+02 -0.14297303164E+01  0.55434215437E+02  0.47000000000E+01 0. -1.
        -11    1    4    4    0    0 -0.76355508996E+02 -0.16507793124E+02 -0.77748118430E+02  0.11021542953E+03  0.00000000000E+00 0.  1.
         12    1    4    4    0    0  0.56781386883E+01  0.13816613994E+01 -0.83763374789E+02  0.83966976861E+02  0.00000000000E+00 0. -1.
         -5    1    5    5    0  502 -0.27198040555E+02  0.98079426158E+01  0.28532610061E+02  0.40891673789E+02  0.47000000000E+01 0.  1.
         13    1    6    6    0    0  0.54840186229E+02 -0.40434035711E+02  0.32338918419E+01  0.68211548332E+02  0.00000000000E+00 0. -1.
        -14    1    6    6    0    0  0.49624634080E+02 -0.90692836922E+01 -0.72026026473E+02  0.87935230163E+02  0.00000000000E+00 0.  1.
</event>
<event>
12    1  0.8113184E-002  0.2340611E+03  0.7818608E-02  0.1123934E+00
         21   -1    0    0  501  502  0.00000000000E+00  0.00000000000E+00  0.16401085156E+03  0.16401085156E+03  0.00000000000E+00 0. -1.
         21   -1    0    0  502  503 -0.00000000000E+00 -0.00000000000E+00 -0.38601898104E+03  0.38601898104E+03  0.00000000000E+00 0.  1.
         -6    2    1    2    0  503 -0.12580026981E+03 -0.97214632071E+02 -0.21275183852E+03  0.31578576324E+03  0.17082421050E+03 0.  0.
        -24    2    3    3    0    0 -0.95916227817E+02 -0.65965475071E+00 -0.15656439221E+03  0.20004882559E+03  0.79415148502E+02 0.  0.
          6    2    1    2  501    0  0.12580026981E+03  0.97214632071E+02 -0.92562909634E+01  0.23424406936E+03  0.17177954632E+03 0.  0.
         24    2    5    5    0    0  0.34791152471E+02  0.59170711069E+02  0.52364966371E+02  0.11784274325E+03  0.80207388035E+02 0.  0.
          5    1    5    5  501    0  0.91009117343E+02  0.38043921001E+02 -0.61621257335E+02  0.11640132611E+03  0.47000000000E+01 0. -1.
        -11    1    6    6    0    0  0.36657667332E+00 -0.18254341100E+02  0.20152189982E+02  0.27193126127E+02  0.00000000000E+00 0.  1.
         12    1    6    6    0    0  0.34424575798E+02  0.77425052170E+02  0.32212776389E+02  0.90649617126E+02  0.00000000000E+00 0. -1.
         -5    1    3    3    0  503 -0.29884041997E+02 -0.96554977320E+02 -0.56187446315E+02  0.11573693764E+03  0.47000000000E+01 0.  1.
         13    1    4    4    0    0  0.10315868835E+02  0.13883591669E+02 -0.22542762573E+02  0.28413859503E+02  0.00000000000E+00 0. -1.
        -14    1    4    4    0    0 -0.10623209665E+03 -0.14543246419E+02 -0.13402162963E+03  0.17163496609E+03  0.00000000000E+00 0.  1.
</event>
<event>
12    1  0.8113184E-002  0.2183820E+03  0.7818608E-02  0.1135149E+00
         21   -1    0    0  501  502  0.00000000000E+00  0.00000000000E+00  0.11673285325E+03  0.11673285325E+03  0.00000000000E+00 0.  1.
         21   -1    0    0  502  503 -0.00000000000E+00 -0.00000000000E+00 -0.80947778050E+03  0.80947778050E+03  0.00000000000E+00 0.  1.
         -6    2    1    2    0  503  0.15247325128E+02  0.13549753339E+03 -0.67262870478E+03  0.70719167809E+03  0.17058321309E+03 0.  0.
        -24    2    3    3    0    0 -0.19109913799E+02  0.15603585180E+03 -0.58095013955E+03  0.60704532663E+03  0.79300618406E+02 0.  0.
          6    2    1    2  501    0 -0.15247325128E+02 -0.13549753339E+03 -0.20116222479E+02  0.21901895566E+03  0.17021333101E+03 0.  0.
         24    2    5    5    0    0 -0.16203937189E+02 -0.87832319208E+02  0.56562185973E+02  0.12860570402E+03  0.73232932118E+02 0.  0.
          5    1    5    5  501    0  0.95661206141E+00 -0.47665214185E+02 -0.76678408452E+02  0.90413251643E+02  0.47000000000E+01 0. -1.
        -11    1    6    6    0    0  0.12967005117E+02 -0.70646504518E+02  0.61287573666E+02  0.94420540711E+02  0.00000000000E+00 0.  1.
         12    1    6    6    0    0 -0.29170942306E+02 -0.17185814691E+02 -0.47253876933E+01  0.34185163309E+02  0.00000000000E+00 0. -1.
         -5    1    3    3    0  503  0.34357238927E+02 -0.20538318406E+02 -0.91678565226E+02  0.10014635146E+03  0.47000000000E+01 0.  1.
         13    1    4    4    0    0 -0.27867672211E+01  0.81167577342E+02 -0.16281508424E+03  0.18194695199E+03  0.00000000000E+00 0. -1.
        -14    1    4    4    0    0 -0.16323146578E+02  0.74868274457E+02 -0.41813505532E+03  0.42509837464E+03  0.00000000000E+00 0.  1.
</event>
<event>
12    1  0.8113184E-002  0.1941003E+03  0.7818608E-02  0.1156884E+00
         21   -1    0    0  501  502  0.00000000000E+00  0.00000000000E+00  0.12905681664E+03  0.12905681664E+03  0.00000000000E+00 0. -1.
         21   -1    0    0  502  503 -0.00000000000E+00 -0.00000000000E+00 -0.54509379901E+03  0.54509379901E+03  0.00000000000E+00 0.  1.
         -6    2    1    2    0  503 -0.44300634113E+02 -0.52024742362E+02 -0.44124346596E+03  0.47842046245E+03  0.17181741076E+03 0.  0.
        -24    2    3    3    0    0 -0.79063271858E+02 -0.38391418856E+01 -0.36197331087E+03  0.37924314365E+03  0.80839002080E+02 0.  0.
          6    2    1    2  501    0  0.44300634113E+02  0.52024742362E+02  0.25206483590E+02  0.19573015319E+03  0.18167500118E+03 0.  0.
         24    2    5    5    0    0  0.92878332197E+02 -0.64567001475E+00  0.12340691775E+02  0.12278096752E+03  0.79347790336E+02 0.  0.
          5    1    5    5  501    0 -0.48577698084E+02  0.52670412376E+02  0.12865791815E+02  0.72949185671E+02  0.47000000000E+01 0. -1.
        -13    1    6    6    0    0 -0.21628886913E+01 -0.11976057837E+01 -0.21689185477E+02  0.21829638425E+02  0.00000000000E+00 0.  1.
         14    1    6    6    0    0  0.95041220888E+02  0.55193576892E+00  0.34029877252E+02  0.10095132910E+03  0.00000000000E+00 0. -1.
         -5    1    3    3    0  503  0.34762637744E+02 -0.48185600476E+02 -0.79270155087E+02  0.99177318797E+02  0.47000000000E+01 0.  1.
         11    1    4    4    0    0 -0.22329014399E+02 -0.51412286429E+01 -0.14388918526E+02  0.27056572073E+02  0.00000000000E+00 0. -1.
        -12    1    4    4    0    0 -0.56734257459E+02  0.13020867573E+01 -0.34758439234E+03  0.35218657158E+03  0.00000000000E+00 0.  1.
</event>
<event>
12    1  0.8113184E-002  0.2432776E+03  0.7818608E-02  0.1117779E+00
         21   -1    0    0  503  502  0.00000000000E+00  0.00000000000E+00  0.50997450872E+02  0.50997450872E+02  0.00000000000E+00 0.  1.
         21   -1    0    0  501  503 -0.00000000000E+00 -0.00000000000E+00 -0.12594924636E+04  0.12594924636E+04  0.00000000000E+00 0.  1.
          6    2    1    2  501    0 -0.16980595560E+03  0.23051848197E+02 -0.79297260341E+03  0.82945136233E+03  0.17268052133E+03 0.  0.
         24    2    3    3    0    0 -0.10291298710E+03  0.74587150679E+02 -0.58099718826E+03  0.60122729860E+03  0.88103381626E+02 0.  0.
         -6    2    1    2    0  502  0.16980595560E+03 -0.23051848197E+02 -0.41552240934E+03  0.48103855216E+03  0.17138776427E+03 0.  0.
        -24    2    5    5    0    0  0.13917956247E+03  0.67053697520E+01 -0.40651830743E+03  0.43714513776E+03  0.80142526804E+02 0.  0.
          5    1    3    3  501    0 -0.66892968506E+02 -0.51535302482E+02 -0.21197541515E+03  0.22822406373E+03  0.47000000000E+01 0. -1.
        -11    1    4    4    0    0 -0.32036667597E+02  0.32382107507E+02 -0.39675387859E+03  0.39936022478E+03  0.00000000000E+00 0.  1.
         12    1    4    4    0    0 -0.70876319500E+02  0.42205043172E+02 -0.18424330967E+03  0.20186707382E+03  0.00000000000E+00 0. -1.
         -5    1    5    5    0  502  0.30626393132E+02 -0.29757217949E+02 -0.90041019081E+01  0.43893414398E+02  0.47000000000E+01 0.  1.
         13    1    6    6    0    0  0.28265807739E+02  0.30043236496E+02 -0.62058930541E+02  0.74517533549E+02  0.00000000000E+00 0. -1.
        -14    1    6    6    0    0  0.11091375473E+03 -0.23337866744E+02 -0.34445937689E+03  0.36262760421E+03  0.00000000000E+00 0.  1.
</event>
<event>
12    1  0.8113184E-002  0.1897925E+03  0.7818608E-02  0.1158954E+00
         21   -1    0    0  503  502  0.00000000000E+00  0.00000000000E+00  0.74501626142E+02  0.74501626142E+02  0.00000000000E+00 0.  1.
         21   -1    0    0  501  503 -0.00000000000E+00 -0.00000000000E+00 -0.59016750954E+03  0.59016750954E+03  0.00000000000E+00 0.  1.
          6    2    1    2  501    0  0.40621878535E+02  0.67670768733E+02 -0.40062748528E+03  0.44273435966E+03  0.17111943578E+03 0.  0.
         24    2    3    3    0    0  0.48458483085E+02  0.10935153453E+03 -0.27914477014E+03  0.31397552040E+03  0.79704717724E+02 0.  0.
         -6    2    1    2    0  502 -0.40621878535E+02 -0.67670768733E+02 -0.11503839812E+03  0.22193477603E+03  0.17260284416E+03 0.  0.
        -24    2    5    5    0    0 -0.58353626456E+02 -0.70186617535E+02 -0.17811739048E+02  0.12296075109E+03  0.80441166438E+02 0.  0.
          5    1    3    3  501    0 -0.78366045505E+01 -0.41680765796E+02 -0.12148271515E+03  0.12875883926E+03  0.47000000000E+01 0. -1.
        -13    1    4    4    0    0  0.38369015212E+02  0.21277853105E+02 -0.15723488857E+03  0.16324135060E+03  0.00000000000E+00 0.  1.
         14    1    4    4    0    0  0.10089467873E+02  0.88073681424E+02 -0.12190988156E+03  0.15073416979E+03  0.00000000000E+00 0. -1.
         -5    1    5    5    0  502  0.17731747921E+02  0.25158488023E+01 -0.97226659070E+02  0.98974024943E+02  0.47000000000E+01 0.  1.
         11    1    6    6    0    0  0.69991156914E+01  0.19275595451E+01  0.17882704017E+02  0.19300109047E+02  0.00000000000E+00 0. -1.
        -12    1    6    6    0    0 -0.65352742147E+02 -0.72114177080E+02 -0.35694443065E+02  0.10366064204E+03  0.00000000000E+00 0.  1.
</event>
<event>
12    1  0.8113184E-002  0.2089873E+03  0.7818608E-02  0.1142564E+00
         21   -1    0    0  501  502  0.00000000000E+00  0.00000000000E+00  0.57026924838E+03  0.57026924838E+03  0.00000000000E+00 0.  1.
         21   -1    0    0  502  503 -0.00000000000E+00 -0.00000000000E+00 -0.13917411787E+03  0.13917411787E+03  0.00000000000E+00 0.  1.
         -6    2    1    2    0  503 -0.11234236070E+03  0.30983234550E+02 -0.23275432144E+02  0.20931507554E+03  0.17230870053E+03 0.  0.
        -24    2    3    3    0    0 -0.26544301896E+02 -0.42396954162E+02 -0.14796413180E+02  0.96001604359E+02  0.80593253509E+02 0.  0.
          6    2    1    2  501    0  0.11234236070E+03 -0.30983234550E+02  0.45437056266E+03  0.50012829071E+03  0.17347890975E+03 0.  0.
         24    2    5    5    0    0  0.10476611991E+03 -0.63837948204E+02  0.43926668747E+03  0.46288518827E+03  0.79096468235E+02 0.  0.
          5    1    5    5  501    0  0.75762407909E+01  0.32854713654E+02  0.15103875191E+02  0.37243102443E+02  0.47000000000E+01 0. -1.
        -11    1    6    6    0    0  0.97598259241E+02 -0.23666756805E+02  0.35981875555E+03  0.37357070607E+03  0.00000000000E+00 0.  1.
         12    1    6    6    0    0  0.71678606646E+01 -0.40171191399E+02  0.79447931916E+02  0.89314482200E+02  0.00000000000E+00 0. -1.
         -5    1    3    3    0  503 -0.85798058800E+02  0.73380188712E+02 -0.84790189635E+01  0.11331347118E+03  0.47000000000E+01 0.  1.
         11    1    4    4    0    0  0.13179340962E+02  0.29370310700E+01  0.21685335797E+02  0.25545546937E+02  0.00000000000E+00 0. -1.
        -12    1    4    4    0    0 -0.39723642858E+02 -0.45333985232E+02 -0.36481748977E+02  0.70456057422E+02  0.00000000000E+00 0.  1.
</event>
<event>
12    1  0.8113184E-002  0.2531573E+03  0.7818608E-02  0.1111724E+00
         21   -1    0    0  503  502  0.00000000000E+00  0.00000000000E+00  0.13456992011E+04  0.13456992011E+04  0.00000000000E+00 0. -1.
         21   -1    0    0  501  503 -0.00000000000E+00 -0.00000000000E+00 -0.47496027749E+02  0.47496027749E+02  0.00000000000E+00 0. -1.
          6    2    1    2  501    0  0.14915729893E+03 -0.11013701603E+03  0.71210090835E+03  0.75576208433E+03  0.17236752107E+03 0.  0.
         24    2    3    3    0    0  0.87091966084E+02 -0.12752241766E+03  0.38591491999E+03  0.42323577449E+03  0.79694527918E+02 0.  0.
         -6    2    1    2    0  502 -0.14915729893E+03  0.11013701603E+03  0.58610226497E+03  0.63743314449E+03  0.16860334090E+03 0.  0.
        -24    2    5    5    0    0 -0.10697289128E+03  0.43264519641E+02  0.20568435454E+03  0.24885711383E+03  0.79427899849E+02 0.  0.
          5    1    3    3  501    0  0.62065332844E+02  0.17385401628E+02  0.32618598836E+03  0.33252630984E+03  0.47000000000E+01 0. -1.
        -13    1    4    4    0    0  0.10355133536E+02 -0.94536566877E+01  0.18163101152E+01  0.14138578350E+02  0.00000000000E+00 0.  1.
         14    1    4    4    0    0  0.76736832548E+02 -0.11806876098E+03  0.38409860987E+03  0.40909719614E+03  0.00000000000E+00 0. -1.
         -5    1    5    5    0  502 -0.42184407653E+02  0.66872496394E+02  0.38041791043E+03  0.38857603065E+03  0.47000000000E+01 0.  1.
         11    1    6    6    0    0 -0.50807045704E+02  0.61109849808E+02  0.13674797925E+03  0.15816377419E+03  0.00000000000E+00 0. -1.
        -12    1    6    6    0    0 -0.56165845571E+02 -0.17845330167E+02  0.68936375293E+02  0.90693339645E+02  0.00000000000E+00 0.  1.
</event>
<event>
12    1  0.8113184E-002  0.2015214E+03  0.7818608E-02  0.1148694E+00
         21   -1    0    0  503  502  0.00000000000E+00  0.00000000000E+00  0.12991970419E+03  0.12991970419E+03  0.00000000000E+00 0.  1.
         21   -1    0    0  501  503 -0.00000000000E+00 -0.00000000000E+00 -0.31359008850E+03  0.31359008850E+03  0.00000000000E+00 0. -1.
          6    2    1    2  501    0 -0.97680804681E+02 -0.32153763388E+02 -0.71420712267E+02  0.21380318966E+03  0.17330747723E+03 0.  0.
         24    2    3    3    0    0 -0.95267774930E+02 -0.37695387189E+02  0.11221942381E+02  0.13080661940E+03  0.80545319744E+02 0.  0.
         -6    2    1    2    0  502  0.97680804681E+02  0.32153763388E+02 -0.11224967204E+03  0.22970660303E+03  0.17201665762E+03 0.  0.
        -24    2    5    5    0    0  0.93439568401E+02  0.75191223621E+02 -0.47659106868E+02  0.15183335873E+03  0.79983156377E+02 0.  0.
          5    1    3    3  501    0 -0.24130297515E+01  0.55416238008E+01 -0.82642654648E+02  0.82996570255E+02  0.47000000000E+01 0. -1.
        -11    1    4    4    0    0  0.10902197361E+00  0.19206667081E+02  0.30209670552E+01  0.19443101298E+02  0.00000000000E+00 0.  1.
         12    1    4    4    0    0 -0.95376796903E+02 -0.56902054270E+02  0.82009753256E+01  0.11136351810E+03  0.00000000000E+00 0. -1.
         -5    1    5    5    0  502  0.42412362804E+01 -0.43037460233E+02 -0.64590565171E+02  0.77873244299E+02  0.47000000000E+01 0.  1.
         11    1    6    6    0    0  0.62503725790E+02  0.78629646155E+02 -0.61490011610E+02  0.11777248626E+03  0.00000000000E+00 0. -1.
        -12    1    6    6    0    0  0.30935842611E+02 -0.34384225345E+01  0.13830904742E+02  0.34060872472E+02  0.00000000000E+00 0.  1.
</event>
<event>
12    1  0.8113184E-002  0.1962714E+03  0.7818608E-02  0.1153004E+00
         21   -1    0    0  501  502  0.00000000000E+00  0.00000000000E+00  0.51480659370E+03  0.51480659370E+03  0.00000000000E+00 0. -1.
         21   -1    0    0  502  503 -0.00000000000E+00 -0.00000000000E+00 -0.74878391216E+02  0.74878391216E+02  0.00000000000E+00 0.  1.
         -6    2    1    2    0  503  0.92988751182E+02  0.19471006557E+02  0.23504407156E+03  0.30621591360E+03  0.17174528297E+03 0.  0.
        -24    2    3    3    0    0 -0.19333485928E+02  0.18712596941E+02  0.85469036822E+02  0.11910193456E+03  0.78462536274E+02 0.  0.
          6    2    1    2  501    0 -0.92988751182E+02 -0.19471006557E+02  0.20488413093E+03  0.28346907132E+03  0.17132185893E+03 0.  0.
         24    2    5    5    0    0 -0.84310105276E+02  0.34393541203E+02  0.19226736168E+03  0.22727315273E+03  0.79970232316E+02 0.  0.
          5    1    5    5  501    0 -0.86786459061E+01 -0.53864547759E+02  0.12616769251E+02  0.56195918592E+02  0.47000000000E+01 0. -1.
        -11    1    6    6    0    0 -0.23418712624E+02  0.49971026960E+02  0.11589345563E+03  0.12836211550E+03  0.00000000000E+00 0.  1.
         12    1    6    6    0    0 -0.60891392652E+02 -0.15577485758E+02  0.76373906045E+02  0.98911037231E+02  0.00000000000E+00 0. -1.
         -5    1    3    3    0  503  0.11232223711E+03  0.75840961592E+00  0.14957503473E+03  0.18711397904E+03  0.47000000000E+01 0.  1.
         13    1    4    4    0    0 -0.29619185103E+02  0.37623639060E+01  0.94304798271E+02  0.98918382949E+02  0.00000000000E+00 0. -1.
        -14    1    4    4    0    0  0.10285699175E+02  0.14950233035E+02 -0.88357614490E+01  0.20183551612E+02  0.00000000000E+00 0.  1.
</event>
<event>
12    1  0.8113184E-002  0.2961395E+03  0.7818608E-02  0.1087274E+00
         21   -1    0    0  503  502  0.00000000000E+00  0.00000000000E+00  0.35975450229E+03  0.35975450229E+03  0.00000000000E+00 0.  1.
         21   -1    0    0  501  503 -0.00000000000E+00 -0.00000000000E+00 -0.46334345405E+03  0.46334345405E+03  0.00000000000E+00 0.  1.
          6    2    1    2  501    0  0.84265006024E+01 -0.24090186186E+03 -0.33543562366E+03  0.44699758253E+03  0.17083637846E+03 0.  0.
         24    2    3    3    0    0 -0.46126372981E+02 -0.69150280621E+02 -0.11361155239E+03  0.16116086293E+03  0.78459131466E+02 0.  0.
         -6    2    1    2    0  502 -0.84265006024E+01  0.24090186186E+03  0.23184667190E+03  0.37610037381E+03  0.17202877362E+03 0.  0.
        -24    2    5    5    0    0  0.30795660668E+02  0.10316220198E+03  0.17864651324E+03  0.22325097499E+03  0.79596535778E+02 0.  0.
          5    1    3    3  501    0  0.54552873583E+02 -0.17175158124E+03 -0.22182407128E+03  0.28583671960E+03  0.47000000000E+01 0. -1.
        -11    1    4    4    0    0 -0.32128628842E+02 -0.37498172545E+02 -0.11639858937E+03  0.12643968263E+03  0.00000000000E+00 0.  1.
         12    1    4    4    0    0 -0.13997744139E+02 -0.31652108076E+02  0.27870369818E+01  0.34721180304E+02  0.00000000000E+00 0. -1.
         -5    1    5    5    0  502 -0.39222161270E+02  0.13773965988E+03  0.53200158655E+02  0.15284939882E+03  0.47000000000E+01 0.  1.
         11    1    6    6    0    0 -0.71453344422E+00  0.33463997524E+01  0.77890179315E+02  0.77965306278E+02  0.00000000000E+00 0. -1.
        -12    1    6    6    0    0  0.31510194112E+02  0.99815802224E+02  0.10075633393E+03  0.14528566871E+03  0.00000000000E+00 0.  1.
</event>
<event>
12    1  0.8113184E-002  0.1776375E+03  0.7818608E-02  0.1170228E+00
         21   -1    0    0  501  502  0.00000000000E+00  0.00000000000E+00  0.26736550598E+03  0.26736550598E+03  0.00000000000E+00 0.  1.
         21   -1    0    0  502  503 -0.00000000000E+00 -0.00000000000E+00 -0.12204224258E+03  0.12204224258E+03  0.00000000000E+00 0.  1.
         -6    2    1    2    0  503  0.41088574911E+02  0.82110244343E+01  0.36045387360E+02  0.18125771961E+03  0.17262502443E+03 0.  0.
        -24    2    3    3    0    0 -0.27573396165E+02 -0.65580416811E+01  0.64578431624E+02  0.10530499615E+03  0.78201459684E+02 0.  0.
          6    2    1    2  501    0 -0.41088574911E+02 -0.82110244343E+01  0.10927787604E+03  0.20815002895E+03  0.17213102117E+03 0.  0.
         24    2    5    5    0    0 -0.37743790919E+02  0.61952577148E+02  0.65054012500E+02  0.12501183873E+03  0.78314875416E+02 0.  0.
          5    1    5    5  501    0 -0.33447839924E+01 -0.70163601583E+02  0.44223863544E+02  0.83138190224E+02  0.47000000000E+01 0. -1.
        -11    1    6    6    0    0  0.76542797368E+01 -0.13553104173E+02  0.22006552057E+02  0.26954831932E+02  0.00000000000E+00 0.  1.
         12    1    6    6    0    0 -0.45398070655E+02  0.75505681322E+02  0.43047460443E+02  0.98057006796E+02  0.00000000000E+00 0. -1.
         -5    1    3    3    0  503  0.68661971076E+02  0.14769066115E+02 -0.28533044264E+02  0.75952723459E+02  0.47000000000E+01 0.  1.
         13    1    4    4    0    0 -0.52651424182E+01 -0.38891575275E+02  0.49634352604E+02  0.63275945750E+02  0.00000000000E+00 0. -1.
        -14    1    4    4    0    0 -0.22308253747E+02  0.32333533594E+02  0.14944079020E+02  0.42029050402E+02  0.00000000000E+00 0.  1.
</event>
<event>
12    1  0.8113184E-002  0.2737664E+03  0.7818608E-02  0.1099754E+00
         21   -1    0    0  501  502  0.00000000000E+00  0.00000000000E+00  0.24602530651E+03  0.24602530651E+03  0.00000000000E+00 0. -1.
         21   -1    0    0  502  503 -0.00000000000E+00 -0.00000000000E+00 -0.30094412104E+03  0.30094412104E+03  0.00000000000E+00 0. -1.
         -6    2    1    2    0  503  0.12422293777E+02  0.20689841384E+03 -0.43666334902E+02  0.27297190529E+03  0.17217910803E+03 0.  0.
        -24    2    3    3    0    0  0.26611264936E+02  0.22255583020E+03 -0.17811568472E+02  0.23925187360E+03  0.81761543991E+02 0.  0.
          6    2    1    2  501    0 -0.12422293777E+02 -0.20689841384E+03 -0.11252479626E+02  0.27399752227E+03  0.17884841872E+03 0.  0.
         24    2    5    5    0    0  0.88181546659E+01 -0.30526871085E+02  0.28391275502E+02  0.91921178213E+02  0.81448074068E+02 0.  0.
          5    1    5    5  501    0 -0.21240448443E+02 -0.17637154275E+03 -0.39643755127E+02  0.18207634405E+03  0.47000000000E+01 0. -1.
        -13    1    6    6    0    0  0.37423842998E+02 -0.52167572202E+01 -0.85971130179E+01  0.38751373303E+02  0.00000000000E+00 0.  1.
         14    1    6    6    0    0 -0.28605688332E+02 -0.25310113865E+02  0.36988388520E+02  0.53169804909E+02  0.00000000000E+00 0. -1.
         -5    1    3    3    0  503 -0.14188971159E+02 -0.15657416359E+02 -0.25854766430E+02  0.33720031684E+02  0.47000000000E+01 0.  1.
         13    1    4    4    0    0 -0.26916432516E+02  0.75693110770E+02 -0.20517508705E+02  0.82915074147E+02  0.00000000000E+00 0. -1.
        -14    1    4    4    0    0  0.53527697452E+02  0.14686271943E+03  0.27059402333E+01  0.15633679946E+03  0.00000000000E+00 0.  1.
</event>
<event>
12    1  0.8113184E-002  0.1844617E+03  0.7818608E-02  0.1163613E+00
         21   -1    0    0  501  502  0.00000000000E+00  0.00000000000E+00  0.59981626400E+02  0.59981626400E+02  0.00000000000E+00 0.  1.
         21   -1    0    0  502  503 -0.00000000000E+00 -0.00000000000E+00 -0.57231073254E+03  0.57231073254E+03  0.00000000000E+00 0.  1.
         -6    2    1    2    0  503  0.15060417645E+02 -0.62549559916E+02 -0.28821263265E+03  0.34218800539E+03  0.17287812409E+03 0.  0.
        -24    2    3    3    0    0  0.63890850370E+02 -0.12337403920E+02 -0.22646368025E+03  0.24869632184E+03  0.79560101361E+02 0.  0.
          6    2    1    2  501    0 -0.15060417645E+02  0.62549559916E+02 -0.22411647350E+03  0.29010435356E+03  0.17260671666E+03 0.  0.
         24    2    5    5    0    0 -0.59504854660E+02  0.16078127563E+02 -0.99393576041E+02  0.14970209874E+03  0.93446784302E+02 0.  0.
          5    1    5    5  501    0  0.44444437015E+02  0.46471432354E+02 -0.12472289745E+03  0.14040225481E+03  0.47000000000E+01 0. -1.
        -13    1    6    6    0    0 -0.85244496973E+01  0.49660090360E+02 -0.37872619874E+02  0.63032738742E+02  0.00000000000E+00 0.  1.
         14    1    6    6    0    0 -0.50980404963E+02 -0.33581962798E+02 -0.61520956168E+02  0.86669360003E+02  0.00000000000E+00 0. -1.
         -5    1    3    3    0  503 -0.48830432725E+02 -0.50212155997E+02 -0.61748952399E+02  0.93491683546E+02  0.47000000000E+01 0.  1.
         13    1    4    4    0    0 -0.17717026355E+02  0.64802122777E+01 -0.47367990206E+02  0.50986396913E+02  0.00000000000E+00 0. -1.
        -14    1    4    4    0    0  0.81607876724E+02 -0.18817616197E+02 -0.17909569004E+03  0.19770992493E+03  0.00000000000E+00 0.  1.
</event>
<event>
12    1  0.8113184E-002  0.1878920E+03  0.7818608E-02  0.1160536E+00
         21   -1    0    0  501  502  0.00000000000E+00  0.00000000000E+00  0.53526914327E+02  0.53526914327E+02  0.00000000000E+00 0. -1.
         21   -1    0    0  502  503 -0.00000000000E+00 -0.00000000000E+00 -0.16950864361E+04  0.16950864361E+04  0.00000000000E+00 0.  1.
         -6    2    1    2    0  503 -0.60977188519E+01 -0.75602744329E+02 -0.15055405418E+04  0.15172197406E+04  0.17190247576E+03 0.  0.
        -24    2    3    3    0    0 -0.26393393349E+02 -0.44301485605E+01 -0.49239045079E+03  0.50135919422E+03  0.90534237587E+02 0.  0.
          6    2    1    2  501    0  0.60977188519E+01  0.75602744329E+02 -0.13601897995E+03  0.23139360979E+03  0.17113995039E+03 0.  0.
         24    2    5    5    0    0 -0.40568044951E+02 -0.10594275570E+02 -0.65018381705E+02  0.11027055376E+03  0.78576078558E+02 0.  0.
          5    1    5    5  501    0  0.46665763803E+02  0.86197019899E+02 -0.71000598245E+02  0.12112305603E+03  0.47000000000E+01 0. -1.
        -13    1    6    6    0    0 -0.46243846550E+02  0.18265749149E+02 -0.14462658848E+02  0.51781265306E+02  0.00000000000E+00 0.  1.
         14    1    6    6    0    0  0.56758015991E+01 -0.28860024719E+02 -0.50555722857E+02  0.58489288457E+02  0.00000000000E+00 0. -1.
         -5    1    3    3    0  503  0.20295674497E+02 -0.71172595768E+02 -0.10131500910E+04  0.10158605464E+04  0.47000000000E+01 0.  1.
         11    1    4    4    0    0  0.17924588761E+02 -0.32056741055E+02 -0.12527685267E+03  0.13054966620E+03  0.00000000000E+00 0. -1.
        -12    1    4    4    0    0 -0.44317982110E+02  0.27626592495E+02 -0.36711359812E+03  0.37080952802E+03  0.00000000000E+00 0.  1.
</event>
<event>
12    1  0.8113184E-002  0.1794449E+03  0.7818608E-02  0.1169595E+00
         21   -1    0    0  501  502  0.00000000000E+00  0.00000000000E+00  0.10929780371E+03  0.10929780371E+03  0.00000000000E+00 0. -1.
         21   -1    0    0  502  503 -0.00000000000E+00 -0.00000000000E+00 -0.38426349778E+03  0.38426349778E+03  0.00000000000E+00 0. -1.
         -6    2    1    2    0  503 -0.16708257395E+02 -0.23752902878E+02 -0.26353141588E+03  0.31882484073E+03  0.17707937670E+03 0.  0.
        -24    2    3    3    0    0 -0.23316228337E+02  0.30181055171E+02 -0.24587456272E+03  0.26149778278E+03  0.80450277861E+02 0.  0.
          6    2    1    2  501    0  0.16708257395E+02  0.23752902878E+02 -0.11434278190E+02  0.17473646075E+03  0.17192650098E+03 0.  0.
         24    2    5    5    0    0  0.71892949492E+02  0.27367475418E+02 -0.30969299452E+02  0.11589665762E+03  0.80965195252E+02 0.  0.
          5    1    5    5  501    0 -0.55184692097E+02 -0.36145725407E+01  0.19535021263E+02  0.58839803129E+02  0.47000000000E+01 0. -1.
        -11    1    6    6    0    0  0.16095553537E+02 -0.17805988743E+02 -0.36727110338E+02  0.43874830058E+02  0.00000000000E+00 0.  1.
         12    1    6    6    0    0  0.55797395955E+02  0.45173464161E+02  0.57578108859E+01  0.72021827566E+02  0.00000000000E+00 0. -1.
         -5    1    3    3    0  503  0.66079709417E+01 -0.53933958049E+02 -0.17656853157E+02  0.57327057959E+02  0.47000000000E+01 0.  1.
         13    1    4    4    0    0  0.28449026868E+02 -0.48148370167E+00 -0.91126383475E+02  0.95465159726E+02  0.00000000000E+00 0. -1.
        -14    1    4    4    0    0 -0.51765255205E+02  0.30662538873E+02 -0.15474817925E+03  0.16603262305E+03  0.00000000000E+00 0.  1.
</event>
<event>
12    1  0.8113184E-002  0.2224561E+03  0.7818608E-02  0.1135393E+00
         21   -1    0    0  501  502  0.00000000000E+00  0.00000000000E+00  0.33713838249E+03  0.33713838249E+03  0.00000000000E+00 0.  1.
         21   -1    0    0  502  503 -0.00000000000E+00 -0.00000000000E+00 -0.16275419377E+03  0.16275419377E+03  0.00000000000E+00 0. -1.
         -6    2    1    2    0  503  0.36933938013E+02 -0.11178900611E+03 -0.17852235638E+02  0.20588312577E+03  0.16795315268E+03 0.  0.
        -24    2    3    3    0    0  0.35571167645E+02  0.93600751285E+00 -0.28007098578E+02  0.92595893122E+02  0.80767677784E+02 0.  0.
          6    2    1    2  501    0 -0.36933938013E+02  0.11178900611E+03  0.19223642436E+03  0.29400945049E+03  0.18874802373E+03 0.  0.
         24    2    5    5    0    0  0.78900890557E+01  0.16437568483E+02  0.16668596555E+03  0.18549214309E+03  0.79313787418E+02 0.  0.
          5    1    5    5  501    0 -0.44824027069E+02  0.95351437626E+02  0.25550458813E+02  0.10851730740E+03  0.47000000000E+01 0. -1.
        -11    1    6    6    0    0 -0.26382790103E+02 -0.11560617457E+02  0.10925356869E+03  0.11298690969E+03  0.00000000000E+00 0.  1.
         12    1    6    6    0    0  0.34272879159E+02  0.27998185941E+02  0.57432396862E+02  0.72505233405E+02  0.00000000000E+00 0. -1.
         -5    1    3    3    0  503  0.13627703684E+01 -0.11272501362E+03  0.10154862940E+02  0.11328723265E+03  0.47000000000E+01 0.  1.
         13    1    4    4    0    0  0.26202811938E+02 -0.39133200843E+02 -0.14144559548E+02  0.49173807321E+02  0.00000000000E+00 0. -1.
        -14    1    4    4    0    0  0.93683557070E+01  0.40069208356E+02 -0.13862539030E+02  0.43422085801E+02  0.00000000000E+00 0.  1.
</event>
<event>
12    1  0.8113184E-002  0.2421503E+03  0.7818608E-02  0.1118727E+00
         21   -1    0    0  501  502  0.00000000000E+00  0.00000000000E+00  0.13054898939E+03  0.13054898939E+03  0.00000000000E+00 0.  1.
         21   -1    0    0  502  503 -0.00000000000E+00 -0.00000000000E+00 -0.45795968831E+03  0.45795968831E+03  0.00000000000E+00 0.  1.
         -6    2    1    2    0  503 -0.12622807877E+03  0.10920122093E+03 -0.21220184276E+03  0.32034854350E+03  0.17243877965E+03 0.  0.
        -24    2    3    3    0    0 -0.73085664912E+02  0.97676267582E+02 -0.22082854814E+03  0.26509050566E+03  0.81397548179E+02 0.  0.
          6    2    1    2  501    0  0.12622807877E+03 -0.10920122093E+03 -0.11520885616E+03  0.26816013421E+03  0.17543757443E+03 0.  0.
         24    2    5    5    0    0  0.70961529399E+02  0.12090110569E+02 -0.55498125395E+02  0.12203197148E+03  0.81425123344E+02 0.  0.
          5    1    5    5  501    0  0.55266549369E+02 -0.12129133150E+03 -0.59710730761E+02  0.14612816273E+03  0.47000000000E+01 0. -1.
        -11    1    6    6    0    0  0.67832481497E+02 -0.10000420709E+02 -0.67907369092E+02  0.96502148874E+02  0.00000000000E+00 0.  1.
         12    1    6    6    0    0  0.31290479023E+01  0.22090531278E+02  0.12409243697E+02  0.25529822601E+02  0.00000000000E+00 0. -1.
         -5    1    3    3    0  503 -0.53142413857E+02  0.11524953348E+02  0.86267053819E+01  0.55258037840E+02  0.47000000000E+01 0.  1.
         11    1    4    4    0    0 -0.10177757646E+01  0.26862327408E+01  0.72099126424E+01  0.77610923300E+01  0.00000000000E+00 0. -1.
        -12    1    4    4    0    0 -0.72067889147E+02  0.94990034841E+02 -0.22803846079E+03  0.25732941333E+03  0.00000000000E+00 0.  1.
</event>
<event>
12    1  0.8113184E-002  0.1803665E+03  0.7818608E-02  0.1167992E+00
         21   -1    0    0  503  502  0.00000000000E+00  0.00000000000E+00  0.20874129382E+02  0.20874129382E+02  0.00000000000E+00 0.  1.
         21   -1    0    0  501  503 -0.00000000000E+00 -0.00000000000E+00 -0.16504080791E+04  0.16504080791E+04  0.00000000000E+00 0.  1.
          6    2    1    2  501    0 -0.48552468163E+02  0.65133903302E+00 -0.60262324138E+03  0.62903644200E+03  0.17370753554E+03 0.  0.
         24    2    3    3    0    0 -0.91549423961E+02  0.20632020332E+02 -0.51666891689E+03  0.53076029163E+03  0.77154003114E+02 0.  0.
         -6    2    1    2    0  502  0.48552468163E+02 -0.65133903302E+00 -0.10269107084E+04  0.10422457665E+04  0.17138514653E+03 0.  0.
        -24    2    5    5    0    0 -0.26352165807E+02  0.56196115753E+01 -0.68385672055E+03  0.69102196668E+03  0.95526580161E+02 0.  0.
          5    1    3    3  501    0  0.42996955799E+02 -0.19980681299E+02 -0.85954324489E+02  0.98276150370E+02  0.47000000000E+01 0. -1.
        -11    1    4    4    0    0  0.11805927671E+02 -0.13759949919E+01 -0.22794963433E+02  0.25707657386E+02  0.00000000000E+00 0.  1.
         12    1    4    4    0    0 -0.10335535163E+03  0.22008015324E+02 -0.49387395346E+03  0.50505263424E+03  0.00000000000E+00 0. -1.
         -5    1    5    5    0  502  0.74904633970E+02 -0.62709506083E+01 -0.34305398781E+03  0.35122379983E+03  0.47000000000E+01 0.  1.
         11    1    6    6    0    0  0.15346219954E+02 -0.35721129487E+02 -0.21310589281E+03  0.21662323769E+03  0.00000000000E+00 0. -1.
        -12    1    6    6    0    0 -0.41698385761E+02  0.41340741062E+02 -0.47075082774E+03  0.47439872899E+03  0.00000000000E+00 0.  1.
</event>
<event>
12    1  0.8113184E-002  0.2971005E+03  0.7818608E-02  0.1086949E+00
         21   -1    0    0  503  502  0.00000000000E+00  0.00000000000E+00  0.10146094176E+04  0.10146094176E+04  0.00000000000E+00 0.  1.
         21   -1    0    0  501  503 -0.00000000000E+00 -0.00000000000E+00 -0.87098899245E+02  0.87098899245E+02  0.00000000000E+00 0.  1.
          6    2    1    2  501    0  0.16183723909E+03 -0.17744989203E+03  0.41674374630E+03  0.51180469516E+03  0.17489694043E+03 0.  0.
         24    2    3    3    0    0  0.14061778903E+03 -0.66533124537E+02  0.18692506330E+03  0.25569629735E+03  0.78991125689E+02 0.  0.
         -6    2    1    2    0  502 -0.16183723909E+03  0.17744989203E+03  0.51076677204E+03  0.58990362167E+03  0.17153376139E+03 0.  0.
        -24    2    5    5    0    0 -0.59041314658E+02  0.53570613270E+02  0.32493345087E+03  0.34399878023E+03  0.79985785355E+02 0.  0.
          5    1    3    3  501    0  0.21219450060E+02 -0.11091676750E+03  0.22981868300E+03  0.25610839781E+03  0.47000000000E+01 0. -1.
        -11    1    4    4    0    0  0.69693272128E+02 -0.49885791572E+02  0.46526021137E+02  0.97521356756E+02  0.00000000000E+00 0.  1.
         12    1    4    4    0    0  0.70924516905E+02 -0.16647332965E+02  0.14039904216E+03  0.15817494060E+03  0.00000000000E+00 0. -1.
         -5    1    5    5    0  502 -0.10279592443E+03  0.12387927876E+03  0.18583332117E+03  0.24590484144E+03  0.47000000000E+01 0.  1.
         11    1    6    6    0    0  0.18540788385E+02  0.35988960554E+01  0.35527154702E+02  0.40235452129E+02  0.00000000000E+00 0. -1.
        -12    1    6    6    0    0 -0.77582103044E+02  0.49971717214E+02  0.28940629617E+03  0.30376332810E+03  0.00000000000E+00 0.  1.
</event>
<event>
12    1  0.8113184E-002  0.1975717E+03  0.7818608E-02  0.1152953E+00
         21   -1    0    0  503  502  0.00000000000E+00  0.00000000000E+00  0.13511653860E+03  0.13511653860E+03  0.00000000000E+00 0.  1.
         21   -1    0    0  501  503 -0.00000000000E+00 -0.00000000000E+00 -0.36120773614E+03  0.36120773614E+03  0.00000000000E+00 0.  1.
          6    2    1    2  501    0  0.83969172859E+02  0.61507742479E+01 -0.23100820115E+03  0.30397266696E+03  0.17873426993E+03 0.  0.
         24    2    3    3    0    0  0.27951264117E+02 -0.59464201040E+02 -0.16803866031E+03  0.19705875694E+03  0.79233187229E+02 0.  0.
         -6    2    1    2    0  502 -0.83969172859E+02 -0.61507742479E+01  0.49170036090E+01  0.19235160778E+03  0.17287657469E+03 0.  0.
        -24    2    5    5    0    0  0.16702470248E+02 -0.29102615110E+02  0.18576996871E+02  0.88091106431E+02  0.79303237644E+02 0.  0.
          5    1    3    3  501    0  0.56017908742E+02  0.65614975288E+02 -0.62969540843E+02  0.10691391002E+03  0.47000000000E+01 0. -1.
        -11    1    4    4    0    0  0.34042947502E+02 -0.40699336456E+02 -0.37345417639E+02  0.64884809325E+02  0.00000000000E+00 0.  1.
         12    1    4    4    0    0 -0.60916833850E+01 -0.18764864585E+02 -0.13069324267E+03  0.13217394762E+03  0.00000000000E+00 0. -1.
         -5    1    5    5    0  502 -0.10067164311E+03  0.22951840862E+02 -0.13659993262E+02  0.10426050135E+03  0.47000000000E+01 0.  1.
         11    1    6    6    0    0  0.22849726041E+02 -0.53272416078E+02  0.23712406408E+02  0.62628575847E+02  0.00000000000E+00 0. -1.
        -12    1    6    6    0    0 -0.61472557931E+01  0.24169800968E+02 -0.51354095373E+01  0.25462530584E+02  0.00000000000E+00 0.  1.
</event>
<event>
12    1  0.8113184E-002  0.2294616E+03  0.7818608E-02  0.1127403E+00
         21   -1    0    0  503  502  0.00000000000E+00  0.00000000000E+00  0.55592682393E+02  0.55592682393E+02  0.00000000000E+00 0.  1.
         21   -1    0    0  501  503 -0.00000000000E+00 -0.00000000000E+00 -0.13625349507E+04  0.13625349507E+04  0.00000000000E+00 0. -1.
          6    2    1    2  501    0  0.99670708411E+02 -0.11079707485E+03 -0.10512932966E+04  0.10760437892E+04  0.17447750266E+03 0.  0.
         24    2    3    3    0    0  0.10753644836E+02  0.35003861614E+01 -0.37022627533E+03  0.37973600436E+03  0.83690169595E+02 0.  0.
         -6    2    1    2    0  502 -0.99670708411E+02  0.11079707485E+03 -0.25564897169E+03  0.34208384386E+03  0.17162376756E+03 0.  0.
        -24    2    5    5    0    0 -0.12876918642E+03  0.88165265120E+02 -0.24709080136E+03  0.30394918097E+03  0.83526182445E+02 0.  0.
          5    1    3    3  501    0  0.88917063575E+02 -0.11429746101E+03 -0.68106702129E+03  0.69630778488E+03  0.47000000000E+01 0. -1.
        -11    1    4    4    0    0 -0.30807336625E+02 -0.16889534013E+02 -0.21144139459E+03  0.21434041078E+03  0.00000000000E+00 0.  1.
         12    1    4    4    0    0  0.41560981461E+02  0.20389920175E+02 -0.15878488074E+03  0.16539559358E+03  0.00000000000E+00 0. -1.
         -5    1    5    5    0  502  0.29098478008E+02  0.22631809729E+02 -0.85581703390E+01  0.38134662888E+02  0.47000000000E+01 0.  1.
         13    1    6    6    0    0 -0.53539818940E+00  0.28424205164E+02 -0.80630895701E+02  0.85495984888E+02  0.00000000000E+00 0. -1.
        -14    1    6    6    0    0 -0.12823378823E+03  0.59741059956E+02 -0.16645990565E+03  0.21845319608E+03  0.00000000000E+00 0.  1.
</event>
<event>
12    1  0.8113184E-002  0.1761897E+03  0.7818608E-02  0.1171927E+00
         21   -1    0    0  503  502  0.00000000000E+00  0.00000000000E+00  0.14659360798E+03  0.14659360798E+03  0.00000000000E+00 0.  1.
         21   -1    0    0  501  503 -0.00000000000E+00 -0.00000000000E+00 -0.38259386524E+03  0.38259386524E+03  0.00000000000E+00 0.  1.
          6    2    1    2  501    0  0.21881851260E+02  0.12748824743E+02 -0.29604074646E+03  0.34450391191E+03  0.17436018411E+03 0.  0.
         24    2    3    3    0    0  0.14185354762E+02 -0.49199717340E+02 -0.24708238720E+03  0.26503147098E+03  0.81056388210E+02 0.  0.
         -6    2    1    2    0  502 -0.21881851260E+02 -0.12748824743E+02  0.60040489210E+02  0.18468356132E+03  0.17280569877E+03 0.  0.
        -24    2    5    5    0    0 -0.77515198160E+02  0.13678397848E+02  0.32183214295E+02  0.11692232500E+03  0.80245662112E+02 0.  0.
          5    1    3    3  501    0  0.76964964981E+01  0.61948542084E+02 -0.48958359261E+02  0.79472440923E+02  0.47000000000E+01 0. -1.
        -11    1    4    4    0    0 -0.21527274188E+02 -0.54055212758E+02 -0.17539659110E+03  0.18479543753E+03  0.00000000000E+00 0.  1.
         12    1    4    4    0    0  0.35712628950E+02  0.48554954180E+01 -0.71685796100E+02  0.80236033456E+02  0.00000000000E+00 0. -1.
         -5    1    5    5    0  502  0.55633346900E+02 -0.26427222592E+02  0.27857274915E+02  0.67761236315E+02  0.47000000000E+01 0.  1.
         11    1    6    6    0    0 -0.33640234084E+02  0.17820934468E+02 -0.24388277764E+02  0.45211051159E+02  0.00000000000E+00 0. -1.
        -12    1    6    6    0    0 -0.43874964076E+02 -0.41425366201E+01  0.56571492059E+02  0.71711273842E+02  0.00000000000E+00 0.  1.
</event>
<event>
12    1  0.8113184E-002  0.1943463E+03  0.7818608E-02  0.1155022E+00
         21   -1    0    0  503  502  0.00000000000E+00  0.00000000000E+00  0.25505644052E+02  0.25505644052E+02  0.00000000000E+00 0.  1.
         21   -1    0    0  501  503 -0.00000000000E+00 -0.00000000000E+00 -0.14773393328E+04  0.14773393328E+04  0.00000000000E+00 0.  1.
          6    2    1    2  501    0 -0.86386183351E+02  0.17350824791E+01 -0.78740822411E+03  0.81057936406E+03  0.17193490299E+03 0.  0.
         24    2    3    3    0    0 -0.28263282272E+02  0.42799509886E+02 -0.25801855924E+03  0.27640704533E+03  0.84833169372E+02 0.  0.
         -6    2    1    2    0  502  0.86386183351E+02 -0.17350824791E+01 -0.66442546469E+03  0.69226561284E+03  0.17408301872E+03 0.  0.
        -24    2    5    5    0    0  0.98031188648E+01  0.50890977480E+02 -0.28700406776E+03  0.30354531646E+03  0.84157183348E+02 0.  0.
          5    1    3    3  501    0 -0.58122901078E+02 -0.41064427407E+02 -0.52938966487E+03  0.53417231873E+03  0.47000000000E+01 0. -1.
        -13    1    4    4    0    0  0.11527757618E+02  0.23173302444E+02 -0.16160646019E+02  0.30513236826E+02  0.00000000000E+00 0.  1.
         14    1    4    4    0    0 -0.39791039890E+02  0.19626207443E+02 -0.24185791322E+03  0.24589380851E+03  0.00000000000E+00 0. -1.
         -5    1    5    5    0  502  0.76583064486E+02 -0.52626059959E+02 -0.37742139693E+03  0.38872029637E+03  0.47000000000E+01 0.  1.
         11    1    6    6    0    0  0.40029256139E+02  0.50569575703E+02 -0.15054855305E+03  0.16378183709E+03  0.00000000000E+00 0. -1.
        -12    1    6    6    0    0 -0.30226137274E+02  0.32140177730E+00 -0.13645551471E+03  0.13976347938E+03  0.00000000000E+00 0.  1.
</event>
<event>
12    1  0.8113184E-002  0.1953457E+03  0.7818608E-02  0.1153904E+00
         21   -1    0    0  503  502  0.00000000000E+00  0.00000000000E+00  0.11065678422E+04  0.11065678422E+04  0.00000000000E+00 0. -1.
         21   -1    0    0  501  503 -0.00000000000E+00 -0.00000000000E+00 -0.13333661354E+03  0.13333661354E+03  0.00000000000E+00 0. -1.
          6    2    1    2  501    0  0.63179859860E+02  0.68145308235E+02 -0.47306097615E+02  0.20099205642E+03  0.17182683768E+03 0.  0.
         24    2    3    3    0    0 -0.19155582355E+02  0.59853960189E+01 -0.53099857840E+02  0.97557838730E+02  0.79342143242E+02 0.  0.
         -6    2    1    2    0  502 -0.63179859860E+02 -0.68145308235E+02  0.10205373263E+04  0.10389123993E+04  0.17090073556E+03 0.  0.
        -24    2    5    5    0    0 -0.18262172229E+02  0.26883318273E+02  0.34075502733E+03  0.35103588244E+03  0.77820192580E+02 0.  0.
          5    1    3    3  501    0  0.82335442214E+02  0.62159912216E+02  0.57937602249E+01  0.10343421769E+03  0.47000000000E+01 0. -1.
        -11    1    4    4    0    0  0.21177114236E+02 -0.11483294207E+02  0.51015380211E+01  0.24624416813E+02  0.00000000000E+00 0.  1.
         12    1    4    4    0    0 -0.40332696590E+02  0.17468690226E+02 -0.58201395861E+02  0.72933421918E+02  0.00000000000E+00 0. -1.
         -5    1    5    5    0  502 -0.44917687630E+02 -0.95028626508E+02  0.67978229896E+03  0.68787651690E+03  0.47000000000E+01 0.  1.
         11    1    6    6    0    0 -0.25566010814E+02 -0.12994003023E+02  0.51440408694E+02  0.58894657399E+02  0.00000000000E+00 0. -1.
        -12    1    6    6    0    0  0.73038385840E+01  0.39877321296E+02  0.28931461864E+03  0.29214122504E+03  0.00000000000E+00 0.  1.
</event>
<event>
12    1  0.8113184E-002  0.1997607E+03  0.7818608E-02  0.1149987E+00
         21   -1    0    0  503  502  0.00000000000E+00  0.00000000000E+00  0.75764643000E+02  0.75764643000E+02  0.00000000000E+00 0. -1.
         21   -1    0    0  501  503 -0.00000000000E+00 -0.00000000000E+00 -0.53056023632E+03  0.53056023632E+03  0.00000000000E+00 0.  1.
          6    2    1    2  501    0 -0.98080160458E+02 -0.22827270940E+02 -0.19975932400E+03  0.28250333237E+03  0.17252113812E+03 0.  0.
         24    2    3    3    0    0  0.17056819773E+02 -0.24859472368E+02 -0.89010883312E+02  0.12266603642E+03  0.78835846397E+02 0.  0.
         -6    2    1    2    0  502  0.98080160458E+02  0.22827270940E+02 -0.25503626932E+03  0.32382154695E+03  0.17226750543E+03 0.  0.
        -24    2    5    5    0    0  0.10245501305E+03  0.23767527418E+02 -0.11829789935E+03  0.18692927091E+03  0.99429544279E+02 0.  0.
          5    1    3    3  501    0 -0.11513698023E+03  0.20322014280E+01 -0.11074844069E+03  0.15983729594E+03  0.47000000000E+01 0. -1.
        -11    1    4    4    0    0  0.60353396083E+01  0.21375255442E+02 -0.51860958706E+00  0.22217016571E+02  0.00000000000E+00 0.  1.
         12    1    4    4    0    0  0.11021480165E+02 -0.46234727810E+02 -0.88492273725E+02  0.10044901985E+03  0.00000000000E+00 0. -1.
         -5    1    5    5    0  502 -0.43748525896E+01 -0.94025647772E+00 -0.13673836996E+03  0.13689227603E+03  0.47000000000E+01 0.  1.
         11    1    6    6    0    0  0.22824242064E+02 -0.28548188940E+02 -0.20272518819E+01  0.36606759864E+02  0.00000000000E+00 0. -1.
        -12    1    6    6    0    0  0.79630770984E+02  0.52315716358E+02 -0.11627064747E+03  0.15032251105E+03  0.00000000000E+00 0.  1.
</event>
<event>
12    1  0.8113184E-002  0.3253443E+03  0.7818608E-02  0.1073392E+00
         21   -1    0    0  503  502  0.00000000000E+00  0.00000000000E+00  0.32683105516E+03  0.32683105516E+03  0.00000000000E+00 0. -1.
         21   -1    0    0  501  503 -0.00000000000E+00 -0.00000000000E+00 -0.32231433848E+03  0.32231433848E+03  0.00000000000E+00 0. -1.
          6    2    1    2  501    0 -0.90679666703E+02 -0.25990783469E+03  0.33120028469E+01  0.32536120634E+03  0.17341874392E+03 0.  0.
         24    2    3    3    0    0 -0.79255368251E+02 -0.13314603817E+03  0.61848190559E+02  0.18519115632E+03  0.80382117577E+02 0.  0.
         -6    2    1    2    0  502  0.90679666703E+02  0.25990783469E+03  0.12047138297E+01  0.32378418730E+03  0.17046954018E+03 0.  0.
        -24    2    5    5    0    0 -0.47973821588E+01  0.12859985834E+03  0.40490643658E+02  0.15668204550E+03  0.79679562747E+02 0.  0.
          5    1    3    3  501    0 -0.11424298452E+02 -0.12676179652E+03 -0.58536187712E+02  0.14017005002E+03  0.47000000000E+01 0. -1.
        -13    1    4    4    0    0 -0.48071927910E+02 -0.12142974728E+02  0.18828591229E+02  0.53036571683E+02  0.00000000000E+00 0.  1.
         14    1    4    4    0    0 -0.31183440341E+02 -0.12100306344E+03  0.43019599330E+02  0.13215458463E+03  0.00000000000E+00 0. -1.
         -5    1    5    5    0  502  0.95477048862E+02  0.13130797635E+03 -0.39285929828E+02  0.16710214180E+03  0.47000000000E+01 0.  1.
         13    1    6    6    0    0 -0.34722485301E+02  0.10052644058E+03  0.12666712159E+02  0.10710584409E+03  0.00000000000E+00 0. -1.
        -14    1    6    6    0    0  0.29925103142E+02  0.28073417757E+02  0.27823931499E+02  0.49576201414E+02  0.00000000000E+00 0.  1.
</event>
<event>
12    1  0.8113184E-002  0.2228303E+03  0.7818608E-02  0.1132256E+00
         21   -1    0    0  501  502  0.00000000000E+00  0.00000000000E+00  0.16260296628E+03  0.16260296628E+03  0.00000000000E+00 0. -1.
         21   -1    0    0  502  503 -0.00000000000E+00 -0.00000000000E+00 -0.10372766504E+04  0.10372766504E+04  0.00000000000E+00 0. -1.
         -6    2    1    2    0  503  0.77765140463E+02 -0.11237247355E+03 -0.94319627915E+03  0.96916075015E+03  0.17600667245E+03 0.  0.
        -24    2    3    3    0    0  0.72611031158E+02 -0.12585370318E+03 -0.93893078854E+03  0.95339392405E+03  0.79103933507E+02 0.  0.
          6    2    1    2  501    0 -0.77765140463E+02  0.11237247355E+03  0.68522595079E+02  0.23071886649E+03  0.17280294973E+03 0.  0.
         24    2    5    5    0    0 -0.10807841112E+03  0.40028177960E+02  0.60009472271E+02  0.15167992203E+03  0.78246175638E+02 0.  0.
          5    1    5    5  501    0  0.30313270660E+02  0.72344295587E+02  0.85131228079E+01  0.79038944464E+02  0.47000000000E+01 0. -1.
        -13    1    6    6    0    0 -0.10110527091E+01  0.17670959259E+02  0.35385948899E+02  0.39565773191E+02  0.00000000000E+00 0.  1.
         14    1    6    6    0    0 -0.10706735841E+03  0.22357218702E+02  0.24623523372E+02  0.11211414884E+03  0.00000000000E+00 0. -1.
         -5    1    3    3    0  503  0.51541093050E+01  0.13481229634E+02 -0.42654906117E+01  0.15766826102E+02  0.47000000000E+01 0.  1.
         11    1    4    4    0    0  0.45057788398E+02 -0.26455107378E+02 -0.48939383400E+03  0.49217517386E+03  0.00000000000E+00 0. -1.
        -12    1    4    4    0    0  0.27553242759E+02 -0.99398595803E+02 -0.44953695453E+03  0.46121875019E+03  0.00000000000E+00 0.  1.
</event>
<event>
12    1  0.8113184E-002  0.1744523E+03  0.7818608E-02  0.1176844E+00
         21   -1    0    0  501  502  0.00000000000E+00  0.00000000000E+00  0.36200971172E+03  0.36200971172E+03  0.00000000000E+00 0. -1.
         21   -1    0    0  502  503 -0.00000000000E+00 -0.00000000000E+00 -0.94208651782E+02  0.94208651782E+02  0.00000000000E+00 0. -1.
         -6    2    1    2    0  503  0.29647722297E+02 -0.71510566260E+01  0.33943922118E+02  0.16446029856E+03  0.15800276867E+03 0.  0.
        -24    2    3    3    0    0 -0.49933120650E+01  0.49362547376E+02  0.12847163379E+02  0.94739771254E+02  0.79680489466E+02 0.  0.
          6    2    1    2  501    0 -0.29647722297E+02  0.71510566260E+01  0.23385713782E+03  0.29175806494E+03  0.17176577802E+03 0.  0.
         24    2    5    5    0    0 -0.29428584254E+02  0.29855016112E+02  0.24857217789E+03  0.26429645169E+03  0.79417398574E+02 0.  0.
          5    1    5    5  501    0 -0.21913804228E+00 -0.22703959486E+02 -0.14715040073E+02  0.27461613247E+02  0.47000000000E+01 0. -1.
        -13    1    6    6    0    0 -0.51453087397E+00 -0.23091827834E+02  0.12092950296E+03  0.12311556336E+03  0.00000000000E+00 0.  1.
         14    1    6    6    0    0 -0.28914053380E+02  0.52946843946E+02  0.12764267493E+03  0.14118088833E+03  0.00000000000E+00 0. -1.
         -5    1    3    3    0  503  0.34641034362E+02 -0.56513604002E+02  0.21096758739E+02  0.69720527309E+02  0.47000000000E+01 0.  1.
         11    1    4    4    0    0 -0.37140637808E+01 -0.68186895389E+01  0.33863787524E+02  0.34742551753E+02  0.00000000000E+00 0. -1.
        -12    1    4    4    0    0 -0.12792482841E+01  0.56181236915E+02 -0.21016624145E+02  0.59997219502E+02  0.00000000000E+00 0.  1.
</event>
<event>
12    1  0.8113184E-002  0.1823466E+03  0.7818608E-02  0.1165560E+00
         21   -1    0    0  503  502  0.00000000000E+00  0.00000000000E+00  0.18488604628E+03  0.18488604628E+03  0.00000000000E+00 0. -1.
         21   -1    0    0  501  503 -0.00000000000E+00 -0.00000000000E+00 -0.20139152034E+03  0.20139152034E+03  0.00000000000E+00 0. -1.
          6    2    1    2  501    0 -0.26720091435E+02  0.57459611106E+02 -0.71484652832E+02  0.19582285784E+03  0.17094141063E+03 0.  0.
         24    2    3    3    0    0  0.52998566098E+00 -0.33516294245E+02 -0.19925954834E+02  0.87658300824E+02  0.78506758707E+02 0.  0.
         -6    2    1    2    0  502  0.26720091435E+02 -0.57459611106E+02  0.54979178768E+02  0.19045470877E+03  0.17098162416E+03 0.  0.
        -24    2    5    5    0    0 -0.23685598284E+02 -0.38720577455E+02  0.84741564150E+02  0.12881239764E+03  0.85739199940E+02 0.  0.
          5    1    3    3  501    0 -0.27250077096E+02  0.90975905350E+02 -0.51558697999E+02  0.10816455702E+03  0.47000000000E+01 0. -1.
        -11    1    4    4    0    0 -0.17823261078E+02 -0.29753598527E+02  0.22457101833E+02  0.41319083769E+02  0.00000000000E+00 0.  1.
         12    1    4    4    0    0  0.18353246739E+02 -0.37626957178E+01 -0.42383056666E+02  0.46339217055E+02  0.00000000000E+00 0. -1.
         -5    1    5    5    0  502  0.50405689718E+02 -0.18739033651E+02 -0.29762385382E+02  0.61642311133E+02  0.47000000000E+01 0.  1.
         11    1    6    6    0    0  0.65265902481E+01  0.20825074930E+02  0.47697698631E+02  0.52453318111E+02  0.00000000000E+00 0. -1.
        -12    1    6    6    0    0 -0.30212188532E+02 -0.59545652385E+02  0.37043865519E+02  0.76359079528E+02  0.00000000000E+00 0.  1.
</event>
<event>
12    1  0.8113184E-002  0.1781412E+03  0.7818608E-02  0.1169615E+00
         21   -1    0    0  501  502  0.00000000000E+00  0.00000000000E+00  0.30203974509E+03  0.30203974509E+03  0.00000000000E+00 0. -1.
         21   -1    0    0  502  503 -0.00000000000E+00 -0.00000000000E+00 -0.26610165045E+03  0.26610165045E+03  0.00000000000E+00 0. -1.
         -6    2    1    2    0  503  0.25305826644E+02  0.36440389215E+02 -0.20301709941E+03  0.27009127876E+03  0.17252556154E+03 0.  0.
        -24    2    3    3    0    0  0.61264128763E+02 -0.23308748283E+02 -0.15103720591E+03  0.18298813157E+03  0.79848778992E+02 0.  0.
          6    2    1    2  501    0 -0.25305826644E+02 -0.36440389215E+02  0.23895519404E+03  0.29805011678E+03  0.17252826007E+03 0.  0.
         24    2    5    5    0    0  0.20254336029E+02  0.78438672231E+01  0.46733135111E+02  0.95545218737E+02  0.80455817224E+02 0.  0.
          5    1    5    5  501    0 -0.45560162673E+02 -0.44284256438E+02  0.19222205893E+03  0.20250489804E+03  0.47000000000E+01 0. -1.
        -13    1    6    6    0    0  0.46117178181E+02  0.24799757614E+02  0.27804910261E+02  0.59286888396E+02  0.00000000000E+00 0.  1.
         14    1    6    6    0    0 -0.25862842152E+02 -0.16955890391E+02  0.18928224849E+02  0.36258330340E+02  0.00000000000E+00 0. -1.
         -5    1    3    3    0  503 -0.35958302119E+02  0.59749137498E+02 -0.51979893498E+02  0.87103147194E+02  0.47000000000E+01 0.  1.
         11    1    4    4    0    0  0.51594145915E+02  0.22608512714E+02 -0.79481655048E+02  0.97418859719E+02  0.00000000000E+00 0. -1.
        -12    1    4    4    0    0  0.96699828479E+01 -0.45917260997E+02 -0.71555550862E+02  0.85569271850E+02  0.00000000000E+00 0.  1.
</event>
<event>
12    1  0.8113184E-002  0.1841549E+03  0.7818608E-02  0.1164457E+00
         21   -1    0    0  501  502  0.00000000000E+00  0.00000000000E+00  0.35240557912E+03  0.35240557912E+03  0.00000000000E+00 0.  1.
         21   -1    0    0  502  503 -0.00000000000E+00 -0.00000000000E+00 -0.43098327674E+03  0.43098327674E+03  0.00000000000E+00 0.  1.
         -6    2    1    2    0  503  0.41881438235E+02 -0.33806525775E+02 -0.38512821501E+03  0.42577697769E+03  0.17339364659E+03 0.  0.
        -24    2    3    3    0    0  0.38800081874E+02 -0.30643125293E+01 -0.38404089938E+03  0.39450637348E+03  0.81443415652E+02 0.  0.
          6    2    1    2  501    0 -0.41881438235E+02  0.33806525775E+02  0.30655051740E+03  0.35761187817E+03  0.17611388258E+03 0.  0.
         24    2    5    5    0    0  0.28063102090E+02 -0.19722703743E+02  0.20800800846E+03  0.22536085472E+03  0.79647099865E+02 0.  0.
          5    1    5    5  501    0 -0.69944540325E+02  0.53529229519E+02  0.98542508936E+02  0.13225102344E+03  0.47000000000E+01 0. -1.
        -13    1    6    6    0    0  0.18413597186E+02 -0.78181459471E+00  0.20258655031E+03  0.20342316033E+03  0.00000000000E+00 0.  1.
         14    1    6    6    0    0  0.96495049048E+01 -0.18940889148E+02  0.54214581532E+01  0.21937694390E+02  0.00000000000E+00 0. -1.
         -5    1    3    3    0  503  0.30813563608E+01 -0.30742213246E+02 -0.10873156278E+01  0.31270604209E+02  0.47000000000E+01 0.  1.
         11    1    4    4    0    0 -0.17960793804E+02  0.18559872307E+02 -0.69263506420E+02  0.73922204349E+02  0.00000000000E+00 0. -1.
        -12    1    4    4    0    0  0.56760875678E+02 -0.21624184836E+02 -0.31477739296E+03  0.32058416913E+03  0.00000000000E+00 0.  1.
</event>
<event>
12    1  0.8113184E-002  0.2173890E+03  0.7818608E-02  0.1137915E+00
         21   -1    0    0  503  502  0.00000000000E+00  0.00000000000E+00  0.23800806424E+03  0.23800806424E+03  0.00000000000E+00 0. -1.
         21   -1    0    0  501  503 -0.00000000000E+00 -0.00000000000E+00 -0.19693135824E+03  0.19693135824E+03  0.00000000000E+00 0.  1.
          6    2    1    2  501    0  0.12668940005E+03  0.40092978996E+02  0.64800474238E+02  0.22684152733E+03  0.17204745278E+03 0.  0.
         24    2    3    3    0    0  0.15383528631E+02  0.49122568154E+02 -0.52466774700E+01  0.94935409365E+02  0.79596009144E+02 0.  0.
         -6    2    1    2    0  502 -0.12668940005E+03 -0.40092978996E+02 -0.23723768243E+02  0.20809789515E+03  0.15838013050E+03 0.  0.
        -24    2    5    5    0    0 -0.13762795604E+03 -0.62577548657E+02  0.61211303901E+01  0.16888034992E+03  0.75004669666E+02 0.  0.
          5    1    3    3  501    0  0.11130587142E+03 -0.90295891586E+01  0.70047151708E+02  0.13190611796E+03  0.47000000000E+01 0. -1.
        -13    1    4    4    0    0 -0.18113226320E+02 -0.14134974880E+02  0.15897131819E+01  0.23030711465E+02  0.00000000000E+00 0.  1.
         14    1    4    4    0    0  0.33496754951E+02  0.63257543035E+02 -0.68363906519E+01  0.71904697900E+02  0.00000000000E+00 0. -1.
         -5    1    5    5    0  502  0.10938555983E+02  0.22484569661E+02 -0.29844898633E+02  0.39217545235E+02  0.47000000000E+01 0.  1.
         11    1    6    6    0    0 -0.48215581354E+02 -0.22674541045E+02  0.38519887707E+02  0.65746930315E+02  0.00000000000E+00 0. -1.
        -12    1    6    6    0    0 -0.89412374681E+02 -0.39903007613E+02 -0.32398757317E+02  0.10313341960E+03  0.00000000000E+00 0.  1.
</event>
<event>
12    1  0.8113184E-002  0.1912933E+03  0.7818608E-02  0.1158198E+00
         21   -1    0    0  503  502  0.00000000000E+00  0.00000000000E+00  0.18834224506E+03  0.18834224506E+03  0.00000000000E+00 0.  1.
         21   -1    0    0  501  503 -0.00000000000E+00 -0.00000000000E+00 -0.40117716308E+03  0.40117716308E+03  0.00000000000E+00 0.  1.
          6    2    1    2  501    0  0.83625506100E+02  0.12303355082E+02 -0.31959960558E+03  0.37044902980E+03  0.16716452369E+03 0.  0.
         24    2    3    3    0    0  0.11582549501E+02 -0.39579431795E+02 -0.99449173737E+02  0.13302469699E+03  0.78132867471E+02 0.  0.
         -6    2    1    2    0  502 -0.83625506100E+02 -0.12303355082E+02  0.10676468755E+03  0.21907037834E+03  0.17160575264E+03 0.  0.
        -24    2    5    5    0    0  0.21892947176E+02 -0.10779221588E+02  0.51009325912E+02  0.99624920838E+02  0.82022440636E+02 0.  0.
          5    1    3    3  501    0  0.72042956599E+02  0.51882786878E+02 -0.22015043184E+03  0.23742433281E+03  0.47000000000E+01 0. -1.
        -13    1    4    4    0    0  0.14770510298E+02 -0.35313087474E+02 -0.11255091775E+03  0.11888183717E+03  0.00000000000E+00 0.  1.
         14    1    4    4    0    0 -0.31879607972E+01 -0.42663443212E+01  0.13101744014E+02  0.14142859828E+02  0.00000000000E+00 0. -1.
         -5    1    5    5    0  502 -0.10551845328E+03 -0.15241334944E+01  0.55755361643E+02  0.11944545750E+03  0.47000000000E+01 0.  1.
         11    1    6    6    0    0  0.97921549404E+00 -0.13454017340E+02 -0.20796099819E+02  0.24788045773E+02  0.00000000000E+00 0. -1.
        -12    1    6    6    0    0  0.20913731682E+02  0.26747957515E+01  0.71805425731E+02  0.74836875065E+02  0.00000000000E+00 0.  1.
</event>
<event>
12    1  0.8113184E-002  0.2020984E+03  0.7818608E-02  0.1148498E+00
         21   -1    0    0  501  502  0.00000000000E+00  0.00000000000E+00  0.28998188812E+03  0.28998188812E+03  0.00000000000E+00 0. -1.
         21   -1    0    0  502  503 -0.00000000000E+00 -0.00000000000E+00 -0.14285268940E+03  0.14285268940E+03  0.00000000000E+00 0. -1.
         -6    2    1    2    0  503  0.87262448792E+02 -0.51458116811E+02  0.10805256004E+03  0.22699305543E+03  0.17201110059E+03 0.  0.
        -24    2    3    3    0    0  0.36833075316E+02  0.32942722229E+02  0.79787748592E+02  0.12458400844E+03  0.81934070738E+02 0.  0.
          6    2    1    2  501    0 -0.87262448792E+02  0.51458116811E+02  0.39076638680E+02  0.20584152209E+03  0.17487445717E+03 0.  0.
         24    2    5    5    0    0 -0.83543158024E+02  0.82811381517E+02  0.72288941161E+02  0.15977627089E+03  0.80408840091E+02 0.  0.
          5    1    5    5  501    0 -0.37192907675E+01 -0.31353264706E+02 -0.33212302481E+02  0.46065251195E+02  0.47000000000E+01 0. -1.
        -13    1    6    6    0    0  0.12891869682E+02  0.20823850728E+02  0.27165872587E+02  0.36576190294E+02  0.00000000000E+00 0.  1.
         14    1    6    6    0    0 -0.96435027706E+02  0.61987530789E+02  0.45123068574E+02  0.12320008060E+03  0.00000000000E+00 0. -1.
         -5    1    3    3    0  503  0.50429373476E+02 -0.84400839040E+02  0.28264811445E+02  0.10240904699E+03  0.47000000000E+01 0.  1.
         11    1    4    4    0    0  0.18345114288E+02 -0.21829985391E+02  0.54453387458E+02  0.61467575893E+02  0.00000000000E+00 0. -1.
        -12    1    4    4    0    0  0.18487961028E+02  0.54772707620E+02  0.25334361134E+02  0.63116432544E+02  0.00000000000E+00 0.  1.
</event>
<event>
12    1  0.8113184E-002  0.1758455E+03  0.7818608E-02  0.1172217E+00
         21   -1    0    0  501  502  0.00000000000E+00  0.00000000000E+00  0.17393304327E+04  0.17393304327E+04  0.00000000000E+00 0. -1.
         21   -1    0    0  502  503 -0.00000000000E+00 -0.00000000000E+00 -0.57219983628E+02  0.57219983628E+02  0.00000000000E+00 0. -1.
         -6    2    1    2    0  503 -0.17838424586E+02  0.34197017680E+02  0.93028050736E+02  0.19776821953E+03  0.17020694764E+03 0.  0.
        -24    2    3    3    0    0 -0.27823676233E+02 -0.20828159964E+02  0.10938716049E+03  0.13931151849E+03  0.78956817926E+02 0.  0.
          6    2    1    2  501    0  0.17838424586E+02 -0.34197017680E+02  0.15890823983E+04  0.15987821968E+04  0.17156339550E+03 0.  0.
         24    2    5    5    0    0  0.49085174432E+02  0.17332686200E+02  0.57770850983E+03  0.58560358366E+03  0.80465262739E+02 0.  0.
          5    1    5    5  501    0 -0.31246749845E+02 -0.51529703880E+02  0.10113738885E+04  0.10131786131E+04  0.47000000000E+01 0. -1.
        -13    1    6    6    0    0  0.22721715001E+02  0.48197193880E+02  0.38472037201E+03  0.38839285584E+03  0.00000000000E+00 0.  1.
         14    1    6    6    0    0  0.26363459430E+02 -0.30864507681E+02  0.19298813782E+03  0.19721072782E+03  0.00000000000E+00 0. -1.
         -5    1    3    3    0  503  0.99852516461E+01  0.55025177644E+02 -0.16359109754E+02  0.58456701046E+02  0.47000000000E+01 0.  1.
         13    1    4    4    0    0  0.22327527049E+02  0.12449444164E+02  0.25902422666E+02  0.36392892494E+02  0.00000000000E+00 0. -1.
        -14    1    4    4    0    0 -0.50151203281E+02 -0.33277604128E+02  0.83484737823E+02  0.10291862599E+03  0.00000000000E+00 0.  1.
</event>
<event>
12    1  0.8113184E-002  0.1922191E+03  0.7818608E-02  0.1157067E+00
         21   -1    0    0  503  502  0.00000000000E+00  0.00000000000E+00  0.13288587080E+04  0.13288587080E+04  0.00000000000E+00 0.  1.
         21   -1    0    0  501  503 -0.00000000000E+00 -0.00000000000E+00 -0.30074819562E+02  0.30074819562E+02  0.00000000000E+00 0.  1.
          6    2    1    2  501    0  0.76249608135E+02  0.35990431030E+02  0.84704674020E+03  0.86800111622E+03  0.16978941021E+03 0.  0.
         24    2    3    3    0    0  0.51007704815E+02 -0.40414427717E+02  0.52973664095E+03  0.54061350924E+03  0.86063614188E+02 0.  0.
         -6    2    1    2    0  502 -0.76249608135E+02 -0.35990431030E+02  0.45173714825E+03  0.49093241135E+03  0.17273930513E+03 0.  0.
        -24    2    5    5    0    0 -0.36741298264E+02  0.43952307546E+02  0.29589891701E+03  0.31132341292E+03  0.78002371811E+02 0.  0.
          5    1    3    3  501    0  0.25241903321E+02  0.76404858746E+02  0.31731009925E+03  0.32738760699E+03  0.47000000000E+01 0. -1.
        -11    1    4    4    0    0  0.43704631614E+02  0.18137305901E+01  0.42786023638E+03  0.43009041645E+03  0.00000000000E+00 0.  1.
         12    1    4    4    0    0  0.73030732009E+01 -0.42228158307E+02  0.10187640457E+03  0.11052309279E+03  0.00000000000E+00 0. -1.
         -5    1    5    5    0  502 -0.39508309872E+02 -0.79942738576E+02  0.15583823124E+03  0.17960899843E+03  0.47000000000E+01 0.  1.
         13    1    6    6    0    0  0.71158217372E+01  0.27504694015E+02  0.29950384857E+02  0.41281577791E+02  0.00000000000E+00 0. -1.
        -14    1    6    6    0    0 -0.43857120001E+02  0.16447613531E+02  0.26594853215E+03  0.27004183513E+03  0.00000000000E+00 0.  1.
</event>
<event>
12    1  0.8113184E-002  0.2015049E+03  0.7818608E-02  0.1148711E+00
         21   -1    0    0  503  502  0.00000000000E+00  0.00000000000E+00  0.14614601766E+03  0.14614601766E+03  0.00000000000E+00 0.  1.
         21   -1    0    0  501  503 -0.00000000000E+00 -0.00000000000E+00 -0.42417016053E+03  0.42417016053E+03  0.00000000000E+00 0.  1.
          6    2    1    2  501    0 -0.93218813683E+02 -0.49963271576E+02 -0.30713296147E+03  0.36671960005E+03  0.17019557370E+03 0.  0.
         24    2    3    3    0    0 -0.72675532220E+02 -0.25033398097E+02 -0.31456720235E+03  0.33324001011E+03  0.78663686297E+02 0.  0.
         -6    2    1    2    0  502  0.93218813683E+02  0.49963271576E+02  0.29108818605E+02  0.20359657814E+03  0.17151725155E+03 0.  0.
        -24    2    5    5    0    0  0.12720902672E+03  0.61283447672E+02  0.90615053746E+01  0.16227508571E+03  0.79456246608E+02 0.  0.
          5    1    3    3  501    0 -0.20543281464E+02 -0.24929873479E+02  0.74342408787E+01  0.33479589938E+02  0.47000000000E+01 0. -1.
        -11    1    4    4    0    0 -0.57783948142E+02 -0.38658631114E+02 -0.12867933180E+03  0.14625951202E+03  0.00000000000E+00 0.  1.
         12    1    4    4    0    0 -0.14891584077E+02  0.13625233017E+02 -0.18588787055E+03  0.18698049810E+03  0.00000000000E+00 0. -1.
         -5    1    5    5    0  502 -0.33990213038E+02 -0.11320176095E+02  0.20047313231E+02  0.41321492434E+02  0.47000000000E+01 0.  1.
         11    1    6    6    0    0  0.71524650849E+02 -0.44616870748E+01  0.22417638707E+02  0.75088167216E+02  0.00000000000E+00 0. -1.
        -12    1    6    6    0    0  0.55684375872E+02  0.65745134747E+02 -0.13356133333E+02  0.87186918495E+02  0.00000000000E+00 0.  1.
</event>
<event>
12    1  0.8113184E-002  0.1819404E+03  0.7818608E-02  0.1165950E+00
         21   -1    0    0  503  502  0.00000000000E+00  0.00000000000E+00  0.14949494975E+04  0.14949494975E+04  0.00000000000E+00 0. -1.
         21   -1    0    0  501  503 -0.00000000000E+00 -0.00000000000E+00 -0.76833030566E+02  0.76833030566E+02  0.00000000000E+00 0. -1.
          6    2    1    2  501    0  0.58435216804E+02 -0.19271055675E+02  0.45948954615E+02  0.18760551651E+03  0.17116797377E+03 0.  0.
         24    2    3    3    0    0  0.31819154376E+02 -0.42143356710E+01  0.94665130056E+02  0.12989524580E+03  0.82952208057E+02 0.  0.
         -6    2    1    2    0  502 -0.58435216804E+02  0.19271055675E+02  0.13721675123E+04  0.13841770115E+04  0.17121994423E+03 0.  0.
        -24    2    5    5    0    0 -0.78611706827E+02 -0.12627449267E+02  0.56070030389E+03  0.57181888503E+03  0.79074354726E+02 0.  0.
          5    1    3    3  501    0  0.26616062428E+02 -0.15056720004E+02 -0.48716175441E+02  0.57710270715E+02  0.47000000000E+01 0. -1.
        -13    1    4    4    0    0  0.59998544399E+02  0.26048751566E-01  0.70115002776E+02  0.92281848826E+02  0.00000000000E+00 0.  1.
         14    1    4    4    0    0 -0.28179390023E+02 -0.42403844225E+01  0.24550127279E+02  0.37613396969E+02  0.00000000000E+00 0. -1.
         -5    1    5    5    0  502  0.20176490023E+02  0.31898504942E+02  0.81146720842E+03  0.81235812651E+03  0.47000000000E+01 0.  1.
         11    1    6    6    0    0 -0.17078756238E+02  0.31725920575E+02  0.16063094526E+03  0.16462235124E+03  0.00000000000E+00 0. -1.
        -12    1    6    6    0    0 -0.61532950589E+02 -0.44353369842E+02  0.40006935862E+03  0.40719653379E+03  0.00000000000E+00 0.  1.
</event>
<event>
12    1  0.8113184E-002  0.1780089E+03  0.7818608E-02  0.1170596E+00
         21   -1    0    0  501  502  0.00000000000E+00  0.00000000000E+00  0.17746287833E+03  0.17746287833E+03  0.00000000000E+00 0.  1.
         21   -1    0    0  502  503 -0.00000000000E+00 -0.00000000000E+00 -0.31098449567E+03  0.31098449567E+03  0.00000000000E+00 0.  1.
         -6    2    1    2    0  503 -0.14752178308E+02  0.26124887082E+02 -0.22854262975E+03  0.28968758437E+03  0.17546232197E+03 0.  0.
        -24    2    3    3    0    0  0.42173779908E+02  0.62096940019E+01 -0.57569546518E+02  0.10832864517E+03  0.81262873857E+02 0.  0.
          6    2    1    2  501    0  0.14752178308E+02 -0.26124887082E+02  0.95021012414E+02  0.19875978963E+03  0.17197768659E+03 0.  0.
         24    2    5    5    0    0  0.75920845595E+01 -0.25202630180E+02  0.13438718551E+03  0.15846210875E+03  0.79734007576E+02 0.  0.
          5    1    5    5  501    0  0.71600937487E+01 -0.92225690233E+00 -0.39366173094E+02  0.40297680881E+02  0.47000000000E+01 0. -1.
        -13    1    6    6    0    0 -0.25623142305E+02 -0.16897060720E+02  0.11519103281E+03  0.11921002526E+03  0.00000000000E+00 0.  1.
         14    1    6    6    0    0  0.33215226864E+02 -0.83055694595E+01  0.19196152696E+02  0.39252083486E+02  0.00000000000E+00 0. -1.
         -5    1    3    3    0  503 -0.56925958216E+02  0.19915193080E+02 -0.17097308323E+03  0.18135893919E+03  0.47000000000E+01 0.  1.
         13    1    4    4    0    0  0.21197345376E+02 -0.31980745776E+02 -0.29819098470E+01  0.38483598295E+02  0.00000000000E+00 0. -1.
        -14    1    4    4    0    0  0.20976434532E+02  0.38190439778E+02 -0.54587636671E+02  0.69845046879E+02  0.00000000000E+00 0.  1.
</event>
<event>
12    1  0.8113184E-002  0.3663130E+03  0.7818608E-02  0.1056176E+00
         21   -1    0    0  503  502  0.00000000000E+00  0.00000000000E+00  0.26378072873E+03  0.26378072873E+03  0.00000000000E+00 0.  1.
         21   -1    0    0  501  503 -0.00000000000E+00 -0.00000000000E+00 -0.10165779921E+04  0.10165779921E+04  0.00000000000E+00 0. -1.
          6    2    1    2  501    0 -0.31668241865E+03  0.62619545828E+02 -0.82947031472E+03  0.90675588841E+03  0.17313658295E+03 0.  0.
         24    2    3    3    0    0 -0.24969773199E+03  0.51887130168E+01 -0.48715210808E+03  0.55321792240E+03  0.79730879607E+02 0.  0.
         -6    2    1    2    0  502  0.31668241865E+03 -0.62619545828E+02  0.76673051328E+02  0.37360283244E+03  0.17173048013E+03 0.  0.
        -24    2    5    5    0    0  0.11792248183E+03 -0.79666379215E+02  0.10568574417E+02  0.16339341571E+03  0.79581843625E+02 0.  0.
          5    1    3    3  501    0 -0.66984686662E+02  0.57430832812E+02 -0.34231820665E+03  0.35353796600E+03  0.47000000000E+01 0. -1.
        -13    1    4    4    0    0 -0.30486550481E+02 -0.23719855767E+01 -0.18404393539E+02  0.35690023499E+02  0.00000000000E+00 0.  1.
         14    1    4    4    0    0 -0.21921118151E+03  0.75606985935E+01 -0.46874771454E+03  0.51752789891E+03  0.00000000000E+00 0. -1.
         -5    1    5    5    0  502  0.19875993682E+03  0.17046833386E+02  0.66104476911E+02  0.21020941672E+03  0.47000000000E+01 0.  1.
         13    1    6    6    0    0  0.41394749543E+02  0.87065545015E+01  0.18612399653E+02  0.46214183990E+02  0.00000000000E+00 0. -1.
        -14    1    6    6    0    0  0.76527732289E+02 -0.88372933716E+02 -0.80438252367E+01  0.11717923172E+03  0.00000000000E+00 0.  1.
</event>
<event>
12    1  0.8113184E-002  0.2342882E+03  0.7818608E-02  0.1123669E+00
         21   -1    0    0  501  502  0.00000000000E+00  0.00000000000E+00  0.67746508404E+02  0.67746508404E+02  0.00000000000E+00 0.  1.
         21   -1    0    0  502  503 -0.00000000000E+00 -0.00000000000E+00 -0.13519865709E+04  0.13519865709E+04  0.00000000000E+00 0. -1.
         -6    2    1    2    0  503 -0.10896807021E+03  0.11584201659E+03 -0.10915145827E+04  0.11163619399E+04  0.17194907221E+03 0.  0.
        -24    2    3    3    0    0 -0.13739185918E+03  0.63604830089E+02 -0.88372321802E+03  0.90017688797E+03  0.80184825176E+02 0.  0.
          6    2    1    2  501    0  0.10896807021E+03 -0.11584201659E+03 -0.19272547978E+03  0.30337113941E+03  0.17203931102E+03 0.  0.
         24    2    5    5    0    0  0.12618772611E+03 -0.11097119406E+03 -0.10402651063E+03  0.21276297979E+03  0.78794812793E+02 0.  0.
          5    1    5    5  501    0 -0.17219655899E+02 -0.48708225270E+01 -0.88698969150E+02  0.90608159620E+02  0.47000000000E+01 0. -1.
        -11    1    6    6    0    0  0.97632792543E+02 -0.34087981530E+02 -0.62534580834E+02  0.12085001640E+03  0.00000000000E+00 0.  1.
         12    1    6    6    0    0  0.28554933563E+02 -0.76883212532E+02 -0.41491929799E+02  0.91912963387E+02  0.00000000000E+00 0. -1.
         -5    1    3    3    0  503  0.28423788977E+02  0.52237186501E+02 -0.20779136465E+03  0.21618505188E+03  0.47000000000E+01 0.  1.
         13    1    4    4    0    0 -0.84168625389E+02  0.63377062760E+01 -0.31530639871E+03  0.32640871479E+03  0.00000000000E+00 0. -1.
        -14    1    4    4    0    0 -0.53223233795E+02  0.57267123813E+02 -0.56841681931E+03  0.57376817319E+03  0.00000000000E+00 0.  1.
</event>
<event>
12    1  0.8113184E-002  0.1862689E+03  0.7818608E-02  0.1162726E+00
         21   -1    0    0  501  502  0.00000000000E+00  0.00000000000E+00  0.59750594657E+03  0.59750594657E+03  0.00000000000E+00 0. -1.
         21   -1    0    0  502  503 -0.00000000000E+00 -0.00000000000E+00 -0.96362263131E+02  0.96362263131E+02  0.00000000000E+00 0. -1.
         -6    2    1    2    0  503 -0.56506620726E+02  0.34577188485E+02  0.27189133231E+02  0.18462461691E+03  0.17017173695E+03 0.  0.
        -24    2    3    3    0    0 -0.74617375282E+02  0.33909968069E+01 -0.28729279385E+02  0.11791976813E+03  0.86605130726E+02 0.  0.
          6    2    1    2  501    0  0.56506620726E+02 -0.34577188485E+02  0.47395455021E+03  0.50924359279E+03  0.17409061142E+03 0.  0.
         24    2    5    5    0    0  0.41435686341E+02 -0.75839434069E+02  0.20385745071E+03  0.23555720450E+03  0.80379105007E+02 0.  0.
          5    1    5    5  501    0  0.15070934385E+02  0.41262245585E+02  0.27009709950E+03  0.27368638829E+03  0.47000000000E+01 0. -1.
        -11    1    6    6    0    0  0.38351920242E+01 -0.79159964244E+02  0.15194913540E+03  0.17137546028E+03  0.00000000000E+00 0.  1.
         12    1    6    6    0    0  0.37600494317E+02  0.33205301749E+01  0.51908315304E+02  0.64181744221E+02  0.00000000000E+00 0. -1.
         -5    1    3    3    0  503  0.18110754557E+02  0.31186191678E+02  0.55918412616E+02  0.66704848786E+02  0.47000000000E+01 0.  1.
         11    1    4    4    0    0 -0.54173342730E+02 -0.15086707127E+02 -0.55849410722E+02  0.79256018525E+02  0.00000000000E+00 0. -1.
        -12    1    4    4    0    0 -0.20444032553E+02  0.18477703934E+02  0.27120131336E+02  0.38663749603E+02  0.00000000000E+00 0.  1.
</event>
<event>
12    1  0.8113184E-002  0.1783669E+03  0.7818608E-02  0.1169508E+00
         21   -1    0    0  503  502  0.00000000000E+00  0.00000000000E+00  0.17817282872E+03  0.17817282872E+03  0.00000000000E+00 0.  1.
         21   -1    0    0  501  503 -0.00000000000E+00 -0.00000000000E+00 -0.34520762387E+03  0.34520762387E+03  0.00000000000E+00 0. -1.
          6    2    1    2  501    0 -0.28486633305E+02 -0.36112764325E+02 -0.26565095153E+03  0.31997686164E+03  0.17233439562E+03 0.  0.
         24    2    3    3    0    0 -0.68763685981E+02  0.61211073037E+01 -0.10491633126E+03  0.14891064920E+03  0.80006452342E+02 0.  0.
         -6    2    1    2    0  502  0.28486633305E+02  0.36112764325E+02  0.98616156379E+02  0.20340359095E+03  0.17184951116E+03 0.  0.
        -24    2    5    5    0    0 -0.11072712962E+02 -0.29100179168E+02  0.10578923245E+02  0.86826087569E+02  0.80358138764E+02 0.  0.
          5    1    3    3  501    0  0.40277052677E+02 -0.42233871629E+02 -0.16073462027E+03  0.17106621244E+03  0.47000000000E+01 0. -1.
        -11    1    4    4    0    0 -0.63842221252E+02  0.16379888048E+02 -0.28764246092E+02  0.71913224098E+02  0.00000000000E+00 0.  1.
         12    1    4    4    0    0 -0.49214647288E+01 -0.10258780745E+02 -0.76152085163E+02  0.76997425100E+02  0.00000000000E+00 0. -1.
         -5    1    5    5    0  502  0.39559346267E+02  0.65212943494E+02  0.88037233133E+02  0.11657750338E+03  0.47000000000E+01 0.  1.
         13    1    6    6    0    0 -0.34306387660E+02 -0.70583962644E+00 -0.19425683002E+02  0.39430744400E+02  0.00000000000E+00 0. -1.
        -14    1    6    6    0    0  0.23233674698E+02 -0.28394339542E+02  0.30004606248E+02  0.47395343169E+02  0.00000000000E+00 0.  1.
</event>
<event>
12    1  0.8113184E-002  0.1946422E+03  0.7818608E-02  0.1155668E+00
         21   -1    0    0  501  502  0.00000000000E+00  0.00000000000E+00  0.13976253820E+03  0.13976253820E+03  0.00000000000E+00 0. -1.
         21   -1    0    0  502  503 -0.00000000000E+00 -0.00000000000E+00 -0.36959050694E+03  0.36959050694E+03  0.00000000000E+00 0. -1.
         -6    2    1    2    0  503 -0.71824150142E+02  0.27746063264E+02 -0.25306668880E+03  0.31926219497E+03  0.17876534224E+03 0.  0.
        -24    2    3    3    0    0 -0.11883921352E+03  0.10987679644E+02 -0.19353258219E+03  0.24143122777E+03  0.81183062257E+02 0.  0.
          6    2    1    2  501    0  0.71824150142E+02 -0.27746063264E+02  0.23238720063E+02  0.19009085017E+03  0.17223803482E+03 0.  0.
         24    2    5    5    0    0 -0.16394096261E+02 -0.21971444501E+02 -0.25037085665E+02  0.89252124281E+02  0.81163879062E+02 0.  0.
          5    1    5    5  501    0  0.88218246403E+02 -0.57746187634E+01  0.48275805729E+02  0.10083872589E+03  0.47000000000E+01 0. -1.
        -13    1    6    6    0    0 -0.33841495975E+02  0.19780370887E+02 -0.41627259162E+01  0.39418754538E+02  0.00000000000E+00 0.  1.
         14    1    6    6    0    0  0.17447399714E+02 -0.41751815388E+02 -0.20874359749E+02  0.49833369743E+02  0.00000000000E+00 0. -1.
         -5    1    3    3    0  503  0.47015063377E+02  0.16758383621E+02 -0.59534106606E+02  0.77830967200E+02  0.47000000000E+01 0.  1.
         13    1    4    4    0    0 -0.78399200307E+02 -0.15418341543E+02 -0.16970884559E+03  0.18757732309E+03  0.00000000000E+00 0. -1.
        -14    1    4    4    0    0 -0.40440013212E+02  0.26406021187E+02 -0.23823736598E+02  0.53853904677E+02  0.00000000000E+00 0.  1.
</event>
<event>
12    1  0.8113184E-002  0.2566190E+03  0.7818608E-02  0.1109258E+00
         21   -1    0    0  501  502  0.00000000000E+00  0.00000000000E+00  0.23224228637E+03  0.23224228637E+03  0.00000000000E+00 0. -1.
         21   -1    0    0  502  503 -0.00000000000E+00 -0.00000000000E+00 -0.37232827393E+03  0.37232827393E+03  0.00000000000E+00 0. -1.
         -6    2    1    2    0  503 -0.14626058129E+03  0.12181468971E+03 -0.21808720792E+03  0.33677195586E+03  0.17211142823E+03 0.  0.
        -24    2    3    3    0    0 -0.12609086518E+02  0.40417616721E+02 -0.38923458230E+02  0.98843511261E+02  0.80389248744E+02 0.  0.
          6    2    1    2  501    0  0.14626058129E+03 -0.12181468971E+03  0.78001220364E+02  0.26779860443E+03  0.17146698192E+03 0.  0.
         24    2    5    5    0    0  0.15733926567E+03 -0.14436513521E+03  0.59487907060E+02  0.23623766957E+03  0.81685302533E+02 0.  0.
          5    1    5    5  501    0 -0.11078684377E+02  0.22550445504E+02  0.18513313304E+02  0.31560934864E+02  0.47000000000E+01 0. -1.
        -13    1    6    6    0    0  0.26244683750E+02 -0.67650599912E+01 -0.16306422072E+02  0.31629872947E+02  0.00000000000E+00 0.  1.
         14    1    6    6    0    0  0.13109458192E+03 -0.13760007522E+03  0.75794329131E+02  0.20460779662E+03  0.00000000000E+00 0. -1.
         -5    1    3    3    0  503 -0.13365149477E+03  0.81397072987E+02 -0.17916374969E+03  0.23792844460E+03  0.47000000000E+01 0.  1.
         13    1    4    4    0    0 -0.32841240138E+02  0.20183539303E+02 -0.54119890168E+02  0.66444599663E+02  0.00000000000E+00 0. -1.
        -14    1    4    4    0    0  0.20232153620E+02  0.20234077418E+02  0.15196431939E+02  0.32398911598E+02  0.00000000000E+00 0.  1.
</event>
<event>
12    1  0.8113184E-002  0.1894880E+03  0.7818608E-02  0.1159644E+00
         21   -1    0    0  501  502  0.00000000000E+00  0.00000000000E+00  0.55485034829E+03  0.55485034829E+03  0.00000000000E+00 0.  1.
         21   -1    0    0  502  503 -0.00000000000E+00 -0.00000000000E+00 -0.80492435664E+02  0.80492435664E+02  0.00000000000E+00 0.  1.
         -6    2    1    2    0  503 -0.70478256911E+01  0.72322596825E+02  0.90252908670E+02  0.20704106098E+03  0.17158141959E+03 0.  0.
        -24    2    3    3    0    0 -0.45635304610E+02  0.16690980083E+02  0.10036542565E+03  0.13842456653E+03  0.82018120622E+02 0.  0.
          6    2    1    2  501    0  0.70478256911E+01 -0.72322596825E+02  0.38410500395E+03  0.42830172297E+03  0.17500137708E+03 0.  0.
         24    2    5    5    0    0 -0.17258648397E+02 -0.10152194282E+03  0.19239149063E+03  0.23280346804E+03  0.81107356304E+02 0.  0.
          5    1    5    5  501    0  0.24306474088E+02  0.29199345996E+02  0.19171351333E+03  0.19549825493E+03  0.47000000000E+01 0. -1.
        -13    1    6    6    0    0  0.18352410890E+02 -0.87746030119E+01  0.81129860469E+02  0.83641251206E+02  0.00000000000E+00 0.  1.
         14    1    6    6    0    0 -0.35611059288E+02 -0.92747339809E+02  0.11126163016E+03  0.14916221683E+03  0.00000000000E+00 0. -1.
         -5    1    3    3    0  503  0.38587478919E+02  0.55631616742E+02 -0.10112516982E+02  0.68616494448E+02  0.47000000000E+01 0.  1.
         11    1    4    4    0    0  0.30547135332E+01  0.19037047213E+02  0.85228230443E+02  0.87381872867E+02  0.00000000000E+00 0. -1.
        -12    1    4    4    0    0 -0.48690018144E+02 -0.23460671296E+01  0.15137195209E+02  0.51042693665E+02  0.00000000000E+00 0.  1.
</event>
<event>
12    1  0.8113184E-002  0.2939207E+03  0.7818608E-02  0.1088344E+00
         21   -1    0    0  501  502  0.00000000000E+00  0.00000000000E+00  0.96583015776E+03  0.96583015776E+03  0.00000000000E+00 0.  1.
         21   -1    0    0  502  503 -0.00000000000E+00 -0.00000000000E+00 -0.27879668519E+03  0.27879668519E+03  0.00000000000E+00 0. -1.
         -6    2    1    2    0  503  0.23361032030E+03 -0.42118190455E+02 -0.16938690976E+03  0.33923633105E+03  0.17332524164E+03 0.  0.
        -24    2    3    3    0    0  0.11230208019E+03  0.23026098312E+02 -0.14069050239E+03  0.19850594601E+03  0.80429066393E+02 0.  0.
          6    2    1    2  501    0 -0.23361032030E+03  0.42118190455E+02  0.85642038233E+03  0.90539051190E+03  0.17299821981E+03 0.  0.
         24    2    5    5    0    0 -0.64631744371E+02 -0.33618795683E+02  0.29352036081E+03  0.31279589969E+03  0.79872315930E+02 0.  0.
          5    1    5    5  501    0 -0.16897857593E+03  0.75736986137E+02  0.56290002152E+03  0.59259461221E+03  0.47000000000E+01 0. -1.
        -13    1    6    6    0    0 -0.30783813675E+02  0.19805235481E+02  0.17146189629E+03  0.17532561826E+03  0.00000000000E+00 0.  1.
         14    1    6    6    0    0 -0.33847930696E+02 -0.53424031164E+02  0.12205846452E+03  0.13747028144E+03  0.00000000000E+00 0. -1.
         -5    1    3    3    0  503  0.12130824011E+03 -0.65144288767E+02 -0.28696407372E+02  0.14073038504E+03  0.47000000000E+01 0.  1.
         13    1    4    4    0    0  0.62379985307E+02  0.20056917724E-01 -0.12755321471E+03  0.14198973749E+03  0.00000000000E+00 0. -1.
        -14    1    4    4    0    0  0.49922094883E+02  0.23006041395E+02 -0.13137287677E+02  0.56516208522E+02  0.00000000000E+00 0.  1.
</event>
<event>
12    1  0.8113184E-002  0.2022732E+03  0.7818608E-02  0.1148093E+00
         21   -1    0    0  503  502  0.00000000000E+00  0.00000000000E+00  0.13757073982E+04  0.13757073982E+04  0.00000000000E+00 0.  1.
         21   -1    0    0  501  503 -0.00000000000E+00 -0.00000000000E+00 -0.74144718253E+02  0.74144718253E+02  0.00000000000E+00 0.  1.
          6    2    1    2  501    0  0.61888402889E+02  0.83627613572E+02  0.87835243172E+02  0.21938523912E+03  0.17202064131E+03 0.  0.
         24    2    3    3    0    0  0.61124366381E+01  0.29150448192E+02 -0.20091277589E+02  0.86160076926E+02  0.78312124918E+02 0.  0.
         -6    2    1    2    0  502 -0.61888402889E+02 -0.83627613572E+02  0.12137274367E+04  0.12304668773E+04  0.17346669208E+03 0.  0.
        -24    2    5    5    0    0 -0.57953808186E+02 -0.92828909378E+02  0.54167078456E+03  0.55831929037E+03  0.79607417026E+02 0.  0.
          5    1    3    3  501    0  0.55775966251E+02  0.54477165380E+02  0.10792652076E+03  0.13322516220E+03  0.47000000000E+01 0. -1.
        -13    1    4    4    0    0 -0.23673707484E+02 -0.12316472444E+02  0.80350052552E+01  0.27869360038E+02  0.00000000000E+00 0.  1.
         14    1    4    4    0    0  0.29786144122E+02  0.41466920636E+02 -0.28126282844E+02  0.58290716888E+02  0.00000000000E+00 0. -1.
         -5    1    5    5    0  502 -0.39345947029E+01  0.92012958061E+01  0.67205665219E+03  0.67214758694E+03  0.47000000000E+01 0.  1.
         11    1    6    6    0    0 -0.64692784405E+02 -0.39374025207E+02  0.39194563637E+03  0.39919525559E+03  0.00000000000E+00 0. -1.
        -12    1    6    6    0    0  0.67389762192E+01 -0.53454884171E+02  0.14972514820E+03  0.15912403478E+03  0.00000000000E+00 0.  1.
</event>
<event>
12    1  0.8113184E-002  0.1733807E+03  0.7818608E-02  0.1174654E+00
         21   -1    0    0  501  502  0.00000000000E+00  0.00000000000E+00  0.12835108988E+03  0.12835108988E+03  0.00000000000E+00 0. -1.
         21   -1    0    0  502  503 -0.00000000000E+00 -0.00000000000E+00 -0.24164057614E+03  0.24164057614E+03  0.00000000000E+00 0. -1.
         -6    2    1    2    0  503 -0.81429869058E+01 -0.22963413012E+02 -0.92064116685E+02  0.19531655034E+03  0.17052602934E+03 0.  0.
        -24    2    3    3    0    0 -0.26943652457E+01 -0.79473743274E+02 -0.53991671771E+02  0.12679862593E+03  0.82701000252E+02 0.  0.
          6    2    1    2  501    0  0.81429869058E+01  0.22963413012E+02 -0.21225369569E+02  0.17467511568E+03  0.17166028414E+03 0.  0.
         24    2    5    5    0    0 -0.65664014502E+02  0.55020383452E+01 -0.15416444459E+02  0.98463524218E+02  0.71521770218E+02 0.  0.
          5    1    5    5  501    0  0.73807001408E+02  0.17461374667E+02 -0.58089251100E+01  0.76211591461E+02  0.47000000000E+01 0. -1.
        -11    1    6    6    0    0 -0.20857081663E+02  0.10110531215E+02  0.27694508330E+02  0.36114076045E+02  0.00000000000E+00 0.  1.
         12    1    6    6    0    0 -0.44806932839E+02 -0.46084928694E+01 -0.43110952790E+02  0.62349448173E+02  0.00000000000E+00 0. -1.
         -5    1    3    3    0  503 -0.54486216601E+01  0.56510330261E+02 -0.38072444914E+02  0.68517924413E+02  0.47000000000E+01 0.  1.
         11    1    4    4    0    0  0.21334423976E+01 -0.53284208640E+02 -0.75592071498E+02  0.92509025182E+02  0.00000000000E+00 0. -1.
        -12    1    4    4    0    0 -0.48278076433E+01 -0.26189534634E+02  0.21600399727E+02  0.34289600746E+02  0.00000000000E+00 0.  1.
</event>
<event>
12    1  0.8113184E-002  0.2120339E+03  0.7818608E-02  0.1141075E+00
         21   -1    0    0  503  502  0.00000000000E+00  0.00000000000E+00  0.28353432306E+03  0.28353432306E+03  0.00000000000E+00 0. -1.
         21   -1    0    0  501  503 -0.00000000000E+00 -0.00000000000E+00 -0.15829893240E+03  0.15829893240E+03  0.00000000000E+00 0. -1.
          6    2    1    2  501    0 -0.30295063184E+02 -0.11116275244E+03  0.98073487576E+02  0.23361678756E+03  0.17799844404E+03 0.  0.
         24    2    3    3    0    0 -0.65928113769E+02 -0.93992134882E+02  0.12333480495E+03  0.18644933526E+03  0.79817560109E+02 0.  0.
         -6    2    1    2    0  502  0.30295063184E+02  0.11116275244E+03  0.27161903087E+02  0.20821646790E+03  0.17129325772E+03 0.  0.
        -24    2    5    5    0    0 -0.88324300328E+01  0.13614060016E+03  0.95798256031E+01  0.15835593189E+03  0.79828273661E+02 0.  0.
          5    1    3    3  501    0  0.35633050585E+02 -0.17170617561E+02 -0.25261317372E+02  0.47167452303E+02  0.47000000000E+01 0. -1.
        -11    1    4    4    0    0 -0.34597775788E+02 -0.80267576397E+02  0.12462414753E+03  0.15222045874E+03  0.00000000000E+00 0.  1.
         12    1    4    4    0    0 -0.31330337981E+02 -0.13724558486E+02 -0.12893425831E+01  0.34228876522E+02  0.00000000000E+00 0. -1.
         -5    1    5    5    0  502  0.39127493217E+02 -0.24977847715E+02  0.17582077483E+02  0.49860536004E+02  0.47000000000E+01 0.  1.
         11    1    6    6    0    0  0.21683192488E+02  0.93319534943E+02 -0.20221274980E+02  0.97916272398E+02  0.00000000000E+00 0. -1.
        -12    1    6    6    0    0 -0.30515622521E+02  0.42821065216E+02  0.29801100583E+02  0.60439659497E+02  0.00000000000E+00 0.  1.
</event>
<event>
12    1  0.8113184E-002  0.2028198E+03  0.7818608E-02  0.1147589E+00
         21   -1    0    0  501  502  0.00000000000E+00  0.00000000000E+00  0.36303337539E+03  0.36303337539E+03  0.00000000000E+00 0. -1.
         21   -1    0    0  502  503 -0.00000000000E+00 -0.00000000000E+00 -0.18742095308E+03  0.18742095308E+03  0.00000000000E+00 0. -1.
         -6    2    1    2    0  503 -0.10693197438E+03 -0.14853086255E+02  0.26139291610E+03  0.33024037760E+03  0.17052093447E+03 0.  0.
        -24    2    3    3    0    0 -0.39925436699E+02  0.51716791088E+02  0.10136003044E+03  0.14435320979E+03  0.79343093146E+02 0.  0.
          6    2    1    2  501    0  0.10693197438E+03  0.14853086255E+02 -0.85780493797E+02  0.22021395086E+03  0.17169982447E+03 0.  0.
         24    2    5    5    0    0  0.96222984576E+02 -0.32807512271E+02 -0.10516316961E+02  0.13036406812E+03  0.80925902600E+02 0.  0.
          5    1    5    5  501    0  0.10708989807E+02  0.47660598526E+02 -0.75264176836E+02  0.89849882745E+02  0.47000000000E+01 0. -1.
        -11    1    6    6    0    0  0.73854380571E+02  0.48831502581E+01  0.20344330985E+02  0.76760709280E+02  0.00000000000E+00 0.  1.
         12    1    6    6    0    0  0.22368604005E+02 -0.37690662529E+02 -0.30860647946E+02  0.53603358838E+02  0.00000000000E+00 0. -1.
         -5    1    3    3    0  503 -0.67006537684E+02 -0.66569877343E+02  0.16003288567E+03  0.18588716781E+03  0.47000000000E+01 0.  1.
         13    1    4    4    0    0 -0.50405536988E+02  0.98118943372E+01  0.82596720430E+02  0.97258468296E+02  0.00000000000E+00 0. -1.
        -14    1    4    4    0    0  0.10480100289E+02  0.41904896751E+02  0.18763310006E+02  0.47094741492E+02  0.00000000000E+00 0.  1.
</event>
<event>
12    1  0.8113184E-002  0.2152599E+03  0.7818608E-02  0.1137959E+00
         21   -1    0    0  501  502  0.00000000000E+00  0.00000000000E+00  0.32481834561E+03  0.32481834561E+03  0.00000000000E+00 0. -1.
         21   -1    0    0  502  503 -0.00000000000E+00 -0.00000000000E+00 -0.19710635368E+03  0.19710635368E+03  0.00000000000E+00 0.  1.
         -6    2    1    2    0  503  0.13018100893E+03  0.10999487888E+02 -0.75135651292E+02  0.22799605486E+03  0.17108112438E+03 0.  0.
        -24    2    3    3    0    0  0.68951525176E+02 -0.34350439855E+02 -0.10292377611E+03  0.14675606774E+03  0.70779758318E+02 0.  0.
          6    2    1    2  501    0 -0.13018100893E+03 -0.10999487888E+02  0.20284764322E+03  0.29392864443E+03  0.16786541584E+03 0.  0.
         24    2    5    5    0    0 -0.79274188663E+02  0.37007800158E+01  0.21181416044E+03  0.23998338831E+03  0.80179145324E+02 0.  0.
          5    1    5    5  501    0 -0.50906820265E+02 -0.14700267904E+02 -0.89665172141E+01  0.53945256111E+02  0.47000000000E+01 0. -1.
        -11    1    6    6    0    0  0.15601495921E+02 -0.37472373341E+01  0.18326623318E+02  0.24358029166E+02  0.00000000000E+00 0.  1.
         12    1    6    6    0    0 -0.94875684584E+02  0.74480173499E+01  0.19348753712E+03  0.21562535915E+03  0.00000000000E+00 0. -1.
         -5    1    3    3    0  503  0.61229483753E+02  0.45349927743E+02  0.27788124818E+02  0.81239987124E+02  0.47000000000E+01 0.  1.
         13    1    4    4    0    0 -0.46656358486E+01  0.10627654158E+02  0.10477799352E+01  0.11653884913E+02  0.00000000000E+00 0. -1.
        -14    1    4    4    0    0  0.73617161024E+02 -0.44978094013E+02 -0.10397155605E+03  0.13510218283E+03  0.00000000000E+00 0.  1.
</event>
<event>
12    1  0.8113184E-002  0.2478570E+03  0.7818608E-02  0.1114983E+00
         21   -1    0    0  501  502  0.00000000000E+00  0.00000000000E+00  0.18540800114E+03  0.18540800114E+03  0.00000000000E+00 0.  1.
         21   -1    0    0  502  503 -0.00000000000E+00 -0.00000000000E+00 -0.75111854387E+03  0.75111854387E+03  0.00000000000E+00 0. -1.
         -6    2    1    2    0  503  0.15414151478E+03 -0.84964986352E+02 -0.63450394037E+03  0.68119624594E+03  0.17451194701E+03 0.  0.
        -24    2    3    3    0    0  0.11972257435E+03 -0.59306745832E+01 -0.50636739638E+03  0.52669009783E+03  0.81399332473E+02 0.  0.
          6    2    1    2  501    0 -0.15414151478E+03  0.84964986352E+02  0.68793397646E+02  0.25533029908E+03  0.17170432313E+03 0.  0.
         24    2    5    5    0    0 -0.16498087025E+03  0.84589359940E+02  0.17207917817E+02  0.20240786100E+03  0.79364868794E+02 0.  0.
          5    1    5    5  501    0  0.10839355469E+02  0.37562641205E+00  0.51585479830E+02  0.52922438071E+02  0.47000000000E+01 0. -1.
        -11    1    6    6    0    0 -0.13858779968E+03  0.83739399618E+02  0.40815175571E+02  0.16698725648E+03  0.00000000000E+00 0.  1.
         12    1    6    6    0    0 -0.26393070563E+02  0.84996032223E+00 -0.23607257755E+02  0.35420604526E+02  0.00000000000E+00 0. -1.
         -5    1    3    3    0  503  0.34418940431E+02 -0.79034311769E+02 -0.12813654399E+03  0.15450614811E+03  0.47000000000E+01 0.  1.
         11    1    4    4    0    0  0.56529777600E+02  0.11216747226E+01 -0.95899830462E+02  0.11132677752E+03  0.00000000000E+00 0. -1.
        -12    1    4    4    0    0  0.63192796746E+02 -0.70523493058E+01 -0.41046756592E+03  0.41536332031E+03  0.00000000000E+00 0.  1.
</event>
<event>
12    1  0.8113184E-002  0.2093739E+03  0.7818608E-02  0.1142528E+00
         21   -1    0    0  503  502  0.00000000000E+00  0.00000000000E+00  0.32554387830E+03  0.32554387830E+03  0.00000000000E+00 0.  1.
         21   -1    0    0  501  503 -0.00000000000E+00 -0.00000000000E+00 -0.38988622927E+03  0.38988622927E+03  0.00000000000E+00 0.  1.
          6    2    1    2  501    0  0.11893646753E+03  0.23773079825E+01 -0.32249772818E+03  0.38450255509E+03  0.17229595263E+03 0.  0.
         24    2    3    3    0    0  0.31268261175E+02  0.54752985701E+02 -0.20252280339E+03  0.22687959167E+03  0.80518753232E+02 0.  0.
         -6    2    1    2    0  502 -0.11893646753E+03 -0.23773079825E+01  0.25815537721E+03  0.33092755248E+03  0.16946182845E+03 0.  0.
        -24    2    5    5    0    0 -0.81763783813E+01 -0.27596161150E+02  0.73073740459E+02  0.11371546680E+03  0.82237671235E+02 0.  0.
          5    1    3    3  501    0  0.87668206350E+02 -0.52375677718E+02 -0.11997492479E+03  0.15762296342E+03  0.47000000000E+01 0. -1.
        -13    1    4    4    0    0 -0.23999288664E+02  0.14419061064E+02 -0.98265930499E+02  0.10217665230E+03  0.00000000000E+00 0.  1.
         14    1    4    4    0    0  0.55267549839E+02  0.40333924637E+02 -0.10425687289E+03  0.12470293937E+03  0.00000000000E+00 0. -1.
         -5    1    5    5    0  502 -0.11076008914E+03  0.25218853167E+02  0.18508163675E+03  0.21721208568E+03  0.47000000000E+01 0.  1.
         13    1    6    6    0    0  0.25724650691E+02  0.16754285977E+02  0.19664939264E+02  0.36457833013E+02  0.00000000000E+00 0. -1.
        -14    1    6    6    0    0 -0.33901029072E+02 -0.44350447127E+02  0.53408801195E+02  0.77257633782E+02  0.00000000000E+00 0.  1.
</event>
<event>
12    1  0.8113184E-002  0.2023988E+03  0.7818608E-02  0.1147884E+00
         21   -1    0    0  501  502  0.00000000000E+00  0.00000000000E+00  0.35136038688E+03  0.35136038688E+03  0.00000000000E+00 0.  1.
         21   -1    0    0  502  503 -0.00000000000E+00 -0.00000000000E+00 -0.11619494699E+03  0.11619494699E+03  0.00000000000E+00 0.  1.
         -6    2    1    2    0  503  0.54471325984E+02  0.91004500386E+02  0.11417088323E+03  0.23237960324E+03  0.17238429447E+03 0.  0.
        -24    2    3    3    0    0  0.82299652336E+02  0.28683927630E+02  0.11393609671E+03  0.16396604712E+03  0.79419330114E+02 0.  0.
          6    2    1    2  501    0 -0.54471325984E+02 -0.91004500386E+02  0.12099455666E+03  0.23517573063E+03  0.17151966969E+03 0.  0.
         24    2    5    5    0    0  0.34026603167E+02 -0.60278061464E+02  0.78642110738E+02  0.13225917614E+03  0.80725793115E+02 0.  0.
          5    1    5    5  501    0 -0.88497929152E+02 -0.30726438922E+02  0.42352445919E+02  0.10291655449E+03  0.47000000000E+01 0. -1.
        -11    1    6    6    0    0  0.23246405386E+02 -0.74910500870E+02  0.36796243380E+02  0.86636839917E+02  0.00000000000E+00 0.  1.
         12    1    6    6    0    0  0.10780197782E+02  0.14632439406E+02  0.41845867358E+02  0.45622336220E+02  0.00000000000E+00 0. -1.
         -5    1    3    3    0  503 -0.27828326352E+02  0.62320572756E+02  0.23478651676E+00  0.68413556120E+02  0.47000000000E+01 0.  1.
         11    1    4    4    0    0  0.54574553487E+02  0.72591243845E+01  0.12235021170E+02  0.56398337902E+02  0.00000000000E+00 0. -1.
        -12    1    4    4    0    0  0.27725098850E+02  0.21424803245E+02  0.10170107554E+03  0.10756770922E+03  0.00000000000E+00 0.  1.
</event>
<event>
12    1  0.8113184E-002  0.2719846E+03  0.7818608E-02  0.1100225E+00
         21   -1    0    0  501  502  0.00000000000E+00  0.00000000000E+00  0.14482344402E+03  0.14482344402E+03  0.00000000000E+00 0.  1.
         21   -1    0    0  502  503 -0.00000000000E+00 -0.00000000000E+00 -0.52358287017E+03  0.52358287017E+03  0.00000000000E+00 0.  1.
         -6    2    1    2    0  503 -0.96826439567E+02  0.18661106362E+03 -0.13496559381E+03  0.30315153254E+03  0.17171514698E+03 0.  0.
        -24    2    3    3    0    0 -0.45057312849E+02  0.79589898398E+02  0.23093358900E+00  0.12305777000E+03  0.82331330961E+02 0.  0.
          6    2    1    2  501    0  0.96826439567E+02 -0.18661106362E+03 -0.24379383234E+03  0.36525478165E+03  0.17255890116E+03 0.  0.
         24    2    5    5    0    0  0.12039146172E+03 -0.85452894069E+02 -0.15268404126E+03  0.22701090451E+03  0.80157552062E+02 0.  0.
          5    1    5    5  501    0 -0.23565022155E+02 -0.10115816955E+03 -0.91109791079E+02  0.13824387714E+03  0.47000000000E+01 0. -1.
        -11    1    6    6    0    0  0.87459639467E+02 -0.86529876982E+02 -0.78773663396E+02  0.14608866551E+03  0.00000000000E+00 0.  1.
         12    1    6    6    0    0  0.32931822256E+02  0.10769829132E+01 -0.73910377862E+02  0.80922239001E+02  0.00000000000E+00 0. -1.
         -5    1    3    3    0  503 -0.51769126718E+02  0.10702116522E+03 -0.13519652739E+03  0.18009376254E+03  0.47000000000E+01 0.  1.
         11    1    4    4    0    0  0.29546125594E+01  0.74610990780E+02  0.27790256486E+01  0.74721166105E+02  0.00000000000E+00 0. -1.
        -12    1    4    4    0    0 -0.48011925408E+02  0.49789076178E+01 -0.25480920596E+01  0.48336603890E+02  0.00000000000E+00 0.  1.
</event>
<event>
12    1  0.8113184E-002  0.2299415E+03  0.7818608E-02  0.1127088E+00
         21   -1    0    0  501  502  0.00000000000E+00  0.00000000000E+00  0.59040657913E+03  0.59040657913E+03  0.00000000000E+00 0.  1.
         21   -1    0    0  502  503 -0.00000000000E+00 -0.00000000000E+00 -0.12006178736E+03  0.12006178736E+03  0.00000000000E+00 0. -1.
         -6    2    1    2    0  503 -0.26426725822E+02 -0.15096738096E+03  0.54373228479E+02  0.23628277085E+03  0.17141638741E+03 0.  0.
        -24    2    3    3    0    0 -0.70175680466E+02 -0.86258608862E+02 -0.62215260978E+01  0.13731302547E+03  0.80318029381E+02 0.  0.
          6    2    1    2  501    0  0.26426725822E+02  0.15096738096E+03  0.41597156329E+03  0.47418559564E+03  0.16831552423E+03 0.  0.
         24    2    5    5    0    0 -0.10111580309E+02  0.45066898309E+02  0.29490863354E+03  0.30917564746E+03  0.80530798220E+02 0.  0.
          5    1    5    5  501    0  0.36538306132E+02  0.10590048266E+03  0.12106292975E+03  0.16500994819E+03  0.47000000000E+01 0. -1.
        -13    1    6    6    0    0  0.24932121741E+02  0.44927987143E+02  0.22717627013E+03  0.23291456037E+03  0.00000000000E+00 0.  1.
         14    1    6    6    0    0 -0.35043702050E+02  0.13891116566E+00  0.67732363418E+02  0.76261087088E+02  0.00000000000E+00 0. -1.
         -5    1    3    3    0  503  0.43748954643E+02 -0.64708772102E+02  0.60594754576E+02  0.98969745385E+02  0.47000000000E+01 0.  1.
         11    1    4    4    0    0 -0.26901665615E+02 -0.23548900019E+02  0.35552923770E+02  0.50420835907E+02  0.00000000000E+00 0. -1.
        -12    1    4    4    0    0 -0.43274014851E+02 -0.62709708843E+02 -0.41774449868E+02  0.86892189558E+02  0.00000000000E+00 0.  1.
</event>
<event>
12    1  0.8113184E-002  0.2122571E+03  0.7818608E-02  0.1141067E+00
         21   -1    0    0  501  502  0.00000000000E+00  0.00000000000E+00  0.65760220898E+02  0.65760220898E+02  0.00000000000E+00 0. -1.
         21   -1    0    0  502  503 -0.00000000000E+00 -0.00000000000E+00 -0.74873194639E+03  0.74873194639E+03  0.00000000000E+00 0.  1.
         -6    2    1    2    0  503 -0.79621546512E+02 -0.79412753446E+02 -0.47339212573E+03  0.51620258292E+03  0.17239207007E+03 0.  0.
        -24    2    3    3    0    0 -0.85624542685E+02 -0.72813773260E+02 -0.48261729263E+03  0.50253597373E+03  0.83603503859E+02 0.  0.
          6    2    1    2  501    0  0.79621546512E+02  0.79412753446E+02 -0.20957959976E+03  0.29828958437E+03  0.18001969734E+03 0.  0.
         24    2    5    5    0    0  0.48597204887E+02  0.18668441914E+02 -0.20991716669E+03  0.22991864677E+03  0.78020306438E+02 0.  0.
          5    1    5    5  501    0  0.31024341625E+02  0.60744311532E+02  0.33756693066E+00  0.68370937599E+02  0.47000000000E+01 0. -1.
        -13    1    6    6    0    0 -0.14868707251E+02 -0.91875674229E+01 -0.87623842238E+02  0.89350028422E+02  0.00000000000E+00 0.  1.
         14    1    6    6    0    0  0.63465912138E+02  0.27856009336E+02 -0.12229332445E+03  0.14056861835E+03  0.00000000000E+00 0. -1.
         -5    1    3    3    0  503  0.60029961734E+01 -0.65989801857E+01  0.92251668950E+01  0.13666609191E+02  0.47000000000E+01 0.  1.
         11    1    4    4    0    0 -0.67087804661E+02 -0.39158664902E+02 -0.16240262124E+03  0.18002440378E+03  0.00000000000E+00 0. -1.
        -12    1    4    4    0    0 -0.18536738024E+02 -0.33655108359E+02 -0.32021467139E+03  0.32251156995E+03  0.00000000000E+00 0.  1.
</event>
<event>
12    1  0.8113184E-002  0.1901436E+03  0.7818608E-02  0.1159072E+00
         21   -1    0    0  501  502  0.00000000000E+00  0.00000000000E+00  0.98727642565E+02  0.98727642565E+02  0.00000000000E+00 0. -1.
         21   -1    0    0  502  503 -0.00000000000E+00 -0.00000000000E+00 -0.36000539872E+03  0.36000539872E+03  0.00000000000E+00 0. -1.
         -6    2    1    2    0  503  0.43465487414E+02  0.58093508762E+02 -0.13437095182E+03  0.23283070172E+03  0.17575687359E+03 0.  0.
        -24    2    3    3    0    0  0.87667113729E+02  0.31841381123E+02 -0.52489803805E+02  0.13603416059E+03  0.83968547456E+02 0.  0.
          6    2    1    2  501    0 -0.43465487414E+02 -0.58093508762E+02 -0.12690680434E+03  0.22590233957E+03  0.17222783074E+03 0.  0.
         24    2    5    5    0    0  0.43074694958E+02 -0.33574526932E+02 -0.92411994526E+02  0.12945356799E+03  0.72357247938E+02 0.  0.
          5    1    5    5  501    0 -0.86540182372E+02 -0.24518981829E+02 -0.34494809810E+02  0.96448771578E+02  0.47000000000E+01 0. -1.
        -11    1    6    6    0    0  0.19738549347E+02  0.19032268347E+02 -0.10534405968E+02  0.29373649379E+02  0.00000000000E+00 0.  1.
         12    1    6    6    0    0  0.23336145611E+02 -0.52606795279E+02 -0.81877588558E+02  0.10007991861E+03  0.00000000000E+00 0. -1.
         -5    1    3    3    0  503 -0.44201626315E+02  0.26252127639E+02 -0.81881148016E+02  0.96796541131E+02  0.47000000000E+01 0.  1.
         13    1    4    4    0    0 -0.90713484113E+01  0.19368227170E+02  0.61132746782E+01  0.22243869110E+02  0.00000000000E+00 0. -1.
        -14    1    4    4    0    0  0.96738462140E+02  0.12473153953E+02 -0.58603078483E+02  0.11379029148E+03  0.00000000000E+00 0.  1.
</event>
<event>
12    1  0.8113184E-002  0.2139540E+03  0.7818608E-02  0.1139010E+00
         21   -1    0    0  503  502  0.00000000000E+00  0.00000000000E+00  0.50341719262E+03  0.50341719262E+03  0.00000000000E+00 0.  1.
         21   -1    0    0  501  503 -0.00000000000E+00 -0.00000000000E+00 -0.12140695610E+03  0.12140695610E+03  0.00000000000E+00 0.  1.
          6    2    1    2  501    0 -0.10740894659E+03  0.66794740433E+02  0.32425022193E+02  0.21639708579E+03  0.17256331452E+03 0.  0.
         24    2    3    3    0    0 -0.17159195987E+01  0.56167890977E+02  0.38403576637E+02  0.10989929709E+03  0.86285829927E+02 0.  0.
         -6    2    1    2    0  502  0.10740894659E+03 -0.66794740433E+02  0.34958521433E+03  0.40842706293E+03  0.16912901733E+03 0.  0.
        -24    2    5    5    0    0  0.81798576688E+02 -0.10494345710E+03  0.31308104339E+03  0.34955550677E+03  0.80406319686E+02 0.  0.
          5    1    3    3  501    0 -0.10569302699E+03  0.10626849457E+02 -0.59785544439E+01  0.10649778870E+03  0.47000000000E+01 0. -1.
        -11    1    4    4    0    0  0.30989653183E+01 -0.18409108868E+02 -0.96859635486E+01  0.21031328185E+02  0.00000000000E+00 0.  1.
         12    1    4    4    0    0 -0.48148849171E+01  0.74576999845E+02  0.48089540186E+02  0.88867968908E+02  0.00000000000E+00 0. -1.
         -5    1    5    5    0  502  0.25610369906E+02  0.38148716664E+02  0.36504170938E+02  0.58871556168E+02  0.47000000000E+01 0.  1.
         13    1    6    6    0    0  0.56797479859E+02 -0.21499253088E+02  0.77999856553E+02  0.98854181621E+02  0.00000000000E+00 0. -1.
        -14    1    6    6    0    0  0.25001096829E+02 -0.83444204009E+02  0.23508118684E+03  0.25070132514E+03  0.00000000000E+00 0.  1.
</event>
<event>
12    1  0.8113184E-002  0.2864651E+03  0.7818608E-02  0.1092304E+00
         21   -1    0    0  503  502  0.00000000000E+00  0.00000000000E+00  0.74565971057E+03  0.74565971057E+03  0.00000000000E+00 0.  1.
         21   -1    0    0  501  503 -0.00000000000E+00 -0.00000000000E+00 -0.11002303505E+03  0.11002303505E+03  0.00000000000E+00 0. -1.
          6    2    1    2  501    0  0.12662421880E+03 -0.19007128617E+03  0.33829751312E+03  0.44329163472E+03  0.17292044245E+03 0.  0.
         24    2    3    3    0    0  0.87847677926E+02 -0.20970599691E+03  0.30314000976E+03  0.38719099274E+03  0.79556141731E+02 0.  0.
         -6    2    1    2    0  502 -0.12662421880E+03  0.19007128617E+03  0.29733916240E+03  0.41239111090E+03  0.17174127122E+03 0.  0.
        -24    2    5    5    0    0 -0.55969693046E+02  0.34025049374E+02  0.16687185481E+03  0.19701632506E+03  0.81724573334E+02 0.  0.
          5    1    3    3  501    0  0.38776540875E+02  0.19634710736E+02  0.35157503364E+02  0.56100641981E+02  0.47000000000E+01 0. -1.
        -13    1    4    4    0    0 -0.27268617312E+01 -0.90934700840E+02  0.10237000119E+03  0.13695317716E+03  0.00000000000E+00 0.  1.
         14    1    4    4    0    0  0.90574539657E+02 -0.11877129607E+03  0.20077000857E+03  0.25023781558E+03  0.00000000000E+00 0. -1.
         -5    1    5    5    0  502 -0.70654525754E+02  0.15604623680E+03  0.13046730759E+03  0.21537478584E+03  0.47000000000E+01 0.  1.
         11    1    6    6    0    0 -0.69292917919E+02  0.48571851526E+02  0.14158269683E+03  0.16494360635E+03  0.00000000000E+00 0. -1.
        -12    1    6    6    0    0  0.13323224873E+02 -0.14546802152E+02  0.25289157988E+02  0.32072718712E+02  0.00000000000E+00 0.  1.
</event>
<event>
12    1  0.8113184E-002  0.2550372E+03  0.7818608E-02  0.1110317E+00
         21   -1    0    0  503  502  0.00000000000E+00  0.00000000000E+00  0.77240418789E+02  0.77240418789E+02  0.00000000000E+00 0. -1.
         21   -1    0    0  501  503 -0.00000000000E+00 -0.00000000000E+00 -0.92727151388E+03  0.92727151388E+03  0.00000000000E+00 0.  1.
          6    2    1    2  501    0 -0.98316294413E+02  0.15989307195E+03 -0.58091448766E+03  0.63443331466E+03  0.17266180981E+03 0.  0.
         24    2    3    3    0    0 -0.62003873843E+02  0.18867962225E+02 -0.31455842740E+03  0.33083108426E+03  0.79383384272E+02 0.  0.
         -6    2    1    2    0  502  0.98316294413E+02 -0.15989307195E+03 -0.26911660743E+03  0.37007861801E+03  0.17117986712E+03 0.  0.
        -24    2    5    5    0    0  0.24764813963E+02 -0.11937103942E+02 -0.65121608903E+02  0.10752036129E+03  0.81018600862E+02 0.  0.
          5    1    3    3  501    0 -0.36312420570E+02  0.14102510973E+03 -0.26635606026E+03  0.30360223039E+03  0.47000000000E+01 0. -1.
        -13    1    4    4    0    0 -0.72849409414E+02  0.26244285128E+02 -0.30480283495E+03  0.31448460558E+03  0.00000000000E+00 0.  1.
         14    1    4    4    0    0  0.10845535571E+02 -0.73763229029E+01 -0.97555924523E+01  0.16346478688E+02  0.00000000000E+00 0. -1.
         -5    1    5    5    0  502  0.73551480451E+02 -0.14795596801E+03 -0.20399499853E+03  0.26255825672E+03  0.47000000000E+01 0.  1.
         11    1    6    6    0    0  0.34569673772E+02 -0.34775128373E+02 -0.14511056035E+02  0.51136509906E+02  0.00000000000E+00 0. -1.
        -12    1    6    6    0    0 -0.98048598093E+01  0.22838024431E+02 -0.50610552868E+02  0.56383851389E+02  0.00000000000E+00 0.  1.
</event>
<event>
12    1  0.8113184E-002  0.1726898E+03  0.7818608E-02  0.1175301E+00
         21   -1    0    0  503  502  0.00000000000E+00  0.00000000000E+00  0.18829017379E+03  0.18829017379E+03  0.00000000000E+00 0. -1.
         21   -1    0    0  501  503 -0.00000000000E+00 -0.00000000000E+00 -0.34446933172E+03  0.34446933172E+03  0.00000000000E+00 0. -1.
          6    2    1    2  501    0 -0.88401422324E+01 -0.35436273085E+01 -0.27421550887E+03  0.32358412002E+03  0.17152793362E+03 0.  0.
         24    2    3    3    0    0  0.46862123317E+02  0.38130869863E+02 -0.13396091182E+03  0.16695414812E+03  0.79234713610E+02 0.  0.
         -6    2    1    2    0  502  0.88401422324E+01  0.35436273085E+01  0.11803635095E+03  0.20917538549E+03  0.17242695944E+03 0.  0.
        -24    2    5    5    0    0 -0.10941412522E+02  0.58479733923E+02  0.37888356669E+02  0.10990264651E+03  0.84282087958E+02 0.  0.
          5    1    3    3  501    0 -0.55702265550E+02 -0.41674497171E+02 -0.14025459705E+03  0.15662997189E+03  0.47000000000E+01 0. -1.
        -13    1    4    4    0    0  0.20589040297E+02 -0.17333593377E+02 -0.10145252765E+02  0.28762617985E+02  0.00000000000E+00 0.  1.
         14    1    4    4    0    0  0.26273083021E+02  0.55464463240E+02 -0.12381565906E+03  0.13819153014E+03  0.00000000000E+00 0. -1.
         -5    1    5    5    0  502  0.19781554755E+02 -0.54936106614E+02  0.80147994277E+02  0.99272738982E+02  0.47000000000E+01 0.  1.
         11    1    6    6    0    0  0.26272145260E+02 -0.15328587405E+01  0.28291799457E+02  0.38639373559E+02  0.00000000000E+00 0. -1.
        -12    1    6    6    0    0 -0.37213557783E+02  0.60012592663E+02  0.95965572117E+01  0.71263272948E+02  0.00000000000E+00 0.  1.
</event>
<event>
12    1  0.8113184E-002  0.1916232E+03  0.7818608E-02  0.1159548E+00
         21   -1    0    0  503  502  0.00000000000E+00  0.00000000000E+00  0.39548279213E+03  0.39548279213E+03  0.00000000000E+00 0. -1.
         21   -1    0    0  501  503 -0.00000000000E+00 -0.00000000000E+00 -0.11509948191E+03  0.11509948191E+03  0.00000000000E+00 0. -1.
          6    2    1    2  501    0 -0.39855499182E+02 -0.38317056146E+02  0.12222420652E+02  0.18099206979E+03  0.17190719634E+03 0.  0.
         24    2    3    3    0    0 -0.10056063158E+02  0.18839789209E-01  0.67673842002E+02  0.10713682330E+03  0.82446499348E+02 0.  0.
         -6    2    1    2    0  502  0.39855499182E+02  0.38317056146E+02  0.26816088957E+03  0.32959020424E+03  0.18347420100E+03 0.  0.
        -24    2    5    5    0    0 -0.50189244462E+02  0.36351652162E+01  0.13311217101E+03  0.16354462074E+03  0.80596638990E+02 0.  0.
          5    1    3    3  501    0 -0.29799436024E+02 -0.38335895935E+02 -0.55451421350E+02  0.73855246490E+02  0.47000000000E+01 0. -1.
        -13    1    4    4    0    0  0.61581099100E+01  0.39085649312E+02  0.41777868440E+02  0.57541294660E+02  0.00000000000E+00 0.  1.
         14    1    4    4    0    0 -0.16214173069E+02 -0.39066809522E+02  0.25895973562E+02  0.49595528642E+02  0.00000000000E+00 0. -1.
         -5    1    5    5    0  502  0.90044743644E+02  0.34681890929E+02  0.13504871856E+03  0.16604558350E+03  0.47000000000E+01 0.  1.
         11    1    6    6    0    0  0.15544819060E+02  0.50826039485E+01  0.15005841723E+01  0.16423337522E+02  0.00000000000E+00 0. -1.
        -12    1    6    6    0    0 -0.65734063522E+02 -0.14474387323E+01  0.13161158684E+03  0.14712128322E+03  0.00000000000E+00 0.  1.
</event>
<event>
12    1  0.8113184E-002  0.2903369E+03  0.7818608E-02  0.1090362E+00
         21   -1    0    0  503  502  0.00000000000E+00  0.00000000000E+00  0.16323990661E+04  0.16323990661E+04  0.00000000000E+00 0. -1.
         21   -1    0    0  501  503 -0.00000000000E+00 -0.00000000000E+00 -0.51421855662E+02  0.51421855662E+02  0.00000000000E+00 0.  1.
          6    2    1    2  501    0  0.41164573178E+02  0.22825472150E+03  0.76919119664E+03  0.82216216740E+03  0.17464476099E+03 0.  0.
         24    2    3    3    0    0  0.94398912607E+02  0.13637471627E+03  0.48136284373E+03  0.51533472242E+03  0.79689841668E+02 0.  0.
         -6    2    1    2    0  502 -0.41164573178E+02 -0.22825472150E+03  0.81178601382E+03  0.86165875439E+03  0.17223395950E+03 0.  0.
        -24    2    5    5    0    0  0.27898832285E+02 -0.18579007051E+03  0.63885954606E+03  0.67061254582E+03  0.79267722748E+02 0.  0.
          5    1    3    3  501    0 -0.53234339429E+02  0.91880005232E+02  0.28782835291E+03  0.30682744499E+03  0.47000000000E+01 0. -1.
        -13    1    4    4    0    0  0.59366693323E+02  0.11753375537E+03  0.27163143849E+03  0.30186458272E+03  0.00000000000E+00 0.  1.
         14    1    4    4    0    0  0.35032219284E+02  0.18840960896E+02  0.20973140524E+03  0.21347013970E+03  0.00000000000E+00 0. -1.
         -5    1    5    5    0  502 -0.69063405462E+02 -0.42464650984E+02  0.17292646776E+03  0.19104620857E+03  0.47000000000E+01 0.  1.
         13    1    6    6    0    0  0.25557318503E+02 -0.18298274445E+03  0.52264893944E+03  0.55434445536E+03  0.00000000000E+00 0. -1.
        -14    1    6    6    0    0  0.23415137814E+01 -0.28073260662E+01  0.11621060662E+03  0.11626809046E+03  0.00000000000E+00 0.  1.
</event>
<event>
12    1  0.8113184E-002  0.1748510E+03  0.7818608E-02  0.1173255E+00
         21   -1    0    0  503  502  0.00000000000E+00  0.00000000000E+00  0.31364947791E+03  0.31364947791E+03  0.00000000000E+00 0. -1.
         21   -1    0    0  501  503 -0.00000000000E+00 -0.00000000000E+00 -0.12517334418E+03  0.12517334418E+03  0.00000000000E+00 0. -1.
          6    2    1    2  501    0 -0.11553317874E+02  0.24773499774E+02 -0.10804548980E+02  0.17370839090E+03  0.17120356698E+03 0.  0.
         24    2    3    3    0    0 -0.52824150104E+02 -0.23409170384E+02  0.21440142615E+02  0.10238755641E+03  0.81762778211E+02 0.  0.
         -6    2    1    2    0  502  0.11553317874E+02 -0.24773499774E+02  0.19928068271E+03  0.26511443119E+03  0.17270108766E+03 0.  0.
        -24    2    5    5    0    0 -0.24848218292E+02 -0.67314254651E+02  0.85648853126E+02  0.13835059425E+03  0.81587487128E+02 0.  0.
          5    1    3    3  501    0  0.41270832230E+02  0.48182670158E+02 -0.32244691594E+02  0.71320834491E+02  0.47000000000E+01 0. -1.
        -11    1    4    4    0    0 -0.42509545827E+01  0.27841982930E+02 -0.13275001615E+01  0.28195901919E+02  0.00000000000E+00 0.  1.
         12    1    4    4    0    0 -0.48573195521E+02 -0.51251153314E+02  0.22767642776E+02  0.74191654495E+02  0.00000000000E+00 0. -1.
         -5    1    5    5    0  502  0.36401536166E+02  0.42540754877E+02  0.11363182959E+03  0.12676383694E+03  0.47000000000E+01 0.  1.
         13    1    6    6    0    0 -0.50321592919E+02 -0.65039562418E+02  0.57644790286E+02  0.10042573993E+03  0.00000000000E+00 0. -1.
        -14    1    6    6    0    0  0.25473374627E+02 -0.22746922335E+01  0.28004062839E+02  0.37924854319E+02  0.00000000000E+00 0.  1.
</event>
<event>
12    1  0.8113184E-002  0.1834297E+03  0.7818608E-02  0.1165438E+00
         21   -1    0    0  503  502  0.00000000000E+00  0.00000000000E+00  0.74407900928E+02  0.74407900928E+02  0.00000000000E+00 0. -1.
         21   -1    0    0  501  503 -0.00000000000E+00 -0.00000000000E+00 -0.45928854458E+03  0.45928854458E+03  0.00000000000E+00 0. -1.
          6    2    1    2  501    0  0.21996873265E+02  0.51009754023E+02 -0.24103826025E+03  0.30059330520E+03  0.17079530084E+03 0.  0.
         24    2    3    3    0    0  0.79848954810E+02  0.41442183339E+02 -0.15782366948E+03  0.19868570065E+03  0.80463574686E+02 0.  0.
         -6    2    1    2    0  502 -0.21996873265E+02 -0.51009754023E+02 -0.14384238341E+03  0.23310314031E+03  0.17481586118E+03 0.  0.
        -24    2    5    5    0    0  0.21237998688E+02 -0.49217126495E+02 -0.15989394129E+03  0.18671122101E+03  0.80135070106E+02 0.  0.
          5    1    3    3  501    0 -0.57852081545E+02  0.95675706844E+01 -0.83214590768E+02  0.10190760455E+03  0.47000000000E+01 0. -1.
        -11    1    4    4    0    0  0.23862668041E+02  0.15319020776E+02  0.89096862473E+00  0.28370638848E+02  0.00000000000E+00 0.  1.
         12    1    4    4    0    0  0.55986286769E+02  0.26123162563E+02 -0.15871463810E+03  0.17031506180E+03  0.00000000000E+00 0. -1.
         -5    1    5    5    0  502 -0.43234871953E+02 -0.17926275280E+01  0.16051557881E+02  0.46391919303E+02  0.47000000000E+01 0.  1.
         13    1    6    6    0    0  0.42855668779E+02 -0.41444906068E+02 -0.61431489384E+02  0.85604418539E+02  0.00000000000E+00 0. -1.
        -14    1    6    6    0    0 -0.21617670091E+02 -0.77722204277E+01 -0.98462451903E+02  0.10110680247E+03  0.00000000000E+00 0.  1.
</event>
<event>
12    1  0.8113184E-002  0.3001446E+03  0.7818608E-02  0.1085338E+00
         21   -1    0    0  503  502  0.00000000000E+00  0.00000000000E+00  0.79292502781E+02  0.79292502781E+02  0.00000000000E+00 0. -1.
         21   -1    0    0  501  503 -0.00000000000E+00 -0.00000000000E+00 -0.13586442773E+04  0.13586442773E+04  0.00000000000E+00 0.  1.
          6    2    1    2  501    0 -0.14528129062E+03  0.19647642476E+03 -0.93276733088E+03  0.97945280922E+03  0.17193973664E+03 0.  0.
         24    2    3    3    0    0 -0.39167586118E+02  0.49925868360E+02 -0.50310460968E+03  0.51322397285E+03  0.79106927005E+02 0.  0.
         -6    2    1    2    0  502  0.14528129062E+03 -0.19647642476E+03 -0.34658444365E+03  0.45848397087E+03  0.17429037862E+03 0.  0.
        -24    2    5    5    0    0  0.16938641099E+03 -0.15492817854E+03 -0.24323750008E+03  0.34442260871E+03  0.82267583005E+02 0.  0.
          5    1    3    3  501    0 -0.10611370450E+03  0.14655055640E+03 -0.42966272120E+03  0.46622883636E+03  0.47000000000E+01 0. -1.
        -11    1    4    4    0    0 -0.26939307307E+02  0.27492695854E+02 -0.74476802969E+02  0.83835367143E+02  0.00000000000E+00 0.  1.
         12    1    4    4    0    0 -0.12228278811E+02  0.22433172506E+02 -0.42862780671E+03  0.42938860571E+03  0.00000000000E+00 0. -1.
         -5    1    5    5    0  502 -0.24105120378E+02 -0.41548246227E+02 -0.10334694357E+03  0.11406136216E+03  0.47000000000E+01 0.  1.
         13    1    6    6    0    0  0.20347858982E+02 -0.67912394136E+02 -0.62327447380E+02  0.94397242223E+02  0.00000000000E+00 0. -1.
        -14    1    6    6    0    0  0.14903855201E+03 -0.87015784401E+02 -0.18091005270E+03  0.25002536649E+03  0.00000000000E+00 0.  1.
</event>
<event>
12    1  0.8113184E-002  0.1779944E+03  0.7818608E-02  0.1170433E+00
         21   -1    0    0  501  502  0.00000000000E+00  0.00000000000E+00  0.11626052680E+03  0.11626052680E+03  0.00000000000E+00 0. -1.
         21   -1    0    0  502  503 -0.00000000000E+00 -0.00000000000E+00 -0.38496973490E+03  0.38496973490E+03  0.00000000000E+00 0. -1.
         -6    2    1    2    0  503 -0.46068920868E+02  0.14228516440E+02 -0.27156506884E+03  0.32321291798E+03  0.16850580875E+03 0.  0.
        -24    2    3    3    0    0  0.35584695708E+02  0.24306739829E+02 -0.11520404160E+03  0.14646523192E+03  0.79517323844E+02 0.  0.
          6    2    1    2  501    0  0.46068920868E+02 -0.14228516440E+02  0.28558607393E+01  0.17801734373E+03  0.17133949509E+03 0.  0.
         24    2    5    5    0    0  0.72702005240E+02 -0.59835318338E+02 -0.53078553914E+01  0.12436999688E+03  0.81079441959E+02 0.  0.
          5    1    5    5  501    0 -0.26633084373E+02  0.45606801899E+02  0.81637161307E+01  0.53647346847E+02  0.47000000000E+01 0. -1.
        -13    1    6    6    0    0 -0.43808142557E+01 -0.80078803031E+01 -0.27410450340E+02  0.28890317899E+02  0.00000000000E+00 0.  1.
         14    1    6    6    0    0  0.77082819496E+02 -0.51827438035E+02  0.22102594949E+02  0.95479678980E+02  0.00000000000E+00 0. -1.
         -5    1    3    3    0  503 -0.81653616575E+02 -0.10078223389E+02 -0.15636102724E+03  0.17674768606E+03  0.47000000000E+01 0.  1.
         11    1    4    4    0    0 -0.19761887131E+02 -0.63351395498E+01 -0.85179327696E+01  0.22432595809E+02  0.00000000000E+00 0. -1.
        -12    1    4    4    0    0  0.55346582838E+02  0.30641879379E+02 -0.10668610883E+03  0.12403263611E+03  0.00000000000E+00 0.  1.
</event>
<event>
12    1  0.8113184E-002  0.1956241E+03  0.7818608E-02  0.1153611E+00
         21   -1    0    0  503  502  0.00000000000E+00  0.00000000000E+00  0.80599714687E+03  0.80599714687E+03  0.00000000000E+00 0.  1.
         21   -1    0    0  501  503 -0.00000000000E+00 -0.00000000000E+00 -0.47984908664E+02  0.47984908664E+02  0.00000000000E+00 0.  1.
          6    2    1    2  501    0  0.53719053610E+02  0.76328675585E+02  0.32890102420E+03  0.38238346258E+03  0.17125835834E+03 0.  0.
         24    2    3    3    0    0  0.41261569649E+02 -0.16998859079E+02  0.16954664532E+03  0.19723183364E+03  0.90348508128E+02 0.  0.
         -6    2    1    2    0  502 -0.53719053610E+02 -0.76328675585E+02  0.42911121401E+03  0.47159859295E+03  0.17192148048E+03 0.  0.
        -24    2    5    5    0    0 -0.52713673599E+02  0.19224257458E+02  0.22022785796E+03  0.24184716154E+03  0.82712977603E+02 0.  0.
          5    1    3    3  501    0  0.12457483961E+02  0.93327534664E+02  0.15935437888E+03  0.18515162894E+03  0.47000000000E+01 0. -1.
        -11    1    4    4    0    0  0.15798740025E+02  0.20263989342E+02  0.44497988028E+01  0.26077387903E+02  0.00000000000E+00 0.  1.
         12    1    4    4    0    0  0.25462829624E+02 -0.37262848421E+02  0.16509684652E+03  0.17115444574E+03  0.00000000000E+00 0. -1.
         -5    1    5    5    0  502 -0.10053800113E+01 -0.95552933043E+02  0.20888335605E+03  0.22975143142E+03  0.47000000000E+01 0.  1.
         11    1    6    6    0    0  0.17253528911E+02 -0.60512237527E+01  0.15322972028E+02  0.23855712954E+02  0.00000000000E+00 0. -1.
        -12    1    6    6    0    0 -0.69967202510E+02  0.25275481210E+02  0.20490488593E+03  0.21799144858E+03  0.00000000000E+00 0.  1.
</event>
<event>
12    1  0.8113184E-002  0.2183556E+03  0.7818608E-02  0.1135462E+00
         21   -1    0    0  501  502  0.00000000000E+00  0.00000000000E+00  0.93407656922E+03  0.93407656922E+03  0.00000000000E+00 0. -1.
         21   -1    0    0  502  503 -0.00000000000E+00 -0.00000000000E+00 -0.97452880985E+02  0.97452880985E+02  0.00000000000E+00 0.  1.
         -6    2    1    2    0  503  0.15927061995E+02  0.13016246176E+03  0.59837419904E+02  0.22463660651E+03  0.17229379098E+03 0.  0.
        -24    2    3    3    0    0  0.12530502526E+02  0.73859145138E-01  0.41752227875E+02  0.93168947682E+02  0.82341880784E+02 0.  0.
          6    2    1    2  501    0 -0.15927061995E+02 -0.13016246176E+03  0.77678626833E+03  0.80689284370E+03  0.17459443513E+03 0.  0.
         24    2    5    5    0    0  0.12548382468E+01 -0.70380464663E+02  0.19820444057E+03  0.22495803095E+03  0.79788037948E+02 0.  0.
          5    1    5    5  501    0 -0.17181900242E+02 -0.59781997102E+02  0.57858182776E+03  0.58193481275E+03  0.47000000000E+01 0. -1.
        -11    1    6    6    0    0  0.19497506374E+02 -0.47139115172E+02  0.18620894832E+03  0.19306999085E+03  0.00000000000E+00 0.  1.
         12    1    6    6    0    0 -0.18242668127E+02 -0.23241349491E+02  0.11995492253E+02  0.31888040093E+02  0.00000000000E+00 0. -1.
         -5    1    3    3    0  503  0.33965594694E+01  0.13008860262E+03  0.18085192029E+02  0.13146765883E+03  0.47000000000E+01 0.  1.
         13    1    4    4    0    0 -0.35113295608E+02  0.46189048789E+01  0.18602012029E+02  0.40003908088E+02  0.00000000000E+00 0. -1.
        -14    1    4    4    0    0  0.47643798134E+02 -0.45450457338E+01  0.23150215846E+02  0.53165039595E+02  0.00000000000E+00 0.  1.
</event>
<event>
12    1  0.8113184E-002  0.1996854E+03  0.7818608E-02  0.1150137E+00
         21   -1    0    0  503  502  0.00000000000E+00  0.00000000000E+00  0.40632832200E+03  0.40632832200E+03  0.00000000000E+00 0. -1.
         21   -1    0    0  501  503 -0.00000000000E+00 -0.00000000000E+00 -0.10757492875E+03  0.10757492875E+03  0.00000000000E+00 0. -1.
          6    2    1    2  501    0 -0.68262532942E+02 -0.73560058407E+02  0.72235258937E+02  0.21234918509E+03  0.17263657833E+03 0.  0.
         24    2    3    3    0    0 -0.37791533885E+02 -0.95839183405E+02 -0.25329354004E+01  0.12846108057E+03  0.76697355569E+02 0.  0.
         -6    2    1    2    0  502  0.68262532942E+02  0.73560058407E+02  0.22651813432E+03  0.30155406567E+03  0.17191141250E+03 0.  0.
        -24    2    5    5    0    0  0.25918962890E+02  0.10600433267E+03  0.11001726399E+03  0.17333491092E+03  0.77669052952E+02 0.  0.
          5    1    3    3  501    0 -0.30470999058E+02  0.22279124998E+02  0.74768194337E+02  0.83888104512E+02  0.47000000000E+01 0. -1.
        -11    1    4    4    0    0 -0.32320897703E+02 -0.98224106033E+00 -0.79278338294E+01  0.33293479467E+02  0.00000000000E+00 0.  1.
         12    1    4    4    0    0 -0.54706361817E+01 -0.94856942345E+02  0.53948984290E+01  0.95167601106E+02  0.00000000000E+00 0. -1.
         -5    1    5    5    0  502  0.42343570052E+02 -0.32444274260E+02  0.11650087033E+03  0.12821915475E+03  0.47000000000E+01 0.  1.
         11    1    6    6    0    0 -0.40755093633E+01  0.63631700959E+02  0.10273313216E+03  0.12091194973E+03  0.00000000000E+00 0. -1.
        -12    1    6    6    0    0  0.29994472254E+02  0.42372631708E+02  0.72841318292E+01  0.52422961192E+02  0.00000000000E+00 0.  1.
</event>
<event>
12    1  0.8113184E-002  0.1811556E+03  0.7818608E-02  0.1167258E+00
         21   -1    0    0  503  502  0.00000000000E+00  0.00000000000E+00  0.25822596937E+02  0.25822596937E+02  0.00000000000E+00 0.  1.
         21   -1    0    0  501  503 -0.00000000000E+00 -0.00000000000E+00 -0.14029071905E+04  0.14029071905E+04  0.00000000000E+00 0.  1.
          6    2    1    2  501    0 -0.25459703366E+02 -0.47041261431E+02 -0.91692126117E+03  0.93419198444E+03  0.17061356287E+03 0.  0.
         24    2    3    3    0    0 -0.67303223018E+02 -0.44593788241E+02 -0.41137405885E+03  0.42688839286E+03  0.80540386648E+02 0.  0.
         -6    2    1    2    0  502  0.25459703366E+02  0.47041261431E+02 -0.46016333242E+03  0.49453780302E+03  0.17307879519E+03 0.  0.
        -24    2    5    5    0    0 -0.44445329316E+02  0.28974193346E+02 -0.16545302564E+03  0.19107547016E+03  0.79499939789E+02 0.  0.
          5    1    3    3  501    0  0.41843519652E+02 -0.24474731901E+01 -0.50554720232E+03  0.50730359158E+03  0.47000000000E+01 0. -1.
        -11    1    4    4    0    0 -0.31589427303E+02 -0.57447708194E+02 -0.33777124163E+03  0.34407490866E+03  0.00000000000E+00 0.  1.
         12    1    4    4    0    0 -0.35713795715E+02  0.12853919953E+02 -0.73602817220E+02  0.82813484200E+02  0.00000000000E+00 0. -1.
         -5    1    5    5    0  502  0.69905032682E+02  0.18067068085E+02 -0.29471030678E+03  0.30346233286E+03  0.47000000000E+01 0.  1.
         11    1    6    6    0    0  0.15737957532E+02 -0.66326973060E+01 -0.74034746379E+02  0.75979073778E+02  0.00000000000E+00 0. -1.
        -12    1    6    6    0    0 -0.60183286847E+02  0.35606890652E+02 -0.91418279261E+02  0.11509639638E+03  0.00000000000E+00 0.  1.
</event>
<event>
12    1  0.8113184E-002  0.1826814E+03  0.7818608E-02  0.1167007E+00
         21   -1    0    0  503  502  0.00000000000E+00  0.00000000000E+00  0.97275517788E+02  0.97275517788E+02  0.00000000000E+00 0. -1.
         21   -1    0    0  501  503 -0.00000000000E+00 -0.00000000000E+00 -0.34537877085E+03  0.34537877085E+03  0.00000000000E+00 0. -1.
          6    2    1    2  501    0 -0.20285811073E+02  0.38727083409E+02 -0.17394929268E+03  0.25225159028E+03  0.17737307365E+03 0.  0.
         24    2    3    3    0    0  0.33512957557E+02  0.61969447586E+02 -0.15957885170E+03  0.19172792076E+03  0.79566669713E+02 0.  0.
         -6    2    1    2    0  502  0.20285811073E+02 -0.38727083409E+02 -0.74153960389E+02  0.19040269836E+03  0.16983249566E+03 0.  0.
        -24    2    5    5    0    0  0.18833329815E+02 -0.23723535288E+02  0.25501481062E+02  0.89504169290E+02  0.80269361188E+02 0.  0.
          5    1    3    3  501    0 -0.53798768630E+02 -0.23242364176E+02 -0.14370440975E+02  0.60523669522E+02  0.47000000000E+01 0. -1.
        -13    1    4    4    0    0  0.25349107156E+02 -0.62666796400E+01 -0.11606027782E+02  0.28575310815E+02  0.00000000000E+00 0.  1.
         14    1    4    4    0    0  0.81638504008E+01  0.68236127226E+02 -0.14797282392E+03  0.16315260994E+03  0.00000000000E+00 0. -1.
         -5    1    5    5    0  502  0.14524812580E+01 -0.15003548121E+02 -0.99655441452E+02  0.10089852907E+03  0.47000000000E+01 0.  1.
         13    1    6    6    0    0 -0.31195639970E+02 -0.16008756454E+02  0.12675176827E+02  0.37284156742E+02  0.00000000000E+00 0. -1.
        -14    1    6    6    0    0  0.50028969785E+02 -0.77147788336E+01  0.12826304235E+02  0.52220012548E+02  0.00000000000E+00 0.  1.
</event>
<event>
12    1  0.8113184E-002  0.1843585E+03  0.7818608E-02  0.1163823E+00
         21   -1    0    0  501  502  0.00000000000E+00  0.00000000000E+00  0.68510656275E+03  0.68510656275E+03  0.00000000000E+00 0. -1.
         21   -1    0    0  502  503 -0.00000000000E+00 -0.00000000000E+00 -0.99165081799E+02  0.99165081799E+02  0.00000000000E+00 0. -1.
         -6    2    1    2    0  503 -0.65050214834E+02 -0.65061484418E+01  0.15504795427E+02  0.18500931880E+03  0.17237804078E+03 0.  0.
        -24    2    3    3    0    0  0.10227323407E+02 -0.29244549228E+02 -0.35798897992E+02  0.90999204486E+02  0.77713913272E+02 0.  0.
          6    2    1    2  501    0  0.65050214834E+02  0.65061484418E+01  0.57043668552E+03  0.59926232575E+03  0.17159097430E+03 0.  0.
         24    2    5    5    0    0 -0.22562417529E+02  0.26895455127E+02  0.18671152036E+03  0.20510653224E+03  0.77298574007E+02 0.  0.
          5    1    5    5  501    0  0.87612632363E+02 -0.20389306685E+02  0.38372516516E+03  0.39415579351E+03  0.47000000000E+01 0. -1.
        -11    1    6    6    0    0 -0.21235111197E+02  0.36134735858E+02  0.19048278729E+03  0.19503933279E+03  0.00000000000E+00 0.  1.
         12    1    6    6    0    0 -0.13273063314E+01 -0.92392807309E+01 -0.37712669306E+01  0.10067199451E+02  0.00000000000E+00 0. -1.
         -5    1    3    3    0  503 -0.75277538241E+02  0.22738400786E+02  0.51303693419E+02  0.94010114309E+02  0.47000000000E+01 0.  1.
         11    1    4    4    0    0 -0.20761717110E+02 -0.23069151212E+02 -0.47972754361E+02  0.57136851471E+02  0.00000000000E+00 0. -1.
        -12    1    4    4    0    0  0.30989040517E+02 -0.61753980163E+01  0.12173856369E+02  0.33862353015E+02  0.00000000000E+00 0.  1.
</event>
<event>
12    1  0.8113184E-002  0.1949883E+03  0.7818608E-02  0.1154610E+00
         21   -1    0    0  501  502  0.00000000000E+00  0.00000000000E+00  0.42121698265E+03  0.42121698265E+03  0.00000000000E+00 0. -1.
         21   -1    0    0  502  503 -0.00000000000E+00 -0.00000000000E+00 -0.12679328467E+03  0.12679328467E+03  0.00000000000E+00 0. -1.
         -6    2    1    2    0  503  0.19830890235E+02  0.93139197754E+02 -0.29557774320E+01  0.19240518992E+03  0.16716113820E+03 0.  0.
        -24    2    3    3    0    0 -0.12887026536E+02  0.12658330907E+02  0.33996888707E+02  0.97878889133E+02  0.89989886664E+02 0.  0.
          6    2    1    2  501    0 -0.19830890235E+02 -0.93139197754E+02  0.29737947541E+03  0.35560507740E+03  0.17015359036E+03 0.  0.
         24    2    5    5    0    0 -0.22264388499E+02 -0.16387758063E+02  0.53973492305E+02  0.10033019023E+03  0.79929641500E+02 0.  0.
          5    1    5    5  501    0  0.24334982638E+01 -0.76751439691E+02  0.24340598311E+03  0.25527488717E+03  0.47000000000E+01 0. -1.
        -13    1    6    6    0    0 -0.43915262199E+02 -0.33497883970E+02  0.45210079334E+02  0.71376535065E+02  0.00000000000E+00 0.  1.
         14    1    6    6    0    0  0.21650873700E+02  0.17110125907E+02  0.87634129707E+01  0.28953655165E+02  0.00000000000E+00 0. -1.
         -5    1    3    3    0  503  0.32717916771E+02  0.80480866848E+02 -0.36952666139E+02  0.94526300791E+02  0.47000000000E+01 0.  1.
         13    1    4    4    0    0  0.59166270840E+01  0.20260319576E+02 -0.26612267132E+02  0.33966156499E+02  0.00000000000E+00 0. -1.
        -14    1    4    4    0    0 -0.18803653620E+02 -0.76019886696E+01  0.60609155839E+02  0.63912732634E+02  0.00000000000E+00 0.  1.
</event>
<event>
12    1  0.8113184E-002  0.2104671E+03  0.7818608E-02  0.1141780E+00
         21   -1    0    0  503  502  0.00000000000E+00  0.00000000000E+00  0.88682686048E+02  0.88682686048E+02  0.00000000000E+00 0. -1.
         21   -1    0    0  501  503 -0.00000000000E+00 -0.00000000000E+00 -0.49698493888E+03  0.49698493888E+03  0.00000000000E+00 0. -1.
          6    2    1    2  501    0  0.14499692959E+02 -0.11584297464E+03 -0.23322485025E+03  0.31415000965E+03  0.17511870807E+03 0.  0.
         24    2    3    3    0    0  0.11041083136E+02  0.35621234914E+01 -0.56515493175E+02  0.10080093812E+03  0.82657328272E+02 0.  0.
         -6    2    1    2    0  502 -0.14499692959E+02  0.11584297464E+03 -0.17507740258E+03  0.27151761528E+03  0.17158054273E+03 0.  0.
        -24    2    5    5    0    0 -0.39098681309E+02  0.27992620121E+01 -0.97596378454E+02  0.13220002740E+03  0.80095264584E+02 0.  0.
          5    1    3    3  501    0  0.34586098226E+01 -0.11940509813E+03 -0.17670935708E+03  0.21334907152E+03  0.47000000000E+01 0. -1.
        -11    1    4    4    0    0  0.17369307790E+02 -0.35559788324E+02 -0.12340615262E+02  0.41454579769E+02  0.00000000000E+00 0.  1.
         12    1    4    4    0    0 -0.63282246539E+01  0.39121911815E+02 -0.44174877912E+02  0.59346358354E+02  0.00000000000E+00 0. -1.
         -5    1    5    5    0  502  0.24598988350E+02  0.11304371263E+03 -0.77481024123E+02  0.13931758788E+03  0.47000000000E+01 0.  1.
         13    1    6    6    0    0 -0.22229882457E+02  0.38958924908E+01  0.89812656624E+01  0.24290096444E+02  0.00000000000E+00 0. -1.
        -14    1    6    6    0    0 -0.16868798852E+02 -0.10966304787E+01 -0.10657764412E+03  0.10790993095E+03  0.00000000000E+00 0.  1.
</event>
<event>
12    1  0.8113184E-002  0.2223513E+03  0.7818608E-02  0.1132667E+00
         21   -1    0    0  501  502  0.00000000000E+00  0.00000000000E+00  0.35375576627E+02  0.35375576627E+02  0.00000000000E+00 0.  1.
         21   -1    0    0  502  503 -0.00000000000E+00 -0.00000000000E+00 -0.17991896415E+04  0.17991896415E+04  0.00000000000E+00 0. -1.
         -6    2    1    2    0  503 -0.13414122819E+03 -0.24525298313E+02 -0.13204234445E+04  0.13385457285E+04  0.17202103072E+03 0.  0.
        -24    2    3    3    0    0 -0.13858520150E+03 -0.48405961971E+02 -0.12819677677E+04  0.12928186679E+04  0.79935944464E+02 0.  0.
          6    2    1    2  501    0  0.13414122819E+03  0.24525298313E+02 -0.44339062029E+03  0.49601948960E+03  0.17562668515E+03 0.  0.
         24    2    5    5    0    0 -0.12906566576E+01  0.14231032692E+02 -0.21743671380E+03  0.23234350435E+03  0.80626245212E+02 0.  0.
          5    1    5    5  501    0  0.13543188485E+03  0.10294265621E+02 -0.22595390649E+03  0.26367598525E+03  0.47000000000E+01 0. -1.
        -11    1    6    6    0    0  0.27279748067E+02  0.25511888352E+02 -0.51676676715E+02  0.63761430490E+02  0.00000000000E+00 0.  1.
         12    1    6    6    0    0 -0.28570404725E+02 -0.11280855660E+02 -0.16576003709E+03  0.16858207386E+03  0.00000000000E+00 0. -1.
         -5    1    3    3    0  503  0.44439733101E+01  0.23880663658E+02 -0.38455676796E+02  0.45727060625E+02  0.47000000000E+01 0.  1.
         11    1    4    4    0    0 -0.89819632321E+02  0.10538467984E+02 -0.66196899095E+03  0.66811793168E+03  0.00000000000E+00 0. -1.
        -12    1    4    4    0    0 -0.48765569183E+02 -0.58944429955E+02 -0.61999877680E+03  0.62470073619E+03  0.00000000000E+00 0.  1.
</event>
<event>
12    1  0.8113184E-002  0.2495588E+03  0.7818608E-02  0.1113821E+00
         21   -1    0    0  501  502  0.00000000000E+00  0.00000000000E+00  0.30814483581E+03  0.30814483581E+03  0.00000000000E+00 0. -1.
         21   -1    0    0  502  503 -0.00000000000E+00 -0.00000000000E+00 -0.22614454240E+03  0.22614454240E+03  0.00000000000E+00 0. -1.
         -6    2    1    2    0  503 -0.14104175755E+03 -0.10893573571E+03 -0.48355581930E+02  0.25273608604E+03  0.17256156871E+03 0.  0.
        -24    2    3    3    0    0 -0.14732227236E+03 -0.13790212605E+03 -0.48966200818E+02  0.22272009879E+03  0.80533876622E+02 0.  0.
          6    2    1    2  501    0  0.14104175755E+03  0.10893573571E+03  0.13035587535E+03  0.28155329217E+03  0.17469925646E+03 0.  0.
         24    2    5    5    0    0  0.33192904572E+02  0.62452070367E+01  0.68793312631E+01  0.88045497220E+02  0.81017978605E+02 0.  0.
          5    1    5    5  501    0  0.10784885298E+03  0.10269052868E+03  0.12347654408E+03  0.19350779495E+03  0.47000000000E+01 0. -1.
        -13    1    6    6    0    0  0.43343010154E+02 -0.72437719843E+01  0.34367709948E+02  0.55787348466E+02  0.00000000000E+00 0.  1.
         14    1    6    6    0    0 -0.10150105582E+02  0.13488979021E+02 -0.27488378685E+02  0.32258148755E+02  0.00000000000E+00 0. -1.
         -5    1    3    3    0  503  0.62805148041E+01  0.28966390332E+02  0.61061888757E+00  0.30015987248E+02  0.47000000000E+01 0.  1.
         11    1    4    4    0    0 -0.48998219223E+02 -0.81086527201E+02  0.90994872398E+01  0.95176945993E+02  0.00000000000E+00 0. -1.
        -12    1    4    4    0    0 -0.98324053133E+02 -0.56815598845E+02 -0.58065688058E+02  0.12754315280E+03  0.00000000000E+00 0.  1.
</event>
<event>
12    1  0.8113184E-002  0.2735089E+03  0.7818608E-02  0.1099553E+00
         21   -1    0    0  503  502  0.00000000000E+00  0.00000000000E+00  0.39981513065E+03  0.39981513065E+03  0.00000000000E+00 0.  1.
         21   -1    0    0  501  503 -0.00000000000E+00 -0.00000000000E+00 -0.19317700310E+03  0.19317700310E+03  0.00000000000E+00 0. -1.
          6    2    1    2  501    0  0.45002869591E+02 -0.20490416508E+03  0.16151354699E+03  0.31763772555E+03  0.17548824373E+03 0.  0.
         24    2    3    3    0    0  0.95531278780E+02 -0.15610157672E+03  0.96933559528E+02  0.22209989248E+03  0.80239141304E+02 0.  0.
         -6    2    1    2    0  502 -0.45002869591E+02  0.20490416508E+03  0.45124580561E+02  0.27535440820E+03  0.17254810114E+03 0.  0.
        -24    2    5    5    0    0  0.66703874540E+01  0.93307404177E+02  0.81452350488E+02  0.14703543296E+03  0.78956743880E+02 0.  0.
          5    1    3    3  501    0 -0.50528409189E+02 -0.48802588359E+02  0.64579987465E+02  0.95537833065E+02  0.47000000000E+01 0. -1.
        -13    1    4    4    0    0  0.34335480805E+02 -0.10800494269E+03  0.24871358507E+02  0.11602834724E+03  0.00000000000E+00 0.  1.
         14    1    4    4    0    0  0.61195797976E+02 -0.48096634026E+02  0.72062201021E+02  0.10607154524E+03  0.00000000000E+00 0. -1.
         -5    1    5    5    0  502 -0.51673257045E+02  0.11159676090E+03 -0.36327769927E+02  0.12831897524E+03  0.47000000000E+01 0.  1.
         11    1    6    6    0    0 -0.12325027097E+02  0.62893174990E+02  0.70921580586E+01  0.64480667329E+02  0.00000000000E+00 0. -1.
        -12    1    6    6    0    0  0.18995414551E+02  0.30414229187E+02  0.74360192429E+02  0.82554765635E+02  0.00000000000E+00 0.  1.
</event>
<event>
12    1  0.8113184E-002  0.2147849E+03  0.7818608E-02  0.1137954E+00
         21   -1    0    0  501  502  0.00000000000E+00  0.00000000000E+00  0.16463048535E+04  0.16463048535E+04  0.00000000000E+00 0. -1.
         21   -1    0    0  502  503 -0.00000000000E+00 -0.00000000000E+00 -0.27957570087E+02  0.27957570087E+02  0.00000000000E+00 0. -1.
         -6    2    1    2    0  503 -0.58193917340E+02 -0.11438745840E+03  0.78664981758E+03  0.81527859606E+03  0.17143579274E+03 0.  0.
        -24    2    3    3    0    0 -0.80369741483E+02 -0.11544135845E+03  0.44770214186E+03  0.47557211281E+03  0.77107872947E+02 0.  0.
          6    2    1    2  501    0  0.58193917340E+02  0.11438745840E+03  0.83169746585E+03  0.85898382755E+03  0.17222519745E+03 0.  0.
         24    2    5    5    0    0 -0.27436893379E+02  0.29063109332E+02  0.43050084405E+03  0.43994480833E+03  0.81381878840E+02 0.  0.
          5    1    5    5  501    0  0.85630810719E+02  0.85324349065E+02  0.40119662180E+03  0.41903901922E+03  0.47000000000E+01 0. -1.
        -11    1    6    6    0    0 -0.28219227708E+02  0.53091901561E+02  0.36980557660E+03  0.37466149964E+03  0.00000000000E+00 0.  1.
         12    1    6    6    0    0  0.78233432897E+00 -0.24028792229E+02  0.60695267449E+02  0.65283308692E+02  0.00000000000E+00 0. -1.
         -5    1    3    3    0  503  0.22175824143E+02  0.10539000547E+01  0.33894767572E+03  0.33970648324E+03  0.47000000000E+01 0.  1.
         11    1    4    4    0    0 -0.50357548831E+02 -0.57095522040E+02  0.34791306478E+03  0.35614502946E+03  0.00000000000E+00 0. -1.
        -12    1    4    4    0    0 -0.30012192652E+02 -0.58345836412E+02  0.99789077083E+02  0.11942708336E+03  0.00000000000E+00 0.  1.
</event>
<event>
12    1  0.8113184E-002  0.2275782E+03  0.7818608E-02  0.1128607E+00
         21   -1    0    0  501  502  0.00000000000E+00  0.00000000000E+00  0.13216279689E+04  0.13216279689E+04  0.00000000000E+00 0. -1.
         21   -1    0    0  502  503 -0.00000000000E+00 -0.00000000000E+00 -0.56722365805E+02  0.56722365805E+02  0.00000000000E+00 0. -1.
         -6    2    1    2    0  503 -0.12872446198E+03  0.74474817381E+02  0.24531148584E+03  0.33366664923E+03  0.17040898506E+03 0.  0.
        -24    2    3    3    0    0 -0.63047229323E+02  0.45365005236E+02  0.48606204817E+02  0.12420081041E+03  0.83847130740E+02 0.  0.
          6    2    1    2  501    0  0.12872446198E+03 -0.74474817381E+02  0.10195941172E+04  0.10446836855E+04  0.17226535699E+03 0.  0.
         24    2    5    5    0    0  0.14532896392E+03 -0.59583624960E+02  0.61360293808E+03  0.63805315948E+03  0.77023065333E+02 0.  0.
          5    1    5    5  501    0 -0.16604501945E+02 -0.14891192421E+02  0.40599117915E+03  0.40663052597E+03  0.47000000000E+01 0. -1.
        -13    1    6    6    0    0  0.48366547035E+02 -0.49871415702E+02  0.35423351910E+03  0.36098180983E+03  0.00000000000E+00 0.  1.
         14    1    6    6    0    0  0.96962416888E+02 -0.97122092582E+01  0.25936941898E+03  0.27707134965E+03  0.00000000000E+00 0. -1.
         -5    1    3    3    0  503 -0.65677232655E+02  0.29109812145E+02  0.19670528102E+03  0.20946583882E+03  0.47000000000E+01 0.  1.
         11    1    4    4    0    0 -0.41614535107E+02  0.69699668515E+02  0.40767504727E+02  0.90839433975E+02  0.00000000000E+00 0. -1.
        -12    1    4    4    0    0 -0.21432694216E+02 -0.24334663279E+02  0.78387000899E+01  0.33361376430E+02  0.00000000000E+00 0.  1.
</event>
<event>
12    1  0.8113184E-002  0.2277712E+03  0.7818608E-02  0.1129202E+00
         21   -1    0    0  503  502  0.00000000000E+00  0.00000000000E+00  0.51984196036E+02  0.51984196036E+02  0.00000000000E+00 0.  1.
         21   -1    0    0  501  503 -0.00000000000E+00 -0.00000000000E+00 -0.11594664078E+04  0.11594664078E+04  0.00000000000E+00 0. -1.
          6    2    1    2  501    0  0.32510800859E+02  0.14120170786E+03 -0.80145572966E+03  0.83319326698E+03  0.17574088615E+03 0.  0.
         24    2    3    3    0    0 -0.87192983692E-01  0.12668466829E+03 -0.35542429917E+03  0.38571198176E+03  0.79989297099E+02 0.  0.
         -6    2    1    2    0  502 -0.32510800859E+02 -0.14120170786E+03 -0.30602648210E+03  0.37825733685E+03  0.16861651953E+03 0.  0.
        -24    2    5    5    0    0 -0.77733616093E+02 -0.12995146618E+03 -0.20230146818E+03  0.26444767351E+03  0.77953764287E+02 0.  0.
          5    1    3    3  501    0  0.32597993843E+02  0.14517039575E+02 -0.44603143049E+03  0.44748128522E+03  0.47000000000E+01 0. -1.
        -11    1    4    4    0    0  0.26904226694E+02  0.12509968571E+02 -0.45443863340E+02  0.54272289825E+02  0.00000000000E+00 0.  1.
         12    1    4    4    0    0 -0.26991419678E+02  0.11417469971E+03 -0.30998043583E+03  0.33143969193E+03  0.00000000000E+00 0. -1.
         -5    1    5    5    0  502  0.45222815234E+02 -0.11250241682E+02 -0.10372501392E+03  0.11380966333E+03  0.47000000000E+01 0.  1.
         11    1    6    6    0    0 -0.98135452136E+01 -0.91088935642E+02 -0.11859036455E+03  0.14985718011E+03  0.00000000000E+00 0. -1.
        -12    1    6    6    0    0 -0.67920070880E+02 -0.38862530535E+02 -0.83711103632E+02  0.11459049341E+03  0.00000000000E+00 0.  1.
</event>
<event>
12    1  0.8113184E-002  0.1857910E+03  0.7818608E-02  0.1163863E+00
         21   -1    0    0  501  502  0.00000000000E+00  0.00000000000E+00  0.39085020278E+03  0.39085020278E+03  0.00000000000E+00 0.  1.
         21   -1    0    0  502  503 -0.00000000000E+00 -0.00000000000E+00 -0.85656547901E+02  0.85656547901E+02  0.00000000000E+00 0. -1.
         -6    2    1    2    0  503 -0.44612710197E+02 -0.57311040180E+02  0.17212522224E+03  0.25326938037E+03  0.17100712753E+03 0.  0.
        -24    2    3    3    0    0 -0.57520275607E+02 -0.23805629998E+02  0.37684082349E+02  0.11403674106E+03  0.87800900466E+02 0.  0.
          6    2    1    2  501    0  0.44612710197E+02  0.57311040180E+02  0.13306843264E+03  0.22323737031E+03  0.16386844266E+03 0.  0.
         24    2    5    5    0    0  0.87665315129E+01 -0.28831491673E+02  0.78124611403E+02  0.11485657029E+03  0.78615964315E+02 0.  0.
          5    1    5    5  501    0  0.35846178684E+02  0.86142531853E+02  0.54943821237E+02  0.10838080002E+03  0.47000000000E+01 0. -1.
        -11    1    6    6    0    0 -0.56352839374E+01  0.40641267640E+01  0.78636495536E+02  0.78942839964E+02  0.00000000000E+00 0.  1.
         12    1    6    6    0    0  0.14401815450E+02 -0.32895618437E+02 -0.51188413269E+00  0.35913730327E+02  0.00000000000E+00 0. -1.
         -5    1    3    3    0  503  0.12907565411E+02 -0.33505410182E+02  0.13444113989E+03  0.13923263931E+03  0.47000000000E+01 0.  1.
         13    1    4    4    0    0  0.96268408396E+01 -0.22834502485E+02 -0.14748680945E+02  0.28837721094E+02  0.00000000000E+00 0. -1.
        -14    1    4    4    0    0 -0.67147116447E+02 -0.97112751282E+00  0.52432763294E+02  0.85199019962E+02  0.00000000000E+00 0.  1.
</event>
<event>
12    1  0.8113184E-002  0.2933942E+03  0.7818608E-02  0.1088724E+00
         21   -1    0    0  503  502  0.00000000000E+00  0.00000000000E+00  0.26513118372E+03  0.26513118372E+03  0.00000000000E+00 0. -1.
         21   -1    0    0  501  503 -0.00000000000E+00 -0.00000000000E+00 -0.32688002838E+03  0.32688002838E+03  0.00000000000E+00 0.  1.
          6    2    1    2  501    0  0.21421017299E+03 -0.10414567009E+03 -0.91544981783E+00  0.29339567491E+03  0.17131218636E+03 0.  0.
         24    2    3    3    0    0  0.24161458394E+02 -0.27022303200E+02  0.13494915251E+02  0.87735089812E+02  0.78748665415E+02 0.  0.
         -6    2    1    2    0  502 -0.21421017299E+03  0.10414567009E+03 -0.60833394834E+02  0.29861553720E+03  0.16952350373E+03 0.  0.
        -24    2    5    5    0    0 -0.15195059396E+03  0.86985083029E+00 -0.31213855932E+02  0.17435147518E+03  0.79588896515E+02 0.  0.
          5    1    3    3  501    0  0.19004871459E+03 -0.77123366893E+02 -0.14410365069E+02  0.20566058509E+03  0.47000000000E+01 0. -1.
        -11    1    4    4    0    0  0.63246390965E+00 -0.50791834780E+02  0.18204947345E+02  0.53959527414E+02  0.00000000000E+00 0.  1.
         12    1    4    4    0    0  0.23528994485E+02  0.23769531580E+02 -0.47100320944E+01  0.33775562398E+02  0.00000000000E+00 0. -1.
         -5    1    5    5    0  502 -0.62259579028E+02  0.10327581926E+03 -0.29619538902E+02  0.12426406202E+03  0.47000000000E+01 0.  1.
         11    1    6    6    0    0 -0.92569500495E+02 -0.10240621563E+02  0.19877779613E+02  0.95231869005E+02  0.00000000000E+00 0. -1.
        -12    1    6    6    0    0 -0.59381093466E+02  0.11110472393E+02 -0.51091635545E+02  0.79119606171E+02  0.00000000000E+00 0.  1.
</event>
<event>
12    1  0.8113184E-002  0.2139053E+03  0.7818608E-02  0.1139087E+00
         21   -1    0    0  501  502  0.00000000000E+00  0.00000000000E+00  0.58751038701E+03  0.58751038701E+03  0.00000000000E+00 0. -1.
         21   -1    0    0  502  503 -0.00000000000E+00 -0.00000000000E+00 -0.18157364410E+03  0.18157364410E+03  0.00000000000E+00 0. -1.
         -6    2    1    2    0  503  0.14411389459E+02 -0.12182798887E+03  0.49566435679E+03  0.53985057767E+03  0.17523054699E+03 0.  0.
        -24    2    3    3    0    0  0.70579158701E+02 -0.11853019764E+03  0.39287256901E+03  0.42257340443E+03  0.72031946056E+02 0.  0.
          6    2    1    2  501    0 -0.14411389459E+02  0.12182798887E+03 -0.89727613885E+02  0.22923345344E+03  0.17160181953E+03 0.  0.
         24    2    5    5    0    0 -0.35488009555E+02  0.78854181243E+02 -0.12372362483E+03  0.17033701198E+03  0.78928965457E+02 0.  0.
          5    1    5    5  501    0  0.21076620095E+02  0.42973807625E+02  0.33996010947E+02  0.58896441461E+02  0.47000000000E+01 0. -1.
        -11    1    6    6    0    0 -0.11242894426E+02  0.25949418543E+02  0.53213816674E+01  0.28776589455E+02  0.00000000000E+00 0.  1.
         12    1    6    6    0    0 -0.24245115128E+02  0.52904762700E+02 -0.12904500650E+03  0.14156042253E+03  0.00000000000E+00 0. -1.
         -5    1    3    3    0  503 -0.56167769241E+02 -0.32977912292E+01  0.10279178778E+03  0.11727717324E+03  0.47000000000E+01 0.  1.
         11    1    4    4    0    0  0.39177028118E+00  0.55730218417E+01  0.62491888851E+02  0.62741120715E+02  0.00000000000E+00 0. -1.
        -12    1    4    4    0    0  0.70187388419E+02 -0.12410321948E+03  0.33038068016E+03  0.35983228371E+03  0.00000000000E+00 0.  1.
</event>
<event>
12    1  0.8113184E-002  0.1987169E+03  0.7818608E-02  0.1151165E+00
         21   -1    0    0  503  502  0.00000000000E+00  0.00000000000E+00  0.20205752492E+03  0.20205752492E+03  0.00000000000E+00 0.  1.
         21   -1    0    0  501  503 -0.00000000000E+00 -0.00000000000E+00 -0.11209688027E+04  0.11209688027E+04  0.00000000000E+00 0.  1.
          6    2    1    2  501    0  0.44337062630E+02  0.88452133578E+02 -0.10607304429E+04  0.10788929917E+04  0.17050354832E+03 0.  0.
         24    2    3    3    0    0  0.20116698931E+02  0.30765331059E+02 -0.92697787385E+03  0.93115595189E+03  0.80076469524E+02 0.  0.
         -6    2    1    2    0  502 -0.44337062630E+02 -0.88452133578E+02  0.14181916506E+03  0.24413333598E+03  0.17233355768E+03 0.  0.
        -24    2    5    5    0    0 -0.74677512058E+02 -0.85179336216E+02  0.15684989230E+03  0.20979288119E+03  0.81110505833E+02 0.  0.
          5    1    3    3  501    0  0.24220363699E+02  0.57686802520E+02 -0.13375256902E+03  0.14773703978E+03  0.47000000000E+01 0. -1.
        -11    1    4    4    0    0 -0.27147048931E+02 -0.59582946652E+01 -0.34013526679E+03  0.34126890169E+03  0.00000000000E+00 0.  1.
         12    1    4    4    0    0  0.47263747862E+02  0.36723625724E+02 -0.58684260705E+03  0.58988705020E+03  0.00000000000E+00 0. -1.
         -5    1    5    5    0  502  0.30340449428E+02 -0.32727973623E+01 -0.15030727242E+02  0.34340454795E+02  0.47000000000E+01 0.  1.
         11    1    6    6    0    0  0.83564027365E+01  0.95520486986E+01  0.90185577550E+01  0.15569376513E+02  0.00000000000E+00 0. -1.
        -12    1    6    6    0    0 -0.83033914795E+02 -0.94731384915E+02  0.14783133454E+03  0.19422350467E+03  0.00000000000E+00 0.  1.
</event>
<event>
12    1  0.8113184E-002  0.1903733E+03  0.7818608E-02  0.1159033E+00
         21   -1    0    0  503  502  0.00000000000E+00  0.00000000000E+00  0.12785217515E+03  0.12785217515E+03  0.00000000000E+00 0. -1.
         21   -1    0    0  501  503 -0.00000000000E+00 -0.00000000000E+00 -0.27775191083E+03  0.27775191083E+03  0.00000000000E+00 0.  1.
          6    2    1    2  501    0  0.80421744702E+02 -0.19983913163E+02 -0.81082985143E+02  0.20692132241E+03  0.17139127569E+03 0.  0.
         24    2    3    3    0    0  0.75407043099E+02 -0.46726112220E+02 -0.11253649316E+03  0.16506794011E+03  0.81935406557E+02 0.  0.
         -6    2    1    2    0  502 -0.80421744702E+02  0.19983913163E+02 -0.68816750540E+02  0.19868276358E+03  0.16694933837E+03 0.  0.
        -24    2    5    5    0    0 -0.80629747046E+02 -0.43826417013E+02 -0.40461144269E+02  0.12869753721E+03  0.80647634509E+02 0.  0.
          5    1    3    3  501    0  0.50147016026E+01  0.26742199057E+02  0.31453508021E+02  0.41853382293E+02  0.47000000000E+01 0. -1.
        -13    1    4    4    0    0  0.22270573856E+02 -0.47499128762E+02 -0.96023068796E+02  0.10941926446E+03  0.00000000000E+00 0.  1.
         14    1    4    4    0    0  0.53136469243E+02  0.77301654204E+00 -0.16513424368E+02  0.55648675658E+02  0.00000000000E+00 0. -1.
         -5    1    5    5    0  502  0.20800234441E+00  0.63810330176E+02 -0.28355606272E+02  0.69985226364E+02  0.47000000000E+01 0.  1.
         13    1    6    6    0    0 -0.54251943058E+02 -0.41355773879E+01  0.14147120858E+02  0.56218478764E+02  0.00000000000E+00 0. -1.
        -14    1    6    6    0    0 -0.26377803988E+02 -0.39690839625E+02 -0.54608265127E+02  0.72479058448E+02  0.00000000000E+00 0.  1.
</event>
<event>
12    1  0.8113184E-002  0.2935123E+03  0.7818608E-02  0.1088750E+00
         21   -1    0    0  503  502  0.00000000000E+00  0.00000000000E+00  0.10767810095E+04  0.10767810095E+04  0.00000000000E+00 0. -1.
         21   -1    0    0  501  503 -0.00000000000E+00 -0.00000000000E+00 -0.10854227445E+03  0.10854227445E+03  0.00000000000E+00 0.  1.
          6    2    1    2  501    0 -0.11134290842E+03 -0.20675961808E+03  0.17673241908E+03  0.34114809885E+03  0.17320766285E+03 0.  0.
         24    2    3    3    0    0 -0.20769617747E+02 -0.16499819292E+03  0.13552612096E+03  0.23313149540E+03  0.91253405418E+02 0.  0.
         -6    2    1    2    0  502  0.11134290842E+03  0.20675961808E+03  0.79150631597E+03  0.84417518510E+03  0.17607587002E+03 0.  0.
        -24    2    5    5    0    0  0.12073475056E+02  0.56804845270E+02  0.15972653667E+03  0.18728201737E+03  0.78672919525E+02 0.  0.
          5    1    3    3  501    0 -0.90573290674E+02 -0.41761425165E+02  0.41206298124E+02  0.10801660345E+03  0.47000000000E+01 0. -1.
        -11    1    4    4    0    0 -0.33663048844E+02 -0.11599841407E+02  0.29108844708E+02  0.45990020856E+02  0.00000000000E+00 0.  1.
         12    1    4    4    0    0  0.12893431097E+02 -0.15339835151E+03  0.10641727625E+03  0.18714147455E+03  0.00000000000E+00 0. -1.
         -5    1    5    5    0  502  0.99269433364E+02  0.14995477281E+03  0.63177977929E+03  0.65689316773E+03  0.47000000000E+01 0.  1.
         11    1    6    6    0    0  0.28569447601E+02  0.10606153692E+02  0.12101128453E+03  0.12478956213E+03  0.00000000000E+00 0. -1.
        -12    1    6    6    0    0 -0.16495972544E+02  0.46198691579E+02  0.38715252142E+02  0.62492455242E+02  0.00000000000E+00 0.  1.
</event>
<event>
12    1  0.8113184E-002  0.2207704E+03  0.7818608E-02  0.1133464E+00
         21   -1    0    0  503  502  0.00000000000E+00  0.00000000000E+00  0.23655884420E+04  0.23655884420E+04  0.00000000000E+00 0.  1.
         21   -1    0    0  501  503 -0.00000000000E+00 -0.00000000000E+00 -0.60422487238E+02  0.60422487238E+02  0.00000000000E+00 0.  1.
          6    2    1    2  501    0 -0.12329052830E+03 -0.60572423043E+02  0.16765505346E+03  0.27721430114E+03  0.17282933490E+03 0.  0.
         24    2    3    3    0    0 -0.15541711389E+03 -0.62123271657E+02  0.12415269543E+03  0.22290898107E+03  0.79124850010E+02 0.  0.
         -6    2    1    2    0  502  0.12329052830E+03  0.60572423043E+02  0.21375109013E+04  0.21487966281E+04  0.17176880668E+03 0.  0.
        -24    2    5    5    0    0  0.68378231676E+02 -0.33077726008E+02  0.11792160295E+04  0.11843605949E+04  0.79936575417E+02 0.  0.
          5    1    3    3  501    0  0.32126585587E+02  0.15508486146E+01  0.43502358032E+02  0.54305320064E+02  0.47000000000E+01 0. -1.
        -13    1    4    4    0    0 -0.99661954191E+02 -0.63832693270E+02  0.11742980530E+03  0.16672395453E+03  0.00000000000E+00 0.  1.
         14    1    4    4    0    0 -0.55755159700E+02  0.17094216131E+01  0.67228901311E+01  0.56185026539E+02  0.00000000000E+00 0. -1.
         -5    1    5    5    0  502  0.54912296628E+02  0.93650149051E+02  0.95829487186E+03  0.96443603321E+03  0.47000000000E+01 0.  1.
         11    1    6    6    0    0 -0.18043242602E+02 -0.10442041225E+02  0.20527290081E+03  0.20632876347E+03  0.00000000000E+00 0. -1.
        -12    1    6    6    0    0  0.86421474278E+02 -0.22635684783E+02  0.97394312865E+03  0.97803183143E+03  0.00000000000E+00 0.  1.
</event>
<event>
12    1  0.8113184E-002  0.2075501E+03  0.7818608E-02  0.1143745E+00
         21   -1    0    0  503  502  0.00000000000E+00  0.00000000000E+00  0.91085321473E+02  0.91085321473E+02  0.00000000000E+00 0.  1.
         21   -1    0    0  501  503 -0.00000000000E+00 -0.00000000000E+00 -0.63697704493E+03  0.63697704493E+03  0.00000000000E+00 0. -1.
          6    2    1    2  501    0  0.91533020099E+02  0.71565481232E+02 -0.45964347293E+03  0.50433043343E+03  0.17198009188E+03 0.  0.
         24    2    3    3    0    0  0.10968163567E+03  0.87872287918E+02 -0.28286425761E+03  0.32581358504E+03  0.79941877481E+02 0.  0.
         -6    2    1    2    0  502 -0.91533020099E+02 -0.71565481232E+02 -0.86248250528E+02  0.22373193297E+03  0.17063793611E+03 0.  0.
        -24    2    5    5    0    0 -0.27910162581E+02  0.14604387061E+02 -0.40349662421E+01  0.88623723328E+02  0.82738250448E+02 0.  0.
          5    1    3    3  501    0 -0.18148615567E+02 -0.16306806686E+02 -0.17677921532E+03  0.17851684839E+03  0.47000000000E+01 0. -1.
        -11    1    4    4    0    0  0.54286687282E+00  0.37185442278E+02 -0.39078390424E+02  0.53946013940E+02  0.00000000000E+00 0.  1.
         12    1    4    4    0    0  0.10913876879E+03  0.50686845640E+02 -0.24378586719E+03  0.27186757110E+03  0.00000000000E+00 0. -1.
         -5    1    5    5    0  502 -0.63622857519E+02 -0.86169868294E+02 -0.82213284286E+02  0.13510820965E+03  0.47000000000E+01 0.  1.
         13    1    6    6    0    0 -0.10790114862E+02 -0.31768787933E+02 -0.16867808276E+02  0.37552701920E+02  0.00000000000E+00 0. -1.
        -14    1    6    6    0    0 -0.17120047718E+02  0.46373174994E+02  0.12832842034E+02  0.51071021407E+02  0.00000000000E+00 0.  1.
</event>
<event>
12    1  0.8113184E-002  0.2438536E+03  0.7818608E-02  0.1118160E+00
         21   -1    0    0  503  502  0.00000000000E+00  0.00000000000E+00  0.62827730820E+03  0.62827730820E+03  0.00000000000E+00 0. -1.
         21   -1    0    0  501  503 -0.00000000000E+00 -0.00000000000E+00 -0.95130441006E+02  0.95130441006E+02  0.00000000000E+00 0. -1.
          6    2    1    2  501    0 -0.49362200410E+02 -0.15755570105E+03  0.32346408082E+03  0.40180015314E+03  0.17191255255E+03 0.  0.
         24    2    3    3    0    0 -0.10052478459E+03 -0.10317267045E+03  0.21543324197E+03  0.27039286195E+03  0.77142632830E+02 0.  0.
         -6    2    1    2    0  502  0.49362200410E+02  0.15755570105E+03  0.20968278638E+03  0.32160759607E+03  0.17945514532E+03 0.  0.
        -24    2    5    5    0    0  0.38088711079E+02  0.17780410462E+03  0.21940450010E+03  0.29604021203E+03  0.80227320418E+02 0.  0.
          5    1    3    3  501    0  0.51162584183E+02 -0.54383030603E+02  0.10803083884E+03  0.13140729119E+03  0.47000000000E+01 0. -1.
        -11    1    4    4    0    0  0.10669327483E+02 -0.23472426346E+02  0.25010525603E+02  0.35920965166E+02  0.00000000000E+00 0.  1.
         12    1    4    4    0    0 -0.11119411208E+03 -0.79700244101E+02  0.19042271637E+03  0.23447189678E+03  0.00000000000E+00 0. -1.
         -5    1    5    5    0  502  0.11273489331E+02 -0.20248403574E+02 -0.97217137194E+01  0.25567384040E+02  0.47000000000E+01 0.  1.
         11    1    6    6    0    0  0.53175904723E+02  0.63889616651E+02  0.10461921526E+03  0.13362163059E+03  0.00000000000E+00 0. -1.
        -12    1    6    6    0    0 -0.15087193644E+02  0.11391448797E+03  0.11478528484E+03  0.16241858144E+03  0.00000000000E+00 0.  1.
</event>
<event>
12    1  0.8113184E-002  0.2001912E+03  0.7818608E-02  0.1149809E+00
         21   -1    0    0  501  502  0.00000000000E+00  0.00000000000E+00  0.68595441378E+02  0.68595441378E+02  0.00000000000E+00 0. -1.
         21   -1    0    0  502  503 -0.00000000000E+00 -0.00000000000E+00 -0.13187942432E+04  0.13187942432E+04  0.00000000000E+00 0.  1.
         -6    2    1    2    0  503 -0.10029467067E+03 -0.23695988579E+02 -0.11446913765E+04  0.11620649066E+04  0.17162744211E+03 0.  0.
        -24    2    3    3    0    0 -0.45212556582E+02 -0.43853816740E+02 -0.35082771592E+03  0.36602346364E+03  0.83221134099E+02 0.  0.
          6    2    1    2  501    0  0.10029467067E+03  0.23695988579E+02 -0.10550742537E+03  0.22532477803E+03  0.17034939960E+03 0.  0.
         24    2    5    5    0    0 -0.10908780820E+02  0.87652399151E+01 -0.68718197015E+02  0.10715256385E+03  0.81016358897E+02 0.  0.
          5    1    5    5  501    0  0.11120345149E+03  0.14930748664E+02 -0.36789228359E+02  0.11817221418E+03  0.47000000000E+01 0. -1.
        -11    1    6    6    0    0  0.71466438331E+01  0.38533067321E+02 -0.12699639200E+02  0.41196512365E+02  0.00000000000E+00 0.  1.
         12    1    6    6    0    0 -0.18055424653E+02 -0.29767827406E+02 -0.56018557815E+02  0.65956051485E+02  0.00000000000E+00 0. -1.
         -5    1    3    3    0  503 -0.55082114093E+02  0.20157828161E+02 -0.79386366056E+03  0.79604144295E+03  0.47000000000E+01 0.  1.
         13    1    4    4    0    0  0.14229821472E+02 -0.24345599269E+02 -0.39868641592E+02  0.48833437369E+02  0.00000000000E+00 0. -1.
        -14    1    4    4    0    0 -0.59442378054E+02 -0.19508217471E+02 -0.31095907433E+03  0.31719002627E+03  0.00000000000E+00 0.  1.
</event>
<event>
12    1  0.8113184E-002  0.1962289E+03  0.7818608E-02  0.1154612E+00
         21   -1    0    0  503  502  0.00000000000E+00  0.00000000000E+00  0.22730419299E+03  0.22730419299E+03  0.00000000000E+00 0. -1.
         21   -1    0    0  501  503 -0.00000000000E+00 -0.00000000000E+00 -0.17867396260E+03  0.17867396260E+03  0.00000000000E+00 0. -1.
          6    2    1    2  501    0  0.68421169083E+02  0.39407902911E+02 -0.35359265007E+02  0.19938923873E+03  0.17964228819E+03 0.  0.
         24    2    3    3    0    0 -0.33418948314E+02  0.13187463398E+02 -0.11699412980E+02  0.91496701645E+02  0.83330875733E+02 0.  0.
         -6    2    1    2    0  502 -0.68421169083E+02 -0.39407902911E+02  0.83989495401E+02  0.20658891686E+03  0.17143601151E+03 0.  0.
        -24    2    5    5    0    0 -0.52933338465E+02  0.29301925817E+02  0.90854231021E+02  0.13566552117E+03  0.80561164111E+02 0.  0.
          5    1    3    3  501    0  0.10184011740E+03  0.26220439513E+02 -0.23659852027E+02  0.10789253708E+03  0.47000000000E+01 0. -1.
        -13    1    4    4    0    0 -0.47729617476E+02  0.13804580964E+02  0.22406884944E+02  0.54504599190E+02  0.00000000000E+00 0.  1.
         14    1    4    4    0    0  0.14310669162E+02 -0.61711756600E+00 -0.34106297924E+02  0.36992102454E+02  0.00000000000E+00 0. -1.
         -5    1    5    5    0  502 -0.15487830618E+02 -0.68709828728E+02 -0.68647356204E+01  0.70923395690E+02  0.47000000000E+01 0.  1.
         11    1    6    6    0    0 -0.38684629622E+02 -0.13758314635E+02  0.78607994171E+02  0.88684883369E+02  0.00000000000E+00 0. -1.
        -12    1    6    6    0    0 -0.14248708844E+02  0.43060240452E+02  0.12246236850E+02  0.46980637804E+02  0.00000000000E+00 0.  1.
</event>
<event>
12    1  0.8113184E-002  0.1918031E+03  0.7818608E-02  0.1160353E+00
         21   -1    0    0  501  502  0.00000000000E+00  0.00000000000E+00  0.19065369355E+03  0.19065369355E+03  0.00000000000E+00 0.  1.
         21   -1    0    0  502  503 -0.00000000000E+00 -0.00000000000E+00 -0.19986044312E+03  0.19986044312E+03  0.00000000000E+00 0.  1.
         -6    2    1    2    0  503  0.36208991104E+02  0.22302574611E+02 -0.69164924353E+02  0.20389269404E+03  0.18702927058E+03 0.  0.
        -24    2    3    3    0    0 -0.16612605787E+02 -0.54208596765E+02 -0.51633102000E+02  0.10916394847E+03  0.77693241586E+02 0.  0.
          6    2    1    2  501    0 -0.36208991104E+02 -0.22302574611E+02  0.59958174776E+02  0.18662144263E+03  0.17153449873E+03 0.  0.
         24    2    5    5    0    0 -0.67265099046E+02  0.99357541210E+01  0.85747508669E+02  0.13474686868E+03  0.78617877199E+02 0.  0.
          5    1    5    5  501    0  0.31056107942E+02 -0.32238328732E+02 -0.25789333893E+02  0.51874573951E+02  0.47000000000E+01 0. -1.
        -13    1    6    6    0    0 -0.40857275638E+02 -0.27919996835E+02  0.70505665340E+02  0.86138795214E+02  0.00000000000E+00 0.  1.
         14    1    6    6    0    0 -0.26407823408E+02  0.37855750956E+02  0.15241843329E+02  0.48608073462E+02  0.00000000000E+00 0. -1.
         -5    1    3    3    0  503  0.52821596892E+02  0.76511171377E+02 -0.17531822354E+02  0.94728745577E+02  0.47000000000E+01 0.  1.
         11    1    4    4    0    0 -0.32735446537E+02 -0.14346073145E+02  0.70335030593E+01  0.36426493655E+02  0.00000000000E+00 0. -1.
        -12    1    4    4    0    0  0.16122840750E+02 -0.39862523620E+02 -0.58666605059E+02  0.72737454811E+02  0.00000000000E+00 0.  1.
</event>
<event>
12    1  0.8113184E-002  0.1758533E+03  0.7818608E-02  0.1172245E+00
         21   -1    0    0  501  502  0.00000000000E+00  0.00000000000E+00  0.12138033071E+03  0.12138033071E+03  0.00000000000E+00 0.  1.
         21   -1    0    0  502  503 -0.00000000000E+00 -0.00000000000E+00 -0.32535154631E+03  0.32535154631E+03  0.00000000000E+00 0.  1.
         -6    2    1    2    0  503  0.34860402993E+02  0.65471650044E+01  0.39288750066E+01  0.17443270197E+03  0.17074313571E+03 0.  0.
        -24    2    3    3    0    0  0.33934570511E+01  0.69382075443E+02 -0.12976507041E+02  0.10200151671E+03  0.73556316739E+02 0.  0.
          6    2    1    2  501    0 -0.34860402993E+02 -0.65471650044E+01 -0.20790009060E+03  0.27229917505E+03  0.17223901995E+03 0.  0.
         24    2    5    5    0    0  0.26457253688E+02 -0.25351884041E+02 -0.18258161061E+03  0.20318631150E+03  0.81276862346E+02 0.  0.
          5    1    5    5  501    0 -0.61317656681E+02  0.18804719036E+02 -0.25318479997E+02  0.69112863551E+02  0.47000000000E+01 0. -1.
        -11    1    6    6    0    0 -0.13045173782E+02 -0.31417263279E+02 -0.14280205204E+03  0.14679798043E+03  0.00000000000E+00 0.  1.
         12    1    6    6    0    0  0.39502427470E+02  0.60653792382E+01 -0.39779558561E+02  0.56388331068E+02  0.00000000000E+00 0. -1.
         -5    1    3    3    0  503  0.31466945942E+02 -0.62834910439E+02  0.16905382047E+02  0.72431185265E+02  0.47000000000E+01 0.  1.
         11    1    4    4    0    0  0.22944989394E+02 -0.32384276605E+00 -0.18384939321E+02  0.29403799181E+02  0.00000000000E+00 0. -1.
        -12    1    4    4    0    0 -0.19551532343E+02  0.69705918209E+02  0.54084322807E+01  0.72597717527E+02  0.00000000000E+00 0.  1.
</event>
<event>
12    1  0.8113184E-002  0.1778605E+03  0.7818608E-02  0.1170077E+00
         21   -1    0    0  503  502  0.00000000000E+00  0.00000000000E+00  0.80053229854E+03  0.80053229854E+03  0.00000000000E+00 0.  1.
         21   -1    0    0  501  503 -0.00000000000E+00 -0.00000000000E+00 -0.64877434250E+02  0.64877434250E+02  0.00000000000E+00 0.  1.
          6    2    1    2  501    0  0.18701750719E+02  0.40120095428E+02  0.95918178929E+02  0.20140869318E+03  0.17148115669E+03 0.  0.
         24    2    3    3    0    0  0.52676374704E+02 -0.13910930189E+02  0.39299790419E+02  0.11596070478E+03  0.94520352805E+02 0.  0.
         -6    2    1    2    0  502 -0.18701750719E+02 -0.40120095428E+02  0.63973668536E+03  0.66400103961E+03  0.17226426349E+03 0.  0.
        -24    2    5    5    0    0 -0.47628743645E+02 -0.41926455563E+02  0.62042905393E+03  0.62885977487E+03  0.80660278856E+02 0.  0.
          5    1    3    3  501    0 -0.33974623985E+02  0.54031025617E+02  0.56618388509E+02  0.85447988400E+02  0.47000000000E+01 0. -1.
        -13    1    4    4    0    0  0.79494449764E+02 -0.17098070173E+02  0.23362714216E+02  0.84602174691E+02  0.00000000000E+00 0.  1.
         14    1    4    4    0    0 -0.26818075060E+02  0.31871399833E+01  0.15937076203E+02  0.31358530085E+02  0.00000000000E+00 0. -1.
         -5    1    5    5    0  502  0.28926992926E+02  0.18063601350E+01  0.19307631430E+02  0.35141264749E+02  0.47000000000E+01 0.  1.
         13    1    6    6    0    0  0.18456204422E+02 -0.11006102744E+02  0.60616609392E+02  0.64312822310E+02  0.00000000000E+00 0. -1.
        -14    1    6    6    0    0 -0.66084948067E+02 -0.30920352819E+02  0.55981244454E+03  0.56454695256E+03  0.00000000000E+00 0.  1.
</event>
<event>
12    1  0.8113184E-002  0.1725619E+03  0.7818608E-02  0.1175226E+00
         21   -1    0    0  501  502  0.00000000000E+00  0.00000000000E+00  0.95982691235E+02  0.95982691235E+02  0.00000000000E+00 0. -1.
         21   -1    0    0  502  503 -0.00000000000E+00 -0.00000000000E+00 -0.42407730275E+03  0.42407730275E+03  0.00000000000E+00 0. -1.
         -6    2    1    2    0  503 -0.31954603348E+01  0.31883256390E+01 -0.29890156785E+03  0.34513731473E+03  0.17250287642E+03 0.  0.
        -24    2    3    3    0    0  0.64763117997E+02 -0.27530068563E+00 -0.20429254017E+03  0.22850402963E+03  0.79273654794E+02 0.  0.
          6    2    1    2  501    0  0.31954603348E+01 -0.31883256390E+01 -0.29193043671E+02  0.17492267925E+03  0.17241036376E+03 0.  0.
         24    2    5    5    0    0  0.62400400105E+02 -0.30361522070E+02 -0.16227637344E+02  0.10833589935E+03  0.81594723589E+02 0.  0.
          5    1    5    5  501    0 -0.59204939770E+02  0.27173196431E+02 -0.12965406327E+02  0.66586779909E+02  0.47000000000E+01 0. -1.
        -11    1    6    6    0    0  0.46798895632E+02 -0.46404007787E+02 -0.38859792500E+02  0.76508509619E+02  0.00000000000E+00 0.  1.
         12    1    6    6    0    0  0.15601504473E+02  0.16042485717E+02  0.22632155156E+02  0.31827389726E+02  0.00000000000E+00 0. -1.
         -5    1    3    3    0  503 -0.67958578331E+02  0.34636263246E+01 -0.94609027672E+02  0.11663328510E+03  0.47000000000E+01 0.  1.
         11    1    4    4    0    0  0.55591632259E+02 -0.26504826092E+02 -0.18417480960E+03  0.19419911399E+03  0.00000000000E+00 0. -1.
        -12    1    4    4    0    0  0.91714857373E+01  0.26229525406E+02 -0.20117730570E+02  0.34304915638E+02  0.00000000000E+00 0.  1.
</event>
<event>
12    1  0.8113184E-002  0.1968240E+03  0.7818608E-02  0.1152655E+00
         21   -1    0    0  503  502  0.00000000000E+00  0.00000000000E+00  0.56397926710E+02  0.56397926710E+02  0.00000000000E+00 0.  1.
         21   -1    0    0  501  503 -0.00000000000E+00 -0.00000000000E+00 -0.82456654803E+03  0.82456654803E+03  0.00000000000E+00 0.  1.
          6    2    1    2  501    0  0.94862974349E+02 -0.71359948766E+01 -0.56703481350E+03  0.60022342069E+03  0.17230719282E+03 0.  0.
         24    2    3    3    0    0  0.60035070626E+02  0.20572461361E+02 -0.15376148588E+03  0.18453402372E+03  0.79892274352E+02 0.  0.
         -6    2    1    2    0  502 -0.94862974349E+02  0.71359948766E+01 -0.20113380782E+03  0.28074105405E+03  0.17120404334E+03 0.  0.
        -24    2    5    5    0    0 -0.18943271778E+01 -0.63303595170E+01 -0.15626887596E+03  0.17653230121E+03  0.81853710056E+02 0.  0.
          5    1    3    3  501    0  0.34827903724E+02 -0.27708456238E+02 -0.41327332763E+03  0.41568939697E+03  0.47000000000E+01 0. -1.
        -11    1    4    4    0    0  0.55016747246E+01  0.41976768130E+02 -0.78177512483E+02  0.88904673361E+02  0.00000000000E+00 0.  1.
         12    1    4    4    0    0  0.54533395901E+02 -0.21404306769E+02 -0.75583973392E+02  0.95629350361E+02  0.00000000000E+00 0. -1.
         -5    1    5    5    0  502 -0.92968647171E+02  0.13466354394E+02 -0.44864931859E+02  0.10420875284E+03  0.47000000000E+01 0.  1.
         13    1    6    6    0    0  0.16488258171E+02 -0.39548960789E+02 -0.98357109145E+02  0.10728515217E+03  0.00000000000E+00 0. -1.
        -14    1    6    6    0    0 -0.18382585348E+02  0.33218601272E+02 -0.57911766818E+02  0.69247149042E+02  0.00000000000E+00 0.  1.
</event>
<event>
12    1  0.8113184E-002  0.2247427E+03  0.7818608E-02  0.1130439E+00
         21   -1    0    0  503  502  0.00000000000E+00  0.00000000000E+00  0.63227154774E+02  0.63227154774E+02  0.00000000000E+00 0.  1.
         21   -1    0    0  501  503 -0.00000000000E+00 -0.00000000000E+00 -0.82629907028E+03  0.82629907028E+03  0.00000000000E+00 0.  1.
          6    2    1    2  501    0  0.14323631363E+03  0.20487366302E+02 -0.29942198226E+03  0.37438324169E+03  0.17196777162E+03 0.  0.
         24    2    3    3    0    0  0.12855367091E+03  0.66502551953E+02 -0.17391472874E+03  0.23982047569E+03  0.79491458442E+02 0.  0.
         -6    2    1    2    0  502 -0.14323631363E+03 -0.20487366302E+02 -0.46364993325E+03  0.51514298337E+03  0.17165272789E+03 0.  0.
        -24    2    5    5    0    0 -0.92578560638E+01 -0.60576657166E+01 -0.24266302754E+03  0.25626898729E+03  0.81645855373E+02 0.  0.
          5    1    3    3  501    0  0.14682642719E+02 -0.46015185651E+02 -0.12550725352E+03  0.13456276600E+03  0.47000000000E+01 0. -1.
        -13    1    4    4    0    0  0.11986912613E+02  0.28914054390E+02 -0.58174147950E+01  0.31836314645E+02  0.00000000000E+00 0.  1.
         14    1    4    4    0    0  0.11656675830E+03  0.37588497564E+02 -0.16809731395E+03  0.20798416105E+03  0.00000000000E+00 0. -1.
         -5    1    5    5    0  502 -0.13397845757E+03 -0.14429700586E+02 -0.22098690571E+03  0.25887399608E+03  0.47000000000E+01 0.  1.
         11    1    6    6    0    0  0.19124724907E+02  0.30390323545E+02 -0.95589335385E+02  0.10211095880E+03  0.00000000000E+00 0. -1.
        -12    1    6    6    0    0 -0.28382580971E+02 -0.36447989262E+02 -0.14707369215E+03  0.15415802849E+03  0.00000000000E+00 0.  1.
</event>
<event>
12    1  0.8113184E-002  0.2297976E+03  0.7818608E-02  0.1127167E+00
         21   -1    0    0  501  502  0.00000000000E+00  0.00000000000E+00  0.33500000243E+02  0.33500000243E+02  0.00000000000E+00 0.  1.
         21   -1    0    0  502  503 -0.00000000000E+00 -0.00000000000E+00 -0.16047490176E+04  0.16047490176E+04  0.00000000000E+00 0.  1.
         -6    2    1    2    0  503  0.12990793636E+03 -0.76442486317E+02 -0.92376175460E+03  0.95191528047E+03  0.17345718865E+03 0.  0.
        -24    2    3    3    0    0  0.12752950779E+01 -0.11522989061E+02 -0.45418407040E+03  0.46070637479E+03  0.76372693488E+02 0.  0.
          6    2    1    2  501    0 -0.12990793636E+03  0.76442486317E+02 -0.64748726278E+03  0.68633373739E+03  0.17057173850E+03 0.  0.
         24    2    5    5    0    0 -0.66016235822E+02  0.33931752343E+02 -0.55327232194E+03  0.56472840454E+03  0.85430682194E+02 0.  0.
          5    1    5    5  501    0 -0.63891700536E+02  0.42510733974E+02 -0.94214940838E+02  0.12160533285E+03  0.47000000000E+01 0. -1.
        -13    1    6    6    0    0 -0.31061949357E+02 -0.18967783190E+02 -0.89116747235E+02  0.96262225897E+02  0.00000000000E+00 0.  1.
         14    1    6    6    0    0 -0.34954286464E+02  0.52899535533E+02 -0.46415557471E+03  0.46846617864E+03  0.00000000000E+00 0. -1.
         -5    1    3    3    0  503  0.12863264128E+03 -0.64919497256E+02 -0.46957768420E+03  0.49120890569E+03  0.47000000000E+01 0.  1.
         11    1    4    4    0    0  0.12318551684E+01  0.10682142539E+02 -0.66952539180E+01  0.12666967333E+02  0.00000000000E+00 0. -1.
        -12    1    4    4    0    0  0.43439909480E-01 -0.22205131600E+02 -0.44748881648E+03  0.44803940745E+03  0.00000000000E+00 0.  1.
</event>
<event>
12    1  0.8113184E-002  0.3179865E+03  0.7818608E-02  0.1076694E+00
         21   -1    0    0  501  502  0.00000000000E+00  0.00000000000E+00  0.19588695804E+03  0.19588695804E+03  0.00000000000E+00 0. -1.
         21   -1    0    0  502  503 -0.00000000000E+00 -0.00000000000E+00 -0.63260151208E+03  0.63260151208E+03  0.00000000000E+00 0.  1.
         -6    2    1    2    0  503  0.23800665036E+03  0.12197694328E+03 -0.39754010717E+03  0.50907127556E+03  0.17201711104E+03 0.  0.
        -24    2    3    3    0    0  0.13757052507E+03  0.13590949744E+03 -0.31636909884E+03  0.37910068689E+03  0.78935943875E+02 0.  0.
          6    2    1    2  501    0 -0.23800665036E+03 -0.12197694328E+03 -0.39174446867E+02  0.31941719456E+03  0.17019743413E+03 0.  0.
         24    2    5    5    0    0 -0.82286125658E+02 -0.56697734934E+02  0.38556814596E+02  0.13347501036E+03  0.79644904523E+02 0.  0.
          5    1    5    5  501    0 -0.15572052470E+03 -0.65279208349E+02 -0.77731261462E+02  0.18594218420E+03  0.47000000000E+01 0. -1.
        -11    1    6    6    0    0 -0.69338754905E+02 -0.15396482550E+01  0.10147981004E+02  0.70094329064E+02  0.00000000000E+00 0.  1.
         12    1    6    6    0    0 -0.12947370753E+02 -0.55158086679E+02  0.28408833592E+02  0.63380681296E+02  0.00000000000E+00 0. -1.
         -5    1    3    3    0  503  0.10043612528E+03 -0.13932554159E+02 -0.81171008328E+02  0.12997058867E+03  0.47000000000E+01 0.  1.
         13    1    4    4    0    0 -0.48132331265E+01  0.18441539114E+02 -0.61668859353E+02  0.64546927052E+02  0.00000000000E+00 0. -1.
        -14    1    4    4    0    0  0.14238375820E+03  0.11746795833E+03 -0.25470023949E+03  0.31455375984E+03  0.00000000000E+00 0.  1.
</event>
<event>
12    1  0.8113184E-002  0.2250265E+03  0.7818608E-02  0.1130547E+00
         21   -1    0    0  503  502  0.00000000000E+00  0.00000000000E+00  0.16731228892E+03  0.16731228892E+03  0.00000000000E+00 0.  1.
         21   -1    0    0  501  503 -0.00000000000E+00 -0.00000000000E+00 -0.34578951964E+03  0.34578951964E+03  0.00000000000E+00 0.  1.
          6    2    1    2  501    0  0.14152245572E+03  0.15170195940E+02 -0.18291997866E+03  0.28999422892E+03  0.17429341323E+03 0.  0.
         24    2    3    3    0    0  0.13712168706E+03 -0.28684291128E+02 -0.18537041396E+03  0.24560191614E+03  0.79579929746E+02 0.  0.
         -6    2    1    2    0  502 -0.14152245572E+03 -0.15170195940E+02  0.44427479340E+01  0.22310757965E+03  0.17175131374E+03 0.  0.
        -24    2    5    5    0    0 -0.16390642467E+03 -0.38475184322E+02  0.19409345609E+02  0.18718747949E+03  0.79478134893E+02 0.  0.
          5    1    3    3  501    0  0.44007686604E+01  0.43854487069E+02  0.24504353010E+01  0.44392312781E+02  0.47000000000E+01 0. -1.
        -13    1    4    4    0    0  0.10902916039E+03 -0.38661950656E+01 -0.84509571340E+02  0.13800062655E+03  0.00000000000E+00 0.  1.
         14    1    4    4    0    0  0.28092526668E+02 -0.24818096063E+02 -0.10086084262E+03  0.10760128959E+03  0.00000000000E+00 0. -1.
         -5    1    5    5    0  502  0.22383968947E+02  0.23304988382E+02 -0.14966597675E+02  0.35920100157E+02  0.47000000000E+01 0.  1.
         11    1    6    6    0    0 -0.71515964473E+02  0.20880649210E+02 -0.50837294676E+01  0.74675156452E+02  0.00000000000E+00 0. -1.
        -12    1    6    6    0    0 -0.92390460193E+02 -0.59355833532E+02  0.24493075077E+02  0.11251232304E+03  0.00000000000E+00 0.  1.
</event>
<event>
12    1  0.8113184E-002  0.2195462E+03  0.7818608E-02  0.1135605E+00
         21   -1    0    0  501  502  0.00000000000E+00  0.00000000000E+00  0.40895414225E+03  0.40895414225E+03  0.00000000000E+00 0.  1.
         21   -1    0    0  502  503 -0.00000000000E+00 -0.00000000000E+00 -0.12138378963E+03  0.12138378963E+03  0.00000000000E+00 0. -1.
         -6    2    1    2    0  503 -0.57910042642E+01 -0.12152102546E+03  0.20693282235E+03  0.29645128284E+03  0.17395768098E+03 0.  0.
        -24    2    3    3    0    0 -0.57880202952E+01 -0.19522966376E+02  0.22481379048E+02  0.85624270810E+02  0.80071567693E+02 0.  0.
          6    2    1    2  501    0  0.57910042642E+01  0.12152102546E+03  0.80637530278E+02  0.23388664904E+03  0.18275573301E+03 0.  0.
         24    2    5    5    0    0  0.50689416193E+02  0.29402989870E+02  0.85734237576E+02  0.13117508055E+03  0.80141060248E+02 0.  0.
          5    1    5    5  501    0 -0.44898411929E+02  0.92118035593E+02 -0.50967072977E+01  0.10271156848E+03  0.47000000000E+01 0. -1.
        -13    1    6    6    0    0  0.28709916728E+02 -0.17119868398E+02  0.69666942438E+02  0.77271159440E+02  0.00000000000E+00 0.  1.
         14    1    6    6    0    0  0.21979499466E+02  0.46522858268E+02  0.16067295138E+02  0.53903921112E+02  0.00000000000E+00 0. -1.
         -5    1    3    3    0  503 -0.29839690161E-02 -0.10199805909E+03  0.18445144330E+03  0.21082701203E+03  0.47000000000E+01 0.  1.
         13    1    4    4    0    0  0.28761721451E+02 -0.26771762531E+02 -0.66531093495E+01  0.39852575248E+02  0.00000000000E+00 0. -1.
        -14    1    4    4    0    0 -0.34549741747E+02  0.72487961554E+01  0.29134488397E+02  0.45771695562E+02  0.00000000000E+00 0.  1.
</event>
<event>
12    1  0.8113184E-002  0.2051462E+03  0.7818608E-02  0.1145662E+00
         21   -1    0    0  501  502  0.00000000000E+00  0.00000000000E+00  0.40515786981E+03  0.40515786981E+03  0.00000000000E+00 0. -1.
         21   -1    0    0  502  503 -0.00000000000E+00 -0.00000000000E+00 -0.14578721270E+03  0.14578721270E+03  0.00000000000E+00 0. -1.
         -6    2    1    2    0  503 -0.54436897735E+02  0.97230505001E+02 -0.18647556828E+02  0.20599193559E+03  0.17224343010E+03 0.  0.
        -24    2    3    3    0    0 -0.76031759788E+01  0.12493925757E+03 -0.13309235765E+01  0.14869334704E+03  0.80251565273E+02 0.  0.
          6    2    1    2  501    0  0.54436897735E+02 -0.97230505001E+02  0.27801821394E+03  0.34495314692E+03  0.17111808599E+03 0.  0.
         24    2    5    5    0    0 -0.36849921672E+02 -0.50804112713E+02  0.13054975892E+03  0.16534878026E+03  0.79737099167E+02 0.  0.
          5    1    5    5  501    0  0.91286819407E+02 -0.46426392288E+02  0.14746845502E+03  0.17960436666E+03  0.47000000000E+01 0. -1.
        -13    1    6    6    0    0  0.34972428008E+01 -0.28118785655E+01 -0.10266722592E+02  0.11204595533E+02  0.00000000000E+00 0.  1.
         14    1    6    6    0    0 -0.40347164473E+02 -0.47992234147E+02  0.14081648151E+03  0.15414418473E+03  0.00000000000E+00 0. -1.
         -5    1    3    3    0  503 -0.46833721756E+02 -0.27708752569E+02 -0.17316633251E+02  0.57298588548E+02  0.47000000000E+01 0.  1.
         13    1    4    4    0    0 -0.42822123355E+02  0.79904336935E+02 -0.85978395161E+01  0.91062397036E+02  0.00000000000E+00 0. -1.
        -14    1    4    4    0    0  0.35218947376E+02  0.45034920634E+02  0.72669159397E+01  0.57630950001E+02  0.00000000000E+00 0.  1.
</event>
<event>
12    1  0.8113184E-002  0.2147036E+03  0.7818608E-02  0.1138339E+00
         21   -1    0    0  503  502  0.00000000000E+00  0.00000000000E+00  0.98746118156E+03  0.98746118156E+03  0.00000000000E+00 0. -1.
         21   -1    0    0  501  503 -0.00000000000E+00 -0.00000000000E+00 -0.47615529327E+02  0.47615529327E+02  0.00000000000E+00 0.  1.
          6    2    1    2  501    0 -0.11426732425E+03 -0.55305226861E+02  0.37775242756E+03  0.43337375446E+03  0.17029452433E+03 0.  0.
         24    2    3    3    0    0 -0.69679419008E+02  0.34816620009E+02  0.17818156401E+03  0.20985496743E+03  0.78886114999E+02 0.  0.
         -6    2    1    2    0  502  0.11426732425E+03  0.55305226861E+02  0.56209322467E+03  0.60170295642E+03  0.17315301049E+03 0.  0.
        -24    2    5    5    0    0  0.11591451664E+03  0.55128447677E+02  0.27754110038E+03  0.31710719761E+03  0.83979708675E+02 0.  0.
          5    1    3    3  501    0 -0.44587905238E+02 -0.90121846871E+02  0.19957086356E+03  0.22351878703E+03  0.47000000000E+01 0. -1.
        -13    1    4    4    0    0 -0.82256268627E+02  0.14539161446E+02  0.11359056357E+03  0.14099750734E+03  0.00000000000E+00 0.  1.
         14    1    4    4    0    0  0.12576849619E+02  0.20277458563E+02  0.64591000440E+02  0.68857460089E+02  0.00000000000E+00 0. -1.
         -5    1    5    5    0  502 -0.16471923929E+01  0.17677918414E+00  0.28455212429E+03  0.28459575881E+03  0.47000000000E+01 0.  1.
         13    1    6    6    0    0  0.49252272238E+01  0.17062251906E+02  0.11654476377E+03  0.11789003464E+03  0.00000000000E+00 0. -1.
        -14    1    6    6    0    0  0.11098928942E+03  0.38066195772E+02  0.16099633660E+03  0.19921716298E+03  0.00000000000E+00 0.  1.
</event>
<event>
12    1  0.8113184E-002  0.2043630E+03  0.7818608E-02  0.1146299E+00
         21   -1    0    0  501  502  0.00000000000E+00  0.00000000000E+00  0.21848091093E+03  0.21848091093E+03  0.00000000000E+00 0. -1.
         21   -1    0    0  502  503 -0.00000000000E+00 -0.00000000000E+00 -0.34749013419E+03  0.34749013419E+03  0.00000000000E+00 0.  1.
         -6    2    1    2    0  503 -0.10847591697E+03 -0.11904020608E+02 -0.25491686845E+03  0.32672137492E+03  0.17278749013E+03 0.  0.
        -24    2    3    3    0    0 -0.14945368133E+02  0.46127093315E+01 -0.40914315416E+02  0.92542066196E+02  0.81519394587E+02 0.  0.
          6    2    1    2  501    0  0.10847591697E+03  0.11904020608E+02  0.12590764519E+03  0.23924967019E+03  0.17169431937E+03 0.  0.
         24    2    5    5    0    0  0.85650533881E+02 -0.23877435840E+02  0.14091285126E+02  0.11955715115E+03  0.78671482617E+02 0.  0.
          5    1    5    5  501    0  0.22825383085E+02  0.35781456448E+02  0.11181636006E+03  0.11969251905E+03  0.47000000000E+01 0. -1.
        -13    1    6    6    0    0  0.51506121457E+02 -0.52744249670E+02  0.47082411899E+01  0.73871536846E+02  0.00000000000E+00 0.  1.
         14    1    6    6    0    0  0.34144412423E+02  0.28866813830E+02  0.93830439357E+01  0.45685614300E+02  0.00000000000E+00 0. -1.
         -5    1    3    3    0  503 -0.93530548833E+02 -0.16516729940E+02 -0.21400255303E+03  0.23417930873E+03  0.47000000000E+01 0.  1.
         13    1    4    4    0    0 -0.15523282056E+02  0.36813795576E+02 -0.44886444913E+02  0.60091769548E+02  0.00000000000E+00 0. -1.
        -14    1    4    4    0    0  0.57791392310E+00 -0.32201086244E+02  0.39721294966E+01  0.32450296648E+02  0.00000000000E+00 0.  1.
</event>
<event>
12    1  0.8113184E-002  0.2400796E+03  0.7818608E-02  0.1119831E+00
         21   -1    0    0  501  502  0.00000000000E+00  0.00000000000E+00  0.45792938700E+03  0.45792938700E+03  0.00000000000E+00 0.  1.
         21   -1    0    0  502  503 -0.00000000000E+00 -0.00000000000E+00 -0.14973438591E+03  0.14973438591E+03  0.00000000000E+00 0.  1.
         -6    2    1    2    0  503  0.16656633780E+03  0.15994046230E+02  0.27627684195E+03  0.36601520328E+03  0.17215714109E+03 0.  0.
        -24    2    3    3    0    0  0.96099134722E+02  0.23831984867E+02  0.64305793942E+02  0.14245117400E+03  0.79712575185E+02 0.  0.
          6    2    1    2  501    0 -0.16656633780E+03 -0.15994046230E+02  0.31918159139E+02  0.24164856964E+03  0.17139167985E+03 0.  0.
         24    2    5    5    0    0 -0.12150630324E+03 -0.55706982327E+02  0.71779677447E+02  0.16940900534E+03  0.75366036046E+02 0.  0.
          5    1    5    5  501    0 -0.45060034562E+02  0.39712936098E+02 -0.39861518307E+02  0.72239564298E+02  0.47000000000E+01 0. -1.
        -11    1    6    6    0    0 -0.40654736049E+02 -0.97450411421E+01 -0.12775378369E+02  0.43714799354E+02  0.00000000000E+00 0.  1.
         12    1    6    6    0    0 -0.80851567194E+02 -0.45961941185E+02  0.84555055816E+02  0.12569420599E+03  0.00000000000E+00 0. -1.
         -5    1    3    3    0  503  0.70467203083E+02 -0.78379386376E+01  0.21197104801E+03  0.22356402928E+03  0.47000000000E+01 0.  1.
         11    1    4    4    0    0  0.16638192409E+02 -0.57817111476E+01  0.54273171120E+02  0.57059922309E+02  0.00000000000E+00 0. -1.
        -12    1    4    4    0    0  0.79460942312E+02  0.29613696015E+02  0.10032622822E+02  0.85391251692E+02  0.00000000000E+00 0.  1.
</event>
<event>
12    1  0.8113184E-002  0.2429232E+03  0.7818608E-02  0.1117865E+00
         21   -1    0    0  503  502  0.00000000000E+00  0.00000000000E+00  0.13668481310E+03  0.13668481310E+03  0.00000000000E+00 0. -1.
         21   -1    0    0  501  503 -0.00000000000E+00 -0.00000000000E+00 -0.52179959292E+03  0.52179959292E+03  0.00000000000E+00 0.  1.
          6    2    1    2  501    0 -0.87054494090E+02  0.14722948526E+03 -0.55725439819E+02  0.24920573129E+03  0.17246207001E+03 0.  0.
         24    2    3    3    0    0 -0.10105360620E+03  0.40282736636E+02 -0.19723082235E+02  0.13539957182E+03  0.78163379396E+02 0.  0.
         -6    2    1    2    0  502  0.87054494090E+02 -0.14722948526E+03 -0.32938934000E+03  0.40927867474E+03  0.17250127540E+03 0.  0.
        -24    2    5    5    0    0  0.10167512636E+03 -0.42110051459E+02 -0.18680004316E+03  0.23146513244E+03  0.81060247077E+02 0.  0.
          5    1    3    3  501    0  0.13999112110E+02  0.10694674862E+03 -0.36002357584E+02  0.11380615947E+03  0.47000000000E+01 0. -1.
        -13    1    4    4    0    0 -0.50587783506E+02  0.29453599391E+02 -0.48753549847E+02  0.76181014562E+02  0.00000000000E+00 0.  1.
         14    1    4    4    0    0 -0.50465822694E+02  0.10829137246E+02  0.29030467611E+02  0.59218557255E+02  0.00000000000E+00 0. -1.
         -5    1    5    5    0  502 -0.14620632268E+02 -0.10511943380E+03 -0.14258929684E+03  0.17781354230E+03  0.47000000000E+01 0.  1.
         11    1    6    6    0    0  0.69579545591E+02 -0.97809710642E+01 -0.47264104205E+02  0.84681025654E+02  0.00000000000E+00 0. -1.
        -12    1    6    6    0    0  0.32095580767E+02 -0.32329080395E+02 -0.13953593896E+03  0.14678410679E+03  0.00000000000E+00 0.  1.
</event>
<event>
12    1  0.8113184E-002  0.2058296E+03  0.7818608E-02  0.1144952E+00
         21   -1    0    0  503  502  0.00000000000E+00  0.00000000000E+00  0.20260611961E+04  0.20260611961E+04  0.00000000000E+00 0.  1.
         21   -1    0    0  501  503 -0.00000000000E+00 -0.00000000000E+00 -0.21149740833E+02  0.21149740833E+02  0.00000000000E+00 0.  1.
          6    2    1    2  501    0  0.42817952250E+02 -0.10363636884E+03  0.88857470792E+03  0.91205740021E+03  0.17236535538E+03 0.  0.
         24    2    3    3    0    0  0.89740580115E+02 -0.96822252576E+02  0.60436010778E+03  0.62387656441E+03  0.80888240390E+02 0.  0.
         -6    2    1    2    0  502 -0.42817952250E+02  0.10363636884E+03  0.11163367473E+04  0.11351535367E+04  0.17260343126E+03 0.  0.
        -24    2    5    5    0    0  0.87059434117E+01  0.24056320927E+02  0.25352446482E+03  0.26713578303E+03  0.80202071583E+02 0.  0.
          5    1    3    3  501    0 -0.46922627866E+02 -0.68141162662E+01  0.28421460014E+03  0.28818083579E+03  0.47000000000E+01 0. -1.
        -11    1    4    4    0    0 -0.78878411354E+01 -0.38499520180E+02  0.11699002674E+03  0.12341433242E+03  0.00000000000E+00 0.  1.
         12    1    4    4    0    0  0.97628421251E+02 -0.58322732396E+02  0.48737008105E+03  0.50046223199E+03  0.00000000000E+00 0. -1.
         -5    1    5    5    0  502 -0.51523895661E+02  0.79580047916E+02  0.86281228251E+03  0.86801775368E+03  0.47000000000E+01 0.  1.
         13    1    6    6    0    0  0.35931236559E+02  0.20137358416E+02  0.21975481854E+03  0.22358163439E+03  0.00000000000E+00 0. -1.
        -14    1    6    6    0    0 -0.27225293147E+02  0.39189625108E+01  0.33769646285E+02  0.43554148647E+02  0.00000000000E+00 0.  1.
</event>
<event>
12    1  0.8113184E-002  0.1964548E+03  0.7818608E-02  0.1153131E+00
         21   -1    0    0  501  502  0.00000000000E+00  0.00000000000E+00  0.69937977461E+02  0.69937977461E+02  0.00000000000E+00 0.  1.
         21   -1    0    0  502  503 -0.00000000000E+00 -0.00000000000E+00 -0.55276496563E+03  0.55276496563E+03  0.00000000000E+00 0.  1.
         -6    2    1    2    0  503 -0.34144334148E+02 -0.87195409352E+02 -0.27187298614E+03  0.33443905690E+03  0.17077964522E+03 0.  0.
        -24    2    3    3    0    0  0.15540620864E+02 -0.49934499844E+02 -0.25032686116E+03  0.26853537238E+03  0.81931334836E+02 0.  0.
          6    2    1    2  501    0  0.34144334148E+02  0.87195409352E+02 -0.21095400203E+03  0.28826388619E+03  0.17270090371E+03 0.  0.
         24    2    5    5    0    0 -0.89964983619E+01  0.94433964647E+02 -0.21077591703E+03  0.24426786561E+03  0.79003748712E+02 0.  0.
          5    1    5    5  501    0  0.43140832510E+02 -0.72385552953E+01 -0.17808500074E+00  0.43996020578E+02  0.47000000000E+01 0. -1.
        -13    1    6    6    0    0  0.10102276082E+02  0.67893442901E+02 -0.63846542575E+02  0.93744101520E+02  0.00000000000E+00 0.  1.
         14    1    6    6    0    0 -0.19098774444E+02  0.26540521746E+02 -0.14692937445E+03  0.15052376409E+03  0.00000000000E+00 0. -1.
         -5    1    3    3    0  503 -0.49684955012E+02 -0.37260909508E+02 -0.21546124980E+02  0.65903684522E+02  0.47000000000E+01 0.  1.
         13    1    4    4    0    0  0.26887119167E+02  0.47652142458E+01 -0.16011727924E+03  0.16242896157E+03  0.00000000000E+00 0. -1.
        -14    1    4    4    0    0 -0.11346498303E+02 -0.54699714090E+02 -0.90209581921E+02  0.10610641081E+03  0.00000000000E+00 0.  1.
</event>
<event>
12    1  0.8113184E-002  0.2049183E+03  0.7818608E-02  0.1145694E+00
         21   -1    0    0  501  502  0.00000000000E+00  0.00000000000E+00  0.27341966616E+03  0.27341966616E+03  0.00000000000E+00 0.  1.
         21   -1    0    0  502  503 -0.00000000000E+00 -0.00000000000E+00 -0.15361879446E+03  0.15361879446E+03  0.00000000000E+00 0. -1.
         -6    2    1    2    0  503  0.10755486542E+03  0.25752694229E+02  0.52516573100E+02  0.21154077811E+03  0.17251162285E+03 0.  0.
        -24    2    3    3    0    0  0.62252358506E+02 -0.52351495400E+02  0.36333281053E+02  0.11968997239E+03  0.79934641851E+02 0.  0.
          6    2    1    2  501    0 -0.10755486542E+03 -0.25752694229E+02  0.67284298606E+02  0.21549768251E+03  0.17228123518E+03 0.  0.
         24    2    5    5    0    0 -0.55705838322E+02  0.38163870277E+02  0.80617104018E+02  0.13199018267E+03  0.79766342806E+02 0.  0.
          5    1    5    5  501    0 -0.51849027094E+02 -0.63916564506E+02 -0.13332805411E+02  0.83507499837E+02  0.47000000000E+01 0. -1.
        -11    1    6    6    0    0 -0.11504133404E+02  0.34558901072E+02  0.79704209075E+02  0.87632320938E+02  0.00000000000E+00 0.  1.
         12    1    6    6    0    0 -0.44201704918E+02  0.36049692052E+01  0.91289494228E+00  0.44357861737E+02  0.00000000000E+00 0. -1.
         -5    1    3    3    0  503  0.45302506910E+02  0.78104189630E+02  0.16183292047E+02  0.91850805721E+02  0.47000000000E+01 0.  1.
         13    1    4    4    0    0  0.29624322677E+02  0.52009891536E-01 -0.20303144398E+02  0.35914076231E+02  0.00000000000E+00 0. -1.
        -14    1    4    4    0    0  0.32628035829E+02 -0.52403505292E+02  0.56636425451E+02  0.83775896157E+02  0.00000000000E+00 0.  1.
</event>
<event>
12    1  0.8113184E-002  0.1852241E+03  0.7818608E-02  0.1163209E+00
         21   -1    0    0  501  502  0.00000000000E+00  0.00000000000E+00  0.52535289044E+03  0.52535289044E+03  0.00000000000E+00 0. -1.
         21   -1    0    0  502  503 -0.00000000000E+00 -0.00000000000E+00 -0.72555635325E+02  0.72555635325E+02  0.00000000000E+00 0.  1.
         -6    2    1    2    0  503 -0.64831349726E+01 -0.69853909765E+02  0.12921305552E+03  0.22584063918E+03  0.17142456311E+03 0.  0.
        -24    2    3    3    0    0 -0.56212666333E+02 -0.76523272368E+02  0.13105315572E+03  0.17541264442E+03  0.67668243125E+02 0.  0.
          6    2    1    2  501    0  0.64831349726E+01  0.69853909765E+02  0.32358419960E+03  0.37206788659E+03  0.16972382936E+03 0.  0.
         24    2    5    5    0    0  0.43742982154E+01  0.71894022060E+02  0.77655446677E+02  0.12607672666E+03  0.68389236825E+02 0.  0.
          5    1    5    5  501    0  0.21088367572E+01 -0.20401122952E+01  0.24592875292E+03  0.24599115993E+03  0.47000000000E+01 0. -1.
        -13    1    6    6    0    0 -0.51258504935E+01  0.30155212916E+01 -0.11540073581E+02  0.12982334544E+02  0.00000000000E+00 0.  1.
         14    1    6    6    0    0  0.95001487089E+01  0.68878500769E+02  0.89195520259E+02  0.11309439212E+03  0.00000000000E+00 0. -1.
         -5    1    3    3    0  503  0.49729531361E+02  0.66693626032E+01 -0.18401001980E+01  0.50427994761E+02  0.47000000000E+01 0.  1.
         11    1    4    4    0    0 -0.55424644033E+02 -0.34387372481E+02  0.43953109304E+02  0.78652770897E+02  0.00000000000E+00 0. -1.
        -12    1    4    4    0    0 -0.78802230062E+00 -0.42135899888E+02  0.87100046411E+02  0.96759873518E+02  0.00000000000E+00 0.  1.
</event>
<event>
12    1  0.8113184E-002  0.2111180E+03  0.7818608E-02  0.1140700E+00
         21   -1    0    0  503  502  0.00000000000E+00  0.00000000000E+00  0.15244541338E+04  0.15244541338E+04  0.00000000000E+00 0.  1.
         21   -1    0    0  501  503 -0.00000000000E+00 -0.00000000000E+00 -0.45925146858E+02  0.45925146858E+02  0.00000000000E+00 0. -1.
          6    2    1    2  501    0  0.81330660021E+02 -0.89769938931E+02  0.26569064059E+03  0.33930347227E+03  0.17280628345E+03 0.  0.
         24    2    3    3    0    0  0.78179634494E+02 -0.56041230337E+02  0.27657130421E+03  0.30341428746E+03  0.79472440356E+02 0.  0.
         -6    2    1    2    0  502 -0.81330660021E+02  0.89769938931E+02  0.12128383463E+04  0.12310758084E+04  0.17290885872E+03 0.  0.
        -24    2    5    5    0    0 -0.31161994201E+02  0.17204615242E+02  0.94663739876E+03  0.95059825897E+03  0.79041865784E+02 0.  0.
          5    1    3    3  501    0  0.31510255270E+01 -0.33728708594E+02 -0.10880663620E+02  0.35889184806E+02  0.47000000000E+01 0. -1.
        -13    1    4    4    0    0  0.14339625343E+02 -0.61179011948E+01  0.16381463847E+03  0.16455482170E+03  0.00000000000E+00 0.  1.
         14    1    4    4    0    0  0.63840009151E+02 -0.49923329142E+02  0.11275666574E+03  0.13885946576E+03  0.00000000000E+00 0. -1.
         -5    1    5    5    0  502 -0.50168665819E+02  0.72565323688E+02  0.26620094757E+03  0.28047754940E+03  0.47000000000E+01 0.  1.
         13    1    6    6    0    0 -0.92913260950E+01 -0.30321446144E+02  0.25083375074E+03  0.25283055462E+03  0.00000000000E+00 0. -1.
        -14    1    6    6    0    0 -0.21870668106E+02  0.47526061387E+02  0.69580364802E+03  0.69776770435E+03  0.00000000000E+00 0.  1.
</event>
<event>
12    1  0.8113184E-002  0.2172932E+03  0.7818608E-02  0.1135968E+00
         21   -1    0    0  501  502  0.00000000000E+00  0.00000000000E+00  0.50163105624E+03  0.50163105624E+03  0.00000000000E+00 0.  1.
         21   -1    0    0  502  503 -0.00000000000E+00 -0.00000000000E+00 -0.10508393423E+03  0.10508393423E+03  0.00000000000E+00 0.  1.
         -6    2    1    2    0  503 -0.12810865002E+03 -0.31470987400E+02  0.29663885288E+03  0.36755396441E+03  0.17233414770E+03 0.  0.
        -24    2    3    3    0    0 -0.11666355646E+03 -0.82930649029E+02  0.24352564836E+03  0.29257270385E+03  0.76198213066E+02 0.  0.
          6    2    1    2  501    0  0.12810865002E+03  0.31470987400E+02  0.99908269137E+02  0.23916102606E+03  0.17266755598E+03 0.  0.
         24    2    5    5    0    0  0.12018118149E+03 -0.90224818107E+00  0.13023320946E+03  0.19385580401E+03  0.78581508440E+02 0.  0.
          5    1    5    5  501    0  0.79274685257E+01  0.32373235581E+02 -0.30324940319E+02  0.45305222045E+02  0.47000000000E+01 0. -1.
        -13    1    6    6    0    0  0.81240602908E+02  0.32274167702E+02  0.10556824209E+03  0.13706316500E+03  0.00000000000E+00 0.  1.
         14    1    6    6    0    0  0.38940578584E+02 -0.33176415883E+02  0.24664967368E+02  0.56792639017E+02  0.00000000000E+00 0. -1.
         -5    1    3    3    0  503 -0.11445093557E+02  0.51459661629E+02  0.53113204513E+02  0.74981260560E+02  0.47000000000E+01 0.  1.
         11    1    4    4    0    0  0.94684803847E+01 -0.16753616990E+02  0.36776245587E+02  0.41506963783E+02  0.00000000000E+00 0. -1.
        -12    1    4    4    0    0 -0.12613203684E+03 -0.66177032039E+02  0.20674940278E+03  0.25106574007E+03  0.00000000000E+00 0.  1.
</event>
<event>
12    1  0.8113184E-002  0.1791283E+03  0.7818608E-02  0.1168686E+00
         21   -1    0    0  503  502  0.00000000000E+00  0.00000000000E+00  0.14406398066E+02  0.14406398066E+02  0.00000000000E+00 0.  1.
         21   -1    0    0  501  503 -0.00000000000E+00 -0.00000000000E+00 -0.25772027498E+04  0.25772027498E+04  0.00000000000E+00 0.  1.
          6    2    1    2  501    0 -0.42239976872E+02  0.27977365368E+02 -0.17606210282E+04  0.17697099629E+04  0.17181385034E+03 0.  0.
         24    2    3    3    0    0 -0.60796388135E+02  0.38398824802E+02 -0.64714110115E+03  0.65601674428E+03  0.79973079367E+02 0.  0.
         -6    2    1    2    0  502  0.42239976872E+02 -0.27977365368E+02 -0.80217532349E+03  0.82189918494E+03  0.17165684364E+03 0.  0.
        -24    2    5    5    0    0  0.26409905393E+01 -0.75681905841E+02 -0.61110440120E+03  0.62096638462E+03  0.80099537797E+02 0.  0.
          5    1    3    3  501    0  0.18556411263E+02 -0.10421459434E+02 -0.11134799271E+04  0.11136932186E+04  0.47000000000E+01 0. -1.
        -13    1    4    4    0    0 -0.85717964957E-01  0.43353105844E+02 -0.19302557553E+03  0.19783420316E+03  0.00000000000E+00 0.  1.
         14    1    4    4    0    0 -0.60710670170E+02 -0.49542810425E+01 -0.45411552562E+03  0.45818254112E+03  0.00000000000E+00 0. -1.
         -5    1    5    5    0  502  0.39598986332E+02  0.47704540474E+02 -0.19107092229E+03  0.20093280032E+03  0.47000000000E+01 0.  1.
         13    1    6    6    0    0 -0.13238205927E+02 -0.89264302449E+01 -0.36847201706E+03  0.36881778511E+03  0.00000000000E+00 0. -1.
        -14    1    6    6    0    0  0.15879196466E+02 -0.66755475597E+02 -0.24263238414E+03  0.25214859951E+03  0.00000000000E+00 0.  1.
</event>
<event>
12    1  0.8113184E-002  0.1808232E+03  0.7818608E-02  0.1167150E+00
         21   -1    0    0  501  502  0.00000000000E+00  0.00000000000E+00  0.29460841576E+03  0.29460841576E+03  0.00000000000E+00 0. -1.
         21   -1    0    0  502  503 -0.00000000000E+00 -0.00000000000E+00 -0.44935156857E+03  0.44935156857E+03  0.00000000000E+00 0. -1.
         -6    2    1    2    0  503  0.52570872409E+02 -0.14275506926E+02 -0.40030182622E+03  0.43900737630E+03  0.17180930606E+03 0.  0.
        -24    2    3    3    0    0  0.44379364629E+02 -0.70200719476E+02 -0.32359649113E+03  0.34361068543E+03  0.80348895752E+02 0.  0.
          6    2    1    2  501    0 -0.52570872409E+02  0.14275506926E+02  0.24555867341E+03  0.30495260803E+03  0.17242257490E+03 0.  0.
         24    2    5    5    0    0  0.71354975687E+00 -0.48276635778E+02  0.16413984930E+03  0.18918078451E+03  0.80723827857E+02 0.  0.
          5    1    5    5  501    0 -0.53284422166E+02  0.62552142703E+02  0.81418824106E+02  0.11577182352E+03  0.47000000000E+01 0. -1.
        -13    1    6    6    0    0  0.23806911911E+02 -0.63370195224E+01  0.80569046709E+01  0.25919887809E+02  0.00000000000E+00 0.  1.
         14    1    6    6    0    0 -0.23093362154E+02 -0.41939616255E+02  0.15608294463E+03  0.16326089670E+03  0.00000000000E+00 0. -1.
         -5    1    3    3    0  503  0.81915077801E+01  0.55925212550E+02 -0.76705335087E+02  0.95396690872E+02  0.47000000000E+01 0.  1.
         13    1    4    4    0    0  0.54423086019E+02 -0.77630402328E+02 -0.31357848487E+03  0.32759703575E+03  0.00000000000E+00 0. -1.
        -14    1    4    4    0    0 -0.10043721390E+02  0.74296828527E+01 -0.10018006261E+02  0.16013649681E+02  0.00000000000E+00 0.  1.
</event>
<event>
12    1  0.8113184E-002  0.1883767E+03  0.7818608E-02  0.1160257E+00
         21   -1    0    0  501  502  0.00000000000E+00  0.00000000000E+00  0.44370140751E+02  0.44370140751E+02  0.00000000000E+00 0. -1.
         21   -1    0    0  502  503 -0.00000000000E+00 -0.00000000000E+00 -0.95781539497E+03  0.95781539497E+03  0.00000000000E+00 0. -1.
         -6    2    1    2    0  503  0.76325681760E+02  0.24231169943E+01 -0.66266900095E+03  0.68853841123E+03  0.17065596306E+03 0.  0.
        -24    2    3    3    0    0 -0.23429702803E+02  0.25001185962E+02 -0.25384593473E+03  0.26708936873E+03  0.75663478897E+02 0.  0.
          6    2    1    2  501    0 -0.76325681760E+02 -0.24231169943E+01 -0.25077625328E+03  0.31364712450E+03  0.17220426332E+03 0.  0.
         24    2    5    5    0    0 -0.23794114057E+02  0.13734243501E+01 -0.24709979277E+03  0.26064159938E+03  0.79420964362E+02 0.  0.
          5    1    5    5  501    0 -0.52531567703E+02 -0.37965413444E+01 -0.36764605063E+01  0.53005525121E+02  0.47000000000E+01 0. -1.
        -13    1    6    6    0    0  0.10772051289E+01 -0.12350301439E+02 -0.22312796712E+03  0.22347210123E+03  0.00000000000E+00 0.  1.
         14    1    6    6    0    0 -0.24871319186E+02  0.13723725789E+02 -0.23971825652E+02  0.37169498149E+02  0.00000000000E+00 0. -1.
         -5    1    3    3    0  503  0.99755384563E+02 -0.22578068968E+02 -0.40882306621E+03  0.42144904249E+03  0.47000000000E+01 0.  1.
         13    1    4    4    0    0  0.19355861800E+02 -0.13788681622E+02 -0.99334045657E+02  0.10213730833E+03  0.00000000000E+00 0. -1.
        -14    1    4    4    0    0 -0.42785564604E+02  0.38789867584E+02 -0.15451188907E+03  0.16495206040E+03  0.00000000000E+00 0.  1.
</event>
<event>
12    1  0.8113184E-002  0.1866834E+03  0.7818608E-02  0.1161606E+00
         21   -1    0    0  503  502  0.00000000000E+00  0.00000000000E+00  0.12302306555E+03  0.12302306555E+03  0.00000000000E+00 0. -1.
         21   -1    0    0  501  503 -0.00000000000E+00 -0.00000000000E+00 -0.46768732871E+03  0.46768732871E+03  0.00000000000E+00 0. -1.
          6    2    1    2  501    0  0.64953330951E+02 -0.22647369908E+02 -0.35832675033E+03  0.40404053103E+03  0.17354783822E+03 0.  0.
         24    2    3    3    0    0  0.71377345009E+02 -0.21428092176E+02 -0.10540953753E+03  0.15099515738E+03  0.78322911315E+02 0.  0.
         -6    2    1    2    0  502 -0.64953330951E+02  0.22647369908E+02  0.13662487165E+02  0.18666986322E+03  0.17299461181E+03 0.  0.
        -24    2    5    5    0    0 -0.27725200548E+01  0.58286081869E+02  0.42637360146E+02  0.10922178837E+03  0.81893225405E+02 0.  0.
          5    1    3    3  501    0 -0.64240140576E+01 -0.12192777324E+01 -0.25291721280E+03  0.25304537365E+03  0.47000000000E+01 0. -1.
        -11    1    4    4    0    0 -0.15658561597E+02 -0.31842735853E+01 -0.31666790533E+02  0.35469927716E+02  0.00000000000E+00 0.  1.
         12    1    4    4    0    0  0.87035906606E+02 -0.18243818591E+02 -0.73742746993E+02  0.11552522967E+03  0.00000000000E+00 0. -1.
         -5    1    5    5    0  502 -0.62180810896E+02 -0.35638711960E+02 -0.28974872981E+02  0.77448074851E+02  0.47000000000E+01 0.  1.
         11    1    6    6    0    0  0.11440817700E+02 -0.13907750145E+02  0.29375800429E+02  0.34456573750E+02  0.00000000000E+00 0. -1.
        -12    1    6    6    0    0 -0.14213337755E+02  0.72193832013E+02  0.13261559717E+02  0.74765214619E+02  0.00000000000E+00 0.  1.
</event>
<event>
12    1  0.8113184E-002  0.2002883E+03  0.7818608E-02  0.1149650E+00
         21   -1    0    0  503  502  0.00000000000E+00  0.00000000000E+00  0.45116405988E+03  0.45116405988E+03  0.00000000000E+00 0. -1.
         21   -1    0    0  501  503 -0.00000000000E+00 -0.00000000000E+00 -0.97035058893E+02  0.97035058893E+02  0.00000000000E+00 0. -1.
          6    2    1    2  501    0 -0.10198381663E+03 -0.64670685485E+01  0.95918972869E+02  0.22141505759E+03  0.17141078303E+03 0.  0.
         24    2    3    3    0    0 -0.62906503009E+02 -0.70458070225E+02  0.67441449848E+02  0.14107239113E+03  0.80196649567E+02 0.  0.
         -6    2    1    2    0  502  0.10198381663E+03  0.64670685485E+01  0.25821002811E+03  0.32678406118E+03  0.17225818470E+03 0.  0.
        -24    2    5    5    0    0  0.25555915540E+02 -0.57649076759E+02  0.11312646978E+03  0.15064935974E+03  0.76948752780E+02 0.  0.
          5    1    3    3  501    0 -0.39077313619E+02  0.63991001677E+02  0.28477523021E+02  0.80342666452E+02  0.47000000000E+01 0. -1.
        -13    1    4    4    0    0 -0.39374197840E+02 -0.63014842553E+01  0.60398607139E+02  0.72374221265E+02  0.00000000000E+00 0.  1.
         14    1    4    4    0    0 -0.23532305169E+02 -0.64156585970E+02  0.70428427095E+01  0.68698169869E+02  0.00000000000E+00 0. -1.
         -5    1    5    5    0  502  0.76427901089E+02  0.64116145308E+02  0.14508355834E+03  0.17613470145E+03  0.47000000000E+01 0.  1.
         11    1    6    6    0    0  0.11577923492E+02 -0.32919916735E+02  0.11689642068E+03  0.12199402608E+03  0.00000000000E+00 0. -1.
        -12    1    6    6    0    0  0.13977992047E+02 -0.24729160025E+02 -0.37699509067E+01  0.28655333658E+02  0.00000000000E+00 0.  1.
</event>
<event>
12    1  0.8113184E-002  0.2876712E+03  0.7818608E-02  0.1092083E+00
         21   -1    0    0  503  502  0.00000000000E+00  0.00000000000E+00  0.76663482886E+03  0.76663482886E+03  0.00000000000E+00 0. -1.
         21   -1    0    0  501  503 -0.00000000000E+00 -0.00000000000E+00 -0.10684091246E+03  0.10684091246E+03  0.00000000000E+00 0.  1.
          6    2    1    2  501    0  0.22771722260E+03  0.33493441419E+02  0.30315563549E+03  0.41527757936E+03  0.16605777459E+03 0.  0.
         24    2    3    3    0    0  0.18999240383E+03  0.12545787804E+02  0.30879816409E+03  0.37150664982E+03  0.80039830194E+02 0.  0.
         -6    2    1    2    0  502 -0.22771722260E+03 -0.33493441419E+02  0.35663828090E+03  0.45819816196E+03  0.17256230217E+03 0.  0.
        -24    2    5    5    0    0 -0.18548768308E+03 -0.42802901730E+02  0.35926701866E+03  0.41462064112E+03  0.81238638461E+02 0.  0.
          5    1    3    3  501    0  0.37724818776E+02  0.20947653616E+02 -0.56425285922E+01  0.43770929538E+02  0.47000000000E+01 0. -1.
        -13    1    4    4    0    0  0.40497124800E+02  0.30122400416E+02  0.44201808817E+02  0.67090804337E+02  0.00000000000E+00 0.  1.
         14    1    4    4    0    0  0.14949527903E+03 -0.17576612612E+02  0.26459635527E+03  0.30441584549E+03  0.00000000000E+00 0. -1.
         -5    1    5    5    0  502 -0.42229539524E+02  0.93094603105E+01 -0.26287377600E+01  0.43577520832E+02  0.47000000000E+01 0.  1.
         13    1    6    6    0    0 -0.12286428436E+03  0.32275631585E-01  0.16240845129E+03  0.20364709294E+03  0.00000000000E+00 0. -1.
        -14    1    6    6    0    0 -0.62623398721E+02 -0.42835177362E+02  0.19685856736E+03  0.21097354818E+03  0.00000000000E+00 0.  1.
</event>
<event>
12    1  0.8113184E-002  0.1875719E+03  0.7818608E-02  0.1161519E+00
         21   -1    0    0  501  502  0.00000000000E+00  0.00000000000E+00  0.11881179314E+03  0.11881179314E+03  0.00000000000E+00 0. -1.
         21   -1    0    0  502  503 -0.00000000000E+00 -0.00000000000E+00 -0.31642033331E+03  0.31642033331E+03  0.00000000000E+00 0. -1.
         -6    2    1    2    0  503 -0.70402666192E+02 -0.73374619079E+00 -0.16213643679E+03  0.24793432229E+03  0.17385663704E+03 0.  0.
        -24    2    3    3    0    0 -0.39555202657E+01 -0.50856822082E+02 -0.10221816815E+03  0.14527062445E+03  0.89738163192E+02 0.  0.
          6    2    1    2  501    0  0.70402666192E+02  0.73374619079E+00 -0.35472103376E+02  0.18729780416E+03  0.16989739119E+03 0.  0.
         24    2    5    5    0    0 -0.32666993682E+01  0.49678293644E+02 -0.25815728069E+02  0.98201902277E+02  0.80613631669E+02 0.  0.
          5    1    5    5  501    0  0.73669365560E+02 -0.48944547453E+02 -0.96563753070E+01  0.89095901878E+02  0.47000000000E+01 0. -1.
        -13    1    6    6    0    0  0.19023742192E+02  0.33013810218E+02 -0.48935764918E+02  0.62020347630E+02  0.00000000000E+00 0.  1.
         14    1    6    6    0    0 -0.22290441560E+02  0.16664483426E+02  0.23120036849E+02  0.36181554647E+02  0.00000000000E+00 0. -1.
         -5    1    3    3    0  503 -0.66447145926E+02  0.50123075891E+02 -0.59918268639E+02  0.10266369785E+03  0.47000000000E+01 0.  1.
         13    1    4    4    0    0  0.26365233481E+01 -0.13040480844E+00 -0.93310562948E+02  0.93347894558E+02  0.00000000000E+00 0. -1.
        -14    1    4    4    0    0 -0.65920436137E+01 -0.50726417274E+02 -0.89076052064E+01  0.51922729887E+02  0.00000000000E+00 0.  1.
</event>
<event>
12    1  0.8113184E-002  0.2827858E+03  0.7818608E-02  0.1094187E+00
         21   -1    0    0  503  502  0.00000000000E+00  0.00000000000E+00  0.26830123436E+03  0.26830123436E+03  0.00000000000E+00 0.  1.
         21   -1    0    0  501  503 -0.00000000000E+00 -0.00000000000E+00 -0.37213332667E+03  0.37213332667E+03  0.00000000000E+00 0.  1.
          6    2    1    2  501    0 -0.22181463222E+03 -0.32053987919E+02 -0.19485969164E+03  0.34335904827E+03  0.17232512119E+03 0.  0.
         24    2    3    3    0    0 -0.97523880047E+02  0.20581299275E+02 -0.15595785832E+03  0.20280974315E+03  0.82912250504E+02 0.  0.
         -6    2    1    2    0  502  0.22181463222E+03  0.32053987919E+02  0.91027599324E+02  0.29707551276E+03  0.17244896993E+03 0.  0.
        -24    2    5    5    0    0  0.12922739033E+03  0.18679513907E+02 -0.31399405217E+02  0.14292709285E+03  0.48924314743E+02 0.  0.
          5    1    3    3  501    0 -0.12429075218E+03 -0.52635287194E+02 -0.38901833315E+02  0.14054930512E+03  0.47000000000E+01 0. -1.
        -13    1    4    4    0    0 -0.24463650622E+02 -0.31329452891E+02 -0.41944189733E+02  0.57786848612E+02  0.00000000000E+00 0.  1.
         14    1    4    4    0    0 -0.73060229425E+02  0.51910752165E+02 -0.11401366859E+03  0.14502289453E+03  0.00000000000E+00 0. -1.
         -5    1    5    5    0  502  0.92587241897E+02  0.13374474012E+02  0.12242700454E+03  0.15414841990E+03  0.47000000000E+01 0.  1.
         13    1    6    6    0    0  0.42495753331E+02  0.16057267250E+02 -0.32986687490E+02  0.56141307736E+02  0.00000000000E+00 0. -1.
        -14    1    6    6    0    0  0.86731636996E+02  0.26222466580E+01  0.15872822728E+01  0.86785785118E+02  0.00000000000E+00 0.  1.
</event>
<event>
12    1  0.8113184E-002  0.2032117E+03  0.7818608E-02  0.1147888E+00
         21   -1    0    0  503  502  0.00000000000E+00  0.00000000000E+00  0.18774878879E+02  0.18774878879E+02  0.00000000000E+00 0. -1.
         21   -1    0    0  501  503 -0.00000000000E+00 -0.00000000000E+00 -0.21640646322E+04  0.21640646322E+04  0.00000000000E+00 0.  1.
          6    2    1    2  501    0 -0.63643294628E+02  0.78619028043E+02 -0.11471759064E+04  0.11650354328E+04  0.17624862786E+03 0.  0.
         24    2    3    3    0    0 -0.88412398436E+02  0.11051679431E+03 -0.94669328808E+03  0.96047163770E+03  0.79037150207E+02 0.  0.
         -6    2    1    2    0  502  0.63643294628E+02 -0.78619028043E+02 -0.99811384692E+03  0.10178040783E+04  0.17164635133E+03 0.  0.
        -24    2    5    5    0    0  0.80639430949E+02 -0.38139066178E+01 -0.73349210958E+03  0.74224749845E+03  0.80021312343E+02 0.  0.
          5    1    3    3  501    0  0.24769103809E+02 -0.31897766271E+02 -0.20048261836E+03  0.20456379509E+03  0.47000000000E+01 0. -1.
        -13    1    4    4    0    0 -0.22799385659E+02  0.59620225121E+02 -0.62434217164E+03  0.62759663043E+03  0.00000000000E+00 0.  1.
         14    1    4    4    0    0 -0.65613012777E+02  0.50896569194E+02 -0.32235111643E+03  0.33287500727E+03  0.00000000000E+00 0. -1.
         -5    1    5    5    0  502 -0.16996136322E+02 -0.74805121426E+02 -0.26462173734E+03  0.27555657987E+03  0.47000000000E+01 0.  1.
         11    1    6    6    0    0  0.58816600412E+02  0.21151313289E+02 -0.25277397707E+03  0.26038712337E+03  0.00000000000E+00 0. -1.
        -12    1    6    6    0    0  0.21822830537E+02 -0.24965219906E+02 -0.48071813252E+03  0.48186037508E+03  0.00000000000E+00 0.  1.
</event>
<event>
12    1  0.8113184E-002  0.2176646E+03  0.7818608E-02  0.1135812E+00
         21   -1    0    0  501  502  0.00000000000E+00  0.00000000000E+00  0.77340842810E+03  0.77340842810E+03  0.00000000000E+00 0.  1.
         21   -1    0    0  502  503 -0.00000000000E+00 -0.00000000000E+00 -0.91727282470E+02  0.91727282470E+02  0.00000000000E+00 0.  1.
         -6    2    1    2    0  503  0.14086822586E+02 -0.13173401133E+03  0.90955979219E+02  0.23590436569E+03  0.17270087228E+03 0.  0.
        -24    2    3    3    0    0  0.25808565952E+02 -0.39490634957E+02  0.10611483309E+03  0.14157451568E+03  0.80977733745E+02 0.  0.
          6    2    1    2  501    0 -0.14086822586E+02  0.13173401133E+03  0.59072516641E+03  0.62923134488E+03  0.17153301384E+03 0.  0.
         24    2    5    5    0    0  0.44268364300E+02  0.12859556088E+03  0.39083109855E+03  0.42091690450E+03  0.76977831471E+02 0.  0.
          5    1    5    5  501    0 -0.58355186886E+02  0.31384504424E+01  0.19989406786E+03  0.20831444038E+03  0.47000000000E+01 0. -1.
        -11    1    6    6    0    0  0.38894700068E+02  0.19683183635E+02  0.15647816757E+03  0.16243657944E+03  0.00000000000E+00 0.  1.
         12    1    6    6    0    0  0.53736642324E+01  0.10891237725E+03  0.23435293098E+03  0.25848032506E+03  0.00000000000E+00 0. -1.
         -5    1    3    3    0  503 -0.11721743366E+02 -0.92243376368E+02 -0.15158853875E+02  0.94329850006E+02  0.47000000000E+01 0.  1.
         13    1    4    4    0    0 -0.18338708100E+02 -0.14690284459E+02 -0.54696403943E+00  0.23503443193E+02  0.00000000000E+00 0. -1.
        -14    1    4    4    0    0  0.44147274052E+02 -0.24800350498E+02  0.10666179713E+03  0.11807107249E+03  0.00000000000E+00 0.  1.
</event>
<event>
12    1  0.8113184E-002  0.2590605E+03  0.7818608E-02  0.1108170E+00
         21   -1    0    0  503  502  0.00000000000E+00  0.00000000000E+00  0.77389732965E+03  0.77389732965E+03  0.00000000000E+00 0.  1.
         21   -1    0    0  501  503 -0.00000000000E+00 -0.00000000000E+00 -0.85884481183E+02  0.85884481183E+02  0.00000000000E+00 0.  1.
          6    2    1    2  501    0  0.11992133835E+03  0.14876699618E+03  0.32239513261E+03  0.41168733800E+03  0.17039687848E+03 0.  0.
         24    2    3    3    0    0  0.11251101309E+03  0.57569505932E+02  0.13254876886E+03  0.20088974082E+03  0.82550201462E+02 0.  0.
         -6    2    1    2    0  502 -0.11992133835E+03 -0.14876699618E+03  0.36561771586E+03  0.44809447284E+03  0.17492740178E+03 0.  0.
        -24    2    5    5    0    0 -0.10360017940E+03 -0.21951147562E+02  0.18724556139E+03  0.22857828851E+03  0.77280551695E+02 0.  0.
          5    1    3    3  501    0  0.74103252661E+01  0.91197490243E+02  0.18984636375E+03  0.21079759718E+03  0.47000000000E+01 0. -1.
        -11    1    4    4    0    0  0.47887664897E+00  0.36610319473E+02  0.26389065514E+02  0.45132334235E+02  0.00000000000E+00 0.  1.
         12    1    4    4    0    0  0.11203213644E+03  0.20959186460E+02  0.10615970335E+03  0.15575740659E+03  0.00000000000E+00 0. -1.
         -5    1    5    5    0  502 -0.16321158956E+02 -0.12681584861E+03  0.17837215447E+03  0.21951618432E+03  0.47000000000E+01 0.  1.
         13    1    6    6    0    0 -0.49725450666E+02 -0.20253886376E+02  0.28200001528E+02  0.60647180012E+02  0.00000000000E+00 0. -1.
        -14    1    6    6    0    0 -0.53874728730E+02 -0.16972611854E+01  0.15904555986E+03  0.16793110850E+03  0.00000000000E+00 0.  1.
</event>
<event>
12    1  0.8113184E-002  0.1769252E+03  0.7818608E-02  0.1171145E+00
         21   -1    0    0  501  502  0.00000000000E+00  0.00000000000E+00  0.20943999697E+02  0.20943999697E+02  0.00000000000E+00 0.  1.
         21   -1    0    0  502  503 -0.00000000000E+00 -0.00000000000E+00 -0.17453463424E+04  0.17453463424E+04  0.00000000000E+00 0.  1.
         -6    2    1    2    0  503 -0.30351788145E+02 -0.15333986361E+02 -0.12016146861E+04  0.12143759769E+04  0.17226374330E+03 0.  0.
        -24    2    3    3    0    0 -0.18859618764E+02  0.12385616135E+02 -0.11594158972E+04  0.11623829571E+04  0.79873823420E+02 0.  0.
          6    2    1    2  501    0  0.30351788145E+02  0.15333986361E+02 -0.52278765661E+03  0.55191436520E+03  0.17362652570E+03 0.  0.
         24    2    5    5    0    0  0.66928984976E+02  0.86647388170E+01 -0.49312363520E+03  0.50411881774E+03  0.80064324614E+02 0.  0.
          5    1    5    5  501    0 -0.36577196831E+02  0.66692475442E+01 -0.29664021409E+02  0.47795547459E+02  0.47000000000E+01 0. -1.
        -13    1    6    6    0    0  0.15995402320E+02  0.35847885348E+02 -0.29978837504E+03  0.30234747161E+03  0.00000000000E+00 0.  1.
         14    1    6    6    0    0  0.50933582656E+02 -0.27183146531E+02 -0.19333526017E+03  0.20177134613E+03  0.00000000000E+00 0. -1.
         -5    1    3    3    0  503 -0.11492169381E+02 -0.27719602496E+02 -0.42198788904E+02  0.51993019768E+02  0.47000000000E+01 0.  1.
         13    1    4    4    0    0  0.28858832138E+02  0.45089140324E+01 -0.25354841495E+03  0.25522531462E+03  0.00000000000E+00 0. -1.
        -14    1    4    4    0    0 -0.47718450902E+02  0.78767021028E+01 -0.90586748224E+03  0.90715764251E+03  0.00000000000E+00 0.  1.
</event>
<event>
12    1  0.8113184E-002  0.2493451E+03  0.7818608E-02  0.1113855E+00
         21   -1    0    0  501  502  0.00000000000E+00  0.00000000000E+00  0.22831715591E+03  0.22831715591E+03  0.00000000000E+00 0. -1.
         21   -1    0    0  502  503 -0.00000000000E+00 -0.00000000000E+00 -0.33854059309E+03  0.33854059309E+03  0.00000000000E+00 0. -1.
         -6    2    1    2    0  503  0.15805817053E+03  0.87870309624E+02 -0.18127452093E+03  0.30758714838E+03  0.17042835834E+03 0.  0.
        -24    2    3    3    0    0  0.40300892394E+02  0.23597049013E+02 -0.17459597768E+02  0.95796573439E+02  0.81799531041E+02 0.  0.
          6    2    1    2  501    0 -0.15805817053E+03 -0.87870309624E+02  0.71051083752E+02  0.25927060062E+03  0.17166657001E+03 0.  0.
         24    2    5    5    0    0 -0.32351725273E+02  0.12574303059E+02  0.38800699157E+02  0.95095669821E+02  0.79579802325E+02 0.  0.
          5    1    5    5  501    0 -0.12570644525E+03 -0.10044461268E+03  0.32250384596E+02  0.16417493080E+03  0.47000000000E+01 0. -1.
        -13    1    6    6    0    0 -0.30798597814E+01  0.38447017849E+02 -0.19809972859E+01  0.38621018475E+02  0.00000000000E+00 0.  1.
         14    1    6    6    0    0 -0.29271865492E+02 -0.25872714790E+02  0.40781696442E+02  0.56474651347E+02  0.00000000000E+00 0. -1.
         -5    1    3    3    0  503  0.11775727813E+03  0.64273260611E+02 -0.16381492316E+03  0.21179057494E+03  0.47000000000E+01 0.  1.
         11    1    4    4    0    0  0.41903127197E+02  0.35433489820E+02 -0.41600593305E+02  0.68862280190E+02  0.00000000000E+00 0. -1.
        -12    1    4    4    0    0 -0.16022348028E+01 -0.11836440806E+02  0.24140995536E+02  0.26934293249E+02  0.00000000000E+00 0.  1.
</event>
<event>
12    1  0.8113184E-002  0.2133640E+03  0.7818608E-02  0.1139043E+00
         21   -1    0    0  501  502  0.00000000000E+00  0.00000000000E+00  0.26168754573E+03  0.26168754573E+03  0.00000000000E+00 0.  1.
         21   -1    0    0  502  503 -0.00000000000E+00 -0.00000000000E+00 -0.29624931405E+03  0.29624931405E+03  0.00000000000E+00 0. -1.
         -6    2    1    2    0  503 -0.11997030758E+03  0.38056282464E+02 -0.19684615052E+03  0.28986891137E+03  0.17156463349E+03 0.  0.
        -24    2    3    3    0    0 -0.44315200882E+02  0.12943939928E+02 -0.18822608769E+03  0.20955253445E+03  0.79698318658E+02 0.  0.
          6    2    1    2  501    0  0.11997030758E+03 -0.38056282464E+02  0.16228438220E+03  0.26806794841E+03  0.17228769231E+03 0.  0.
         24    2    5    5    0    0  0.15302362633E+03 -0.40072094951E+02  0.14929447355E+03  0.23218740903E+03  0.81241307649E+02 0.  0.
          5    1    5    5  501    0 -0.33053318744E+02  0.20158124866E+01  0.12989908650E+02  0.35880539388E+02  0.47000000000E+01 0. -1.
        -13    1    6    6    0    0  0.68212885454E+02  0.67865108329E+01  0.10559504484E+03  0.12589427296E+03  0.00000000000E+00 0.  1.
         14    1    6    6    0    0  0.84810740875E+02 -0.46858605784E+02  0.43699428716E+02  0.10629313606E+03  0.00000000000E+00 0. -1.
         -5    1    3    3    0  503 -0.75655106703E+02  0.25112342536E+02 -0.86200628322E+01  0.80316376918E+02  0.47000000000E+01 0.  1.
         11    1    4    4    0    0 -0.24307990202E+02 -0.33481357967E+02 -0.91204568712E+02  0.10015065188E+03  0.00000000000E+00 0. -1.
        -12    1    4    4    0    0 -0.20007210679E+02  0.46425297895E+02 -0.97021518978E+02  0.10940188256E+03  0.00000000000E+00 0.  1.
</event>
<event>
12    1  0.8113184E-002  0.1724815E+03  0.7818608E-02  0.1175648E+00
         21   -1    0    0  501  502  0.00000000000E+00  0.00000000000E+00  0.68165230866E+03  0.68165230866E+03  0.00000000000E+00 0.  1.
         21   -1    0    0  502  503 -0.00000000000E+00 -0.00000000000E+00 -0.46881765055E+02  0.46881765055E+02  0.00000000000E+00 0.  1.
         -6    2    1    2    0  503 -0.39113046176E+01 -0.15809473912E+02  0.21772244837E+03  0.27776419413E+03  0.17171093515E+03 0.  0.
        -24    2    3    3    0    0  0.55319678374E+02 -0.37092969719E+02  0.16704426326E+03  0.19682183819E+03  0.79993092710E+02 0.  0.
          6    2    1    2  501    0  0.39113046176E+01  0.15809473912E+02  0.41704809523E+03  0.45076987958E+03  0.17029131754E+03 0.  0.
         24    2    5    5    0    0 -0.55427702298E+02 -0.23312803560E+02  0.29390517967E+03  0.30850977277E+03  0.71988250884E+02 0.  0.
          5    1    5    5  501    0  0.59339006916E+02  0.39122277472E+02  0.12314291556E+03  0.14226010681E+03  0.47000000000E+01 0. -1.
        -11    1    6    6    0    0  0.15912605789E+02 -0.10468967540E+02  0.37570358036E+02  0.42122940392E+02  0.00000000000E+00 0.  1.
         12    1    6    6    0    0 -0.71340308087E+02 -0.12843836021E+02  0.25633482164E+03  0.26638683238E+03  0.00000000000E+00 0. -1.
         -5    1    3    3    0  503 -0.59230982992E+02  0.21283495807E+02  0.50678185106E+02  0.80942355943E+02  0.47000000000E+01 0.  1.
         11    1    4    4    0    0  0.48984732252E+02 -0.23528520542E+02  0.36593238510E+02  0.65514581410E+02  0.00000000000E+00 0. -1.
        -12    1    4    4    0    0  0.63349461221E+01 -0.13564449177E+02  0.13045102475E+03  0.13130725678E+03  0.00000000000E+00 0.  1.
</event>
<event>
12    1  0.8113184E-002  0.2086729E+03  0.7818608E-02  0.1142768E+00
         21   -1    0    0  503  502  0.00000000000E+00  0.00000000000E+00  0.16590001052E+03  0.16590001052E+03  0.00000000000E+00 0. -1.
         21   -1    0    0  501  503 -0.00000000000E+00 -0.00000000000E+00 -0.48110521994E+03  0.48110521994E+03  0.00000000000E+00 0.  1.
          6    2    1    2  501    0 -0.67923153884E+02  0.92092409831E+02 -0.37629099869E+03  0.43027814385E+03  0.17449870657E+03 0.  0.
         24    2    3    3    0    0  0.48904688898E+01  0.87967051948E+02 -0.30783580253E+03  0.33014300455E+03  0.80432600508E+02 0.  0.
         -6    2    1    2    0  502  0.67923153884E+02 -0.92092409831E+02  0.61085789278E+02  0.21672708661E+03  0.17362197337E+03 0.  0.
        -24    2    5    5    0    0  0.20242519102E+02 -0.13168344725E+02  0.87642376931E+02  0.12065527319E+03  0.79330598328E+02 0.  0.
          5    1    3    3  501    0 -0.72813622774E+02  0.41253578832E+01 -0.68455196168E+02  0.10013513929E+03  0.47000000000E+01 0. -1.
        -11    1    4    4    0    0  0.22597633708E+02 -0.47064046412E+01 -0.86710040108E+02  0.89729785186E+02  0.00000000000E+00 0.  1.
         12    1    4    4    0    0 -0.17707164818E+02  0.92673456589E+02 -0.22112576242E+03  0.24041321937E+03  0.00000000000E+00 0. -1.
         -5    1    5    5    0  502  0.47680634782E+02 -0.78924065106E+02 -0.26556587653E+02  0.96071813420E+02  0.47000000000E+01 0.  1.
         11    1    6    6    0    0  0.47113882046E+02  0.49380033451E+01  0.35231215200E+02  0.59036770600E+02  0.00000000000E+00 0. -1.
        -12    1    6    6    0    0 -0.26871362944E+02 -0.18106348070E+02  0.52411161731E+02  0.61618502586E+02  0.00000000000E+00 0.  1.
</event>
<event>
12    1  0.8113184E-002  0.3455896E+03  0.7818608E-02  0.1064549E+00
         21   -1    0    0  501  502  0.00000000000E+00  0.00000000000E+00  0.33534095117E+03  0.33534095117E+03  0.00000000000E+00 0.  1.
         21   -1    0    0  502  503 -0.00000000000E+00 -0.00000000000E+00 -0.38597886344E+03  0.38597886344E+03  0.00000000000E+00 0.  1.
         -6    2    1    2    0  503  0.29824047634E+03  0.12298145587E+01 -0.12740421464E+03  0.36832591763E+03  0.17459454034E+03 0.  0.
        -24    2    3    3    0    0  0.15975092344E+03 -0.14404699147E+02 -0.14110243284E+03  0.22820623499E+03  0.80251705506E+02 0.  0.
          6    2    1    2  501    0 -0.29824047634E+03 -0.12298145587E+01  0.76766302359E+02  0.35299389698E+03  0.17251878724E+03 0.  0.
         24    2    5    5    0    0 -0.22120486153E+03 -0.52014130113E+02  0.93397003476E+02  0.25912056277E+03  0.82361430870E+02 0.  0.
          5    1    5    5  501    0 -0.77035614810E+02  0.50784315554E+02 -0.16630701117E+02  0.93873334207E+02  0.47000000000E+01 0. -1.
        -11    1    6    6    0    0 -0.16784871981E+03 -0.54847821518E+02  0.10359082337E+03  0.20472551124E+03  0.00000000000E+00 0.  1.
         12    1    6    6    0    0 -0.53356141722E+02  0.28336914055E+01 -0.10193819896E+02  0.54395051526E+02  0.00000000000E+00 0. -1.
         -5    1    3    3    0  503  0.13848955290E+03  0.15634513706E+02  0.13698218202E+02  0.14011968264E+03  0.47000000000E+01 0.  1.
         11    1    4    4    0    0  0.18795834523E+02 -0.11679152666E+02 -0.63570597641E+02  0.67312011461E+02  0.00000000000E+00 0. -1.
        -12    1    4    4    0    0  0.14095508892E+03 -0.27255464816E+01 -0.77531835198E+02  0.16089422353E+03  0.00000000000E+00 0.  1.
</event>
<event>
12    1  0.8113184E-002  0.1905817E+03  0.7818608E-02  0.1160609E+00
         21   -1    0    0  503  502  0.00000000000E+00  0.00000000000E+00  0.10002881312E+04  0.10002881312E+04  0.00000000000E+00 0. -1.
         21   -1    0    0  501  503 -0.00000000000E+00 -0.00000000000E+00 -0.58692978543E+02  0.58692978543E+02  0.00000000000E+00 0. -1.
          6    2    1    2  501    0  0.43911176231E+02  0.10112998841E+02  0.13703864470E+03  0.23473593279E+03  0.18517803287E+03 0.  0.
         24    2    3    3    0    0 -0.45977175715E+02  0.14057703198E+02  0.10199049348E+03  0.13806153384E+03  0.79670613524E+02 0.  0.
         -6    2    1    2    0  502 -0.43911176231E+02 -0.10112998841E+02  0.80455650794E+03  0.82424517694E+03  0.17331610743E+03 0.  0.
        -24    2    5    5    0    0 -0.57058484699E+02 -0.57446715962E+02  0.55109300627E+03  0.56602207732E+03  0.10060663301E+03 0.  0.
          5    1    3    3  501    0  0.89888351946E+02 -0.39447043564E+01  0.35048151218E+02  0.96674398947E+02  0.47000000000E+01 0. -1.
        -11    1    4    4    0    0 -0.45863698501E+02  0.46150158036E+01  0.12073822651E+02  0.47650334778E+02  0.00000000000E+00 0.  1.
         12    1    4    4    0    0 -0.11347721430E+00  0.94426873941E+01  0.89916670830E+02  0.90411199060E+02  0.00000000000E+00 0. -1.
         -5    1    5    5    0  502  0.13147308469E+02  0.47333717121E+02  0.25346350167E+03  0.25822309962E+03  0.47000000000E+01 0.  1.
         11    1    6    6    0    0 -0.39973650023E+02  0.11057132339E+02  0.84631688777E+02  0.94247947548E+02  0.00000000000E+00 0. -1.
        -12    1    6    6    0    0 -0.17084834676E+02 -0.68503848300E+02  0.46646131749E+03  0.47177412977E+03  0.00000000000E+00 0.  1.
</event>
<event>
12    1  0.8113184E-002  0.2383579E+03  0.7818608E-02  0.1121432E+00
         21   -1    0    0  503  502  0.00000000000E+00  0.00000000000E+00  0.12715877027E+03  0.12715877027E+03  0.00000000000E+00 0.  1.
         21   -1    0    0  501  503 -0.00000000000E+00 -0.00000000000E+00 -0.91462186068E+03  0.91462186068E+03  0.00000000000E+00 0.  1.
          6    2    1    2  501    0 -0.15508010801E+02 -0.16320920647E+03 -0.76990606800E+03  0.80595895848E+03  0.17302238505E+03 0.  0.
         24    2    3    3    0    0  0.21566170626E+02 -0.10194667696E+03 -0.67081340981E+03  0.68361094110E+03  0.80467778282E+02 0.  0.
         -6    2    1    2    0  502  0.15508010801E+02  0.16320920647E+03 -0.17557022413E+02  0.23582167247E+03  0.16859972922E+03 0.  0.
        -24    2    5    5    0    0  0.35726425439E+02  0.51391342592E+02 -0.51729870042E+02  0.11707028305E+03  0.84332817760E+02 0.  0.
          5    1    3    3  501    0 -0.37074181427E+02 -0.61262529510E+02 -0.99092658185E+02  0.12234801738E+03  0.47000000000E+01 0. -1.
        -13    1    4    4    0    0 -0.11345107801E+02 -0.27599478835E+02 -0.56088079374E+02  0.63532002572E+02  0.00000000000E+00 0.  1.
         14    1    4    4    0    0  0.32911278427E+02 -0.74347198128E+02 -0.61472533044E+03  0.62007893852E+03  0.00000000000E+00 0. -1.
         -5    1    5    5    0  502 -0.20218414638E+02  0.11181786388E+03  0.34172847629E+02  0.11875138942E+03  0.47000000000E+01 0.  1.
         13    1    6    6    0    0  0.18291448170E+02  0.72077473239E+02 -0.50692128705E+02  0.89996839596E+02  0.00000000000E+00 0. -1.
        -14    1    6    6    0    0  0.17434977269E+02 -0.20686130647E+02 -0.10377413375E+01  0.27073443456E+02  0.00000000000E+00 0.  1.
</event>
<event>
12    1  0.8113184E-002  0.2349446E+03  0.7818608E-02  0.1123757E+00
         21   -1    0    0  503  502  0.00000000000E+00  0.00000000000E+00  0.10626363919E+04  0.10626363919E+04  0.00000000000E+00 0. -1.
         21   -1    0    0  501  503 -0.00000000000E+00 -0.00000000000E+00 -0.30356868678E+03  0.30356868678E+03  0.00000000000E+00 0.  1.
          6    2    1    2  501    0  0.67388518378E+02  0.14513600914E+03 -0.24281155339E+03  0.33787038146E+03  0.17202694745E+03 0.  0.
         24    2    3    3    0    0  0.27898536173E+02  0.15302466703E+02 -0.37799956976E+02  0.91967855851E+02  0.77567750739E+02 0.  0.
         -6    2    1    2    0  502 -0.67388518378E+02 -0.14513600914E+03  0.10018792585E+04  0.10283346972E+04  0.16764404944E+03 0.  0.
        -24    2    5    5    0    0  0.32637278701E+01 -0.67863421846E+02  0.28637010457E+03  0.30519001459E+03  0.80728014142E+02 0.  0.
          5    1    3    3  501    0  0.39489982205E+02  0.12983354244E+03 -0.20501159642E+03  0.24590252561E+03  0.47000000000E+01 0. -1.
        -11    1    4    4    0    0 -0.22448625601E+01  0.37827982674E+02 -0.38920251157E+02  0.54321097478E+02  0.00000000000E+00 0.  1.
         12    1    4    4    0    0  0.30143398733E+02 -0.22525515971E+02  0.11202941811E+01  0.37646758373E+02  0.00000000000E+00 0. -1.
         -5    1    5    5    0  502 -0.70652246248E+02 -0.77272587294E+02  0.71550915393E+03  0.72314468262E+03  0.47000000000E+01 0.  1.
         11    1    6    6    0    0 -0.56761235377E+01 -0.33960318040E+02  0.25744341547E+03  0.25973569979E+03  0.00000000000E+00 0. -1.
        -12    1    6    6    0    0  0.89398514079E+01 -0.33903103806E+02  0.28926689105E+02  0.45454314794E+02  0.00000000000E+00 0.  1.
</event>
<event>
12    1  0.8113184E-002  0.2095393E+03  0.7818608E-02  0.1142338E+00
         21   -1    0    0  503  502  0.00000000000E+00  0.00000000000E+00  0.62965441283E+03  0.62965441283E+03  0.00000000000E+00 0. -1.
         21   -1    0    0  501  503 -0.00000000000E+00 -0.00000000000E+00 -0.10272418007E+03  0.10272418007E+03  0.00000000000E+00 0.  1.
          6    2    1    2  501    0  0.11459087331E+03 -0.22948825554E+02  0.54687771255E+02  0.21655825272E+03  0.17392241850E+03 0.  0.
         24    2    3    3    0    0  0.80059361031E+01  0.30094700054E+02  0.40362887394E+02  0.96553016395E+02  0.81997172585E+02 0.  0.
         -6    2    1    2    0  502 -0.11459087331E+03  0.22948825554E+02  0.47224246151E+03  0.51582034018E+03  0.17146417716E+03 0.  0.
        -24    2    5    5    0    0 -0.91260110905E+02  0.77332366857E+02  0.28041610400E+03  0.31501860843E+03  0.79339961349E+02 0.  0.
          5    1    3    3  501    0  0.10658493720E+03 -0.53043525608E+02  0.14324883861E+02  0.12000523632E+03  0.47000000000E+01 0. -1.
        -11    1    4    4    0    0  0.40746076373E+02  0.26253972244E+02  0.58448389545E+01  0.48822903855E+02  0.00000000000E+00 0.  1.
         12    1    4    4    0    0 -0.32740140270E+02  0.38407278105E+01  0.34518048440E+02  0.47730112541E+02  0.00000000000E+00 0. -1.
         -5    1    5    5    0  502 -0.23330762402E+02 -0.54383541303E+02  0.19182635751E+03  0.20080173175E+03  0.47000000000E+01 0.  1.
         13    1    6    6    0    0 -0.53481717785E+02 -0.41371181879E+01  0.11046447756E+03  0.12279988065E+03  0.00000000000E+00 0. -1.
        -14    1    6    6    0    0 -0.37778393120E+02  0.81469485045E+02  0.16995162644E+03  0.19221872778E+03  0.00000000000E+00 0.  1.
</event>
<event>
12    1  0.8113184E-002  0.1953773E+03  0.7818608E-02  0.1153828E+00
         21   -1    0    0  501  502  0.00000000000E+00  0.00000000000E+00  0.76429014681E+03  0.76429014681E+03  0.00000000000E+00 0. -1.
         21   -1    0    0  502  503 -0.00000000000E+00 -0.00000000000E+00 -0.15378623983E+03  0.15378623983E+03  0.00000000000E+00 0. -1.
         -6    2    1    2    0  503  0.83779752325E+02 -0.42590084346E+02 -0.72076187844E+02  0.20824809368E+03  0.17128727180E+03 0.  0.
        -24    2    3    3    0    0  0.44928651147E+02 -0.10404183301E+01 -0.10591664772E+03  0.14189261513E+03  0.83039218431E+02 0.  0.
          6    2    1    2  501    0 -0.83779752325E+02  0.42590084346E+02  0.68258009483E+03  0.70982829296E+03  0.17060966399E+03 0.  0.
         24    2    5    5    0    0 -0.12440659834E+03  0.40202619499E+02  0.56575805508E+03  0.58603120263E+03  0.79102093742E+02 0.  0.
          5    1    5    5  501    0  0.40626846012E+02  0.23874648472E+01  0.11682203974E+03  0.12379709033E+03  0.47000000000E+01 0. -1.
        -13    1    6    6    0    0  0.67568753675E+00 -0.12771297873E+02  0.10169284772E+03  0.10249389192E+03  0.00000000000E+00 0.  1.
         14    1    6    6    0    0 -0.12508228587E+03  0.52973917372E+02  0.46406520736E+03  0.48353731070E+03  0.00000000000E+00 0. -1.
         -5    1    3    3    0  503  0.38851101177E+02 -0.41549666016E+02  0.33840459881E+02  0.66355478550E+02  0.47000000000E+01 0.  1.
         13    1    4    4    0    0  0.91314261421E+01  0.31150909931E+02 -0.90142535707E+01  0.33690041561E+02  0.00000000000E+00 0. -1.
        -14    1    4    4    0    0  0.35797225005E+02 -0.32191328261E+02 -0.96902394154E+02  0.10820257356E+03  0.00000000000E+00 0.  1.
</event>
<event>
12    1  0.8113184E-002  0.2308271E+03  0.7818608E-02  0.1126187E+00
         21   -1    0    0  503  502  0.00000000000E+00  0.00000000000E+00  0.31387803955E+03  0.31387803955E+03  0.00000000000E+00 0.  1.
         21   -1    0    0  501  503 -0.00000000000E+00 -0.00000000000E+00 -0.17530715388E+03  0.17530715388E+03  0.00000000000E+00 0. -1.
          6    2    1    2  501    0  0.12245615776E+03 -0.92010495505E+02  0.11498260302E+03  0.25788006351E+03  0.17268377545E+03 0.  0.
         24    2    3    3    0    0  0.98829172782E+02 -0.45955253921E+02  0.14381135792E+03  0.19844516799E+03  0.82581397878E+02 0.  0.
         -6    2    1    2    0  502 -0.12245615776E+03  0.92010495505E+02  0.23588282652E+02  0.23130512992E+03  0.17170967996E+03 0.  0.
        -24    2    5    5    0    0 -0.10619962126E+02  0.77158834597E+02 -0.14382343818E+02  0.11217593551E+03  0.79437518475E+02 0.  0.
          5    1    3    3  501    0  0.23626984979E+02 -0.46055241584E+02 -0.28828754902E+02  0.59434895523E+02  0.47000000000E+01 0. -1.
        -11    1    4    4    0    0 -0.69880743439E+01  0.12779081414E+02  0.83248012616E+01  0.16776186124E+02  0.00000000000E+00 0.  1.
         12    1    4    4    0    0  0.10581724713E+03 -0.58734335335E+02  0.13548655666E+03  0.18166898187E+03  0.00000000000E+00 0. -1.
         -5    1    5    5    0  502 -0.11183619563E+03  0.14851660908E+02  0.37970626470E+02  0.11912919441E+03  0.47000000000E+01 0.  1.
         13    1    6    6    0    0  0.22609237174E+01  0.79652024257E+02  0.14003030340E+02  0.80905139534E+02  0.00000000000E+00 0. -1.
        -14    1    6    6    0    0 -0.12880885843E+02 -0.24931896601E+01 -0.28385374158E+02  0.31270795974E+02  0.00000000000E+00 0.  1.
</event>
<event>
12    1  0.8113184E-002  0.2353958E+03  0.7818608E-02  0.1123119E+00
         21   -1    0    0  503  502  0.00000000000E+00  0.00000000000E+00  0.23808503268E+03  0.23808503268E+03  0.00000000000E+00 0.  1.
         21   -1    0    0  501  503 -0.00000000000E+00 -0.00000000000E+00 -0.24316756156E+03  0.24316756156E+03  0.00000000000E+00 0.  1.
          6    2    1    2  501    0  0.66048413148E+02 -0.14678361286E+03  0.50254811875E+02  0.23943988777E+03  0.16999438771E+03 0.  0.
         24    2    3    3    0    0  0.78079844905E+02 -0.15673431459E+03  0.68308464296E+01  0.19305559528E+03  0.81004289111E+02 0.  0.
         -6    2    1    2    0  502 -0.66048413148E+02  0.14678361286E+03 -0.55337340751E+02  0.24181270647E+03  0.17176536859E+03 0.  0.
        -24    2    5    5    0    0 -0.67790769160E+02  0.47421412316E+02 -0.82500454197E+02  0.13868265540E+03  0.74713956111E+02 0.  0.
          5    1    3    3  501    0 -0.12031431758E+02  0.99507017286E+01  0.43423965446E+02  0.46384292493E+02  0.47000000000E+01 0. -1.
        -11    1    4    4    0    0  0.30863635496E+01 -0.56408230146E+02 -0.27992930880E+02  0.63047745776E+02  0.00000000000E+00 0.  1.
         12    1    4    4    0    0  0.74993481356E+02 -0.10032608444E+03  0.34823777310E+02  0.13000784950E+03  0.00000000000E+00 0. -1.
         -5    1    5    5    0  502  0.17423560118E+01  0.99362200544E+02  0.27163113446E+02  0.10313005107E+03  0.47000000000E+01 0.  1.
         13    1    6    6    0    0 -0.16431529826E+02 -0.94159622866E+01  0.76110104745E+01  0.20410364981E+02  0.00000000000E+00 0. -1.
        -14    1    6    6    0    0 -0.51359239334E+02  0.56837374603E+02 -0.90111464671E+02  0.11827229042E+03  0.00000000000E+00 0.  1.
</event>
<event>
12    1  0.8113184E-002  0.3814538E+03  0.7818608E-02  0.1050421E+00
         21   -1    0    0  503  502  0.00000000000E+00  0.00000000000E+00  0.45494355877E+03  0.45494355877E+03  0.00000000000E+00 0.  1.
         21   -1    0    0  501  503 -0.00000000000E+00 -0.00000000000E+00 -0.36275583708E+03  0.36275583708E+03  0.00000000000E+00 0. -1.
          6    2    1    2  501    0 -0.34014512787E+03  0.14124387426E+02 -0.94901471007E+02  0.39283547753E+03  0.17150864957E+03 0.  0.
         24    2    3    3    0    0 -0.28490630762E+03  0.42082395416E+00 -0.17390711596E+02  0.29655919417E+03  0.80455811366E+02 0.  0.
         -6    2    1    2    0  502  0.34014512787E+03 -0.14124387426E+02  0.18708919271E+03  0.42486391832E+03  0.17207201029E+03 0.  0.
        -24    2    5    5    0    0  0.15425794682E+03 -0.65934084925E+02  0.56708146226E+02  0.19192702532E+03  0.74009131128E+02 0.  0.
          5    1    3    3  501    0 -0.55238820253E+02  0.13703563472E+02 -0.77510759411E+02  0.96276283369E+02  0.47000000000E+01 0. -1.
        -13    1    4    4    0    0 -0.10740169549E+03 -0.25522139228E+02  0.22798331941E+02  0.11272208179E+03  0.00000000000E+00 0.  1.
         14    1    4    4    0    0 -0.17750461213E+03  0.25942963182E+02 -0.40189043537E+02  0.18383711237E+03  0.00000000000E+00 0. -1.
         -5    1    5    5    0  502  0.18588718105E+03  0.51809697499E+02  0.13038104648E+03  0.23293689299E+03  0.47000000000E+01 0.  1.
         11    1    6    6    0    0  0.73738886962E+02  0.52292379337E+01  0.94158243518E+01  0.74521313246E+02  0.00000000000E+00 0. -1.
        -12    1    6    6    0    0  0.80519059853E+02 -0.71163322859E+02  0.47292321874E+02  0.11740571208E+03  0.00000000000E+00 0.  1.
</event>
<event>
12    1  0.8113184E-002  0.3143932E+03  0.7818608E-02  0.1078484E+00
         21   -1    0    0  501  502  0.00000000000E+00  0.00000000000E+00  0.59523785641E+03  0.59523785641E+03  0.00000000000E+00 0. -1.
         21   -1    0    0  502  503 -0.00000000000E+00 -0.00000000000E+00 -0.29303059990E+03  0.29303059990E+03  0.00000000000E+00 0.  1.
         -6    2    1    2    0  503 -0.15974267259E+03 -0.20623670756E+03 -0.14266577903E+03  0.34351614595E+03  0.17204219549E+03 0.  0.
        -24    2    3    3    0    0 -0.38134653431E+02 -0.41241072807E+02 -0.69454719255E+01  0.97641865932E+02  0.79565171550E+02 0.  0.
          6    2    1    2  501    0  0.15974267259E+03  0.20623670756E+03  0.44487303555E+03  0.54475231036E+03  0.17547581283E+03 0.  0.
         24    2    5    5    0    0  0.18839600649E+03  0.19607138523E+03  0.38160650187E+03  0.47440252994E+03  0.74143069648E+02 0.  0.
          5    1    5    5  501    0 -0.28653333895E+02  0.10165322336E+02  0.63266533685E+02  0.70349780426E+02  0.47000000000E+01 0. -1.
        -11    1    6    6    0    0 -0.61328201250E+01  0.14040199205E+02  0.23817519520E+02  0.28319832494E+02  0.00000000000E+00 0.  1.
         12    1    6    6    0    0  0.19452882661E+03  0.18203118602E+03  0.35778898235E+03  0.44608269744E+03  0.00000000000E+00 0. -1.
         -5    1    3    3    0  503 -0.12160801916E+03 -0.16499563476E+03 -0.13572030711E+03  0.24587428002E+03  0.47000000000E+01 0.  1.
         13    1    4    4    0    0 -0.59371149088E+02 -0.30474705105E+02  0.11247897355E+02  0.67676851214E+02  0.00000000000E+00 0. -1.
        -14    1    4    4    0    0  0.21236495657E+02 -0.10766367702E+02 -0.18193369281E+02  0.29965014718E+02  0.00000000000E+00 0.  1.
</event>
<event>
12    1  0.8113184E-002  0.1916209E+03  0.7818608E-02  0.1157646E+00
         21   -1    0    0  503  502  0.00000000000E+00  0.00000000000E+00  0.24769416513E+03  0.24769416513E+03  0.00000000000E+00 0.  1.
         21   -1    0    0  501  503 -0.00000000000E+00 -0.00000000000E+00 -0.21592786829E+03  0.21592786829E+03  0.00000000000E+00 0. -1.
          6    2    1    2  501    0 -0.83179536954E+02  0.85643605169E+01 -0.11590440077E+03  0.22394728527E+03  0.17241337774E+03 0.  0.
         24    2    3    3    0    0 -0.44340977382E+02  0.19601621752E+02 -0.14613743140E+03  0.17328782430E+03  0.79512108157E+02 0.  0.
         -6    2    1    2    0  502  0.83179536954E+02 -0.85643605169E+01  0.14767069761E+03  0.23967474815E+03  0.16924882962E+03 0.  0.
        -24    2    5    5    0    0 -0.64401942024E+01 -0.38019707790E+02  0.43088611510E+02  0.98753435249E+02  0.80053970856E+02 0.  0.
          5    1    3    3  501    0 -0.38838559572E+02 -0.11037261236E+02  0.30233030628E+02  0.50659460974E+02  0.47000000000E+01 0. -1.
        -13    1    4    4    0    0 -0.52219645230E+01  0.26255133479E+02 -0.57231350744E+01  0.27374353372E+02  0.00000000000E+00 0.  1.
         14    1    4    4    0    0 -0.39119012859E+02 -0.66535117265E+01 -0.14041429632E+03  0.14591347092E+03  0.00000000000E+00 0. -1.
         -5    1    5    5    0  502  0.89619731156E+02  0.29455347273E+02  0.10458208610E+03  0.14092131290E+03  0.47000000000E+01 0.  1.
         13    1    6    6    0    0 -0.11352434527E+02  0.13179167460E+02 -0.13694937205E+02  0.22138643357E+02  0.00000000000E+00 0. -1.
        -14    1    6    6    0    0  0.49122403245E+01 -0.51198875250E+02  0.56783548716E+02  0.76614791892E+02  0.00000000000E+00 0.  1.
</event>
<event>
12    1  0.8113184E-002  0.2288705E+03  0.7818608E-02  0.1127511E+00
         21   -1    0    0  503  502  0.00000000000E+00  0.00000000000E+00  0.26034587837E+03  0.26034587837E+03  0.00000000000E+00 0.  1.
         21   -1    0    0  501  503 -0.00000000000E+00 -0.00000000000E+00 -0.25677634248E+03  0.25677634248E+03  0.00000000000E+00 0. -1.
          6    2    1    2  501    0 -0.27743024603E+02 -0.14809210238E+03 -0.11889913185E+03  0.25754507495E+03  0.17173094035E+03 0.  0.
         24    2    3    3    0    0 -0.58411832594E+02 -0.13265123516E+03 -0.13961746616E+03  0.21716766121E+03  0.81611664855E+02 0.  0.
         -6    2    1    2    0  502  0.27743024603E+02  0.14809210238E+03  0.12246866774E+03  0.25957714590E+03  0.17228108977E+03 0.  0.
        -24    2    5    5    0    0  0.24890857704E+02  0.12902774475E+03  0.15644999287E+03  0.22022736769E+03  0.82193549005E+02 0.  0.
          5    1    3    3  501    0  0.30668807991E+02 -0.15440867218E+02  0.20718334306E+02  0.40377413742E+02  0.47000000000E+01 0. -1.
        -11    1    4    4    0    0 -0.78157486556E+01 -0.10767815802E+03 -0.10696294725E+03  0.15197612881E+03  0.00000000000E+00 0.  1.
         12    1    4    4    0    0 -0.50596083938E+02 -0.24973077140E+02 -0.32654518909E+02  0.65191532402E+02  0.00000000000E+00 0. -1.
         -5    1    5    5    0  502  0.28521668987E+01  0.19064357636E+02 -0.33981325124E+02  0.39349778211E+02  0.47000000000E+01 0.  1.
         11    1    6    6    0    0  0.27075977144E+02  0.50987288523E+02  0.12184721678E+03  0.13483158519E+03  0.00000000000E+00 0. -1.
        -12    1    6    6    0    0 -0.21851194401E+01  0.78040456223E+02  0.34602776090E+02  0.85395782493E+02  0.00000000000E+00 0.  1.
</event>
<event>
12    1  0.8113184E-002  0.2658852E+03  0.7818608E-02  0.1103745E+00
         21   -1    0    0  501  502  0.00000000000E+00  0.00000000000E+00  0.86849767604E+03  0.86849767604E+03  0.00000000000E+00 0.  1.
         21   -1    0    0  502  503 -0.00000000000E+00 -0.00000000000E+00 -0.98889977547E+02  0.98889977547E+02  0.00000000000E+00 0. -1.
         -6    2    1    2    0  503  0.13913852564E+02 -0.20213604877E+03  0.18067631664E+03  0.32146361147E+03  0.17216952286E+03 0.  0.
        -24    2    3    3    0    0 -0.46734104162E+02 -0.76643057115E+02  0.10918858246E+03  0.16474969458E+03  0.84629076731E+02 0.  0.
          6    2    1    2  501    0 -0.13913852564E+02  0.20213604877E+03  0.58893138185E+03  0.64592404212E+03  0.17124578286E+03 0.  0.
         24    2    5    5    0    0  0.36042583262E+02  0.13023241600E+03  0.24322530851E+03  0.28927217120E+03  0.79121983942E+02 0.  0.
          5    1    5    5  501    0 -0.49956435826E+02  0.71903632767E+02  0.34570607334E+03  0.35665187092E+03  0.47000000000E+01 0. -1.
        -13    1    6    6    0    0 -0.21034819601E+02  0.67671954810E+02  0.12750243260E+03  0.14587264110E+03  0.00000000000E+00 0.  1.
         14    1    6    6    0    0  0.57077402863E+02  0.62560461193E+02  0.11572287592E+03  0.14339953010E+03  0.00000000000E+00 0. -1.
         -5    1    3    3    0  503  0.60647956726E+02 -0.12549299165E+03  0.71487734179E+02  0.15671391689E+03  0.47000000000E+01 0.  1.
         13    1    4    4    0    0 -0.18528176942E+02 -0.54957471613E+02  0.93301348072E+01  0.58742390506E+02  0.00000000000E+00 0. -1.
        -14    1    4    4    0    0 -0.28205927220E+02 -0.21685585503E+02  0.99858447657E+02  0.10600730408E+03  0.00000000000E+00 0.  1.
</event>
<event>
12    1  0.8113184E-002  0.2078363E+03  0.7818608E-02  0.1143458E+00
         21   -1    0    0  501  502  0.00000000000E+00  0.00000000000E+00  0.26875369670E+03  0.26875369670E+03  0.00000000000E+00 0.  1.
         21   -1    0    0  502  503 -0.00000000000E+00 -0.00000000000E+00 -0.16015550720E+03  0.16015550720E+03  0.00000000000E+00 0.  1.
         -6    2    1    2    0  503  0.95596357021E+02  0.66506334152E+02  0.49954470620E+02  0.21375536927E+03  0.17214573128E+03 0.  0.
        -24    2    3    3    0    0  0.18292633824E+02  0.68091656537E+02 -0.21242818616E+02  0.10854356926E+03  0.79745563776E+02 0.  0.
          6    2    1    2  501    0 -0.95596357021E+02 -0.66506334152E+02  0.58643718882E+02  0.21515383464E+03  0.17114418143E+03 0.  0.
         24    2    5    5    0    0 -0.46975703649E+02 -0.51477251147E+02 -0.33510880925E+02  0.10977641041E+03  0.77918271440E+02 0.  0.
          5    1    5    5  501    0 -0.48620653372E+02 -0.15029083005E+02  0.92154599807E+02  0.10537742422E+03  0.47000000000E+01 0. -1.
        -13    1    6    6    0    0  0.12442268408E+02  0.11846244242E+02 -0.15634191209E+01  0.17250734047E+02  0.00000000000E+00 0.  1.
         14    1    6    6    0    0 -0.59417972057E+02 -0.63323495389E+02 -0.31947461804E+02  0.92525676368E+02  0.00000000000E+00 0. -1.
         -5    1    3    3    0  503  0.77303723197E+02 -0.15853223848E+01  0.71197289236E+02  0.10521180001E+03  0.47000000000E+01 0.  1.
         11    1    4    4    0    0 -0.26333438282E+02  0.13967998527E+02  0.10423526609E+02  0.31578550657E+02  0.00000000000E+00 0. -1.
        -12    1    4    4    0    0  0.44626072106E+02  0.54123658010E+02 -0.31666345225E+02  0.76965018598E+02  0.00000000000E+00 0.  1.
</event>
<event>
12    1  0.8113184E-002  0.1958489E+03  0.7818608E-02  0.1153356E+00
         21   -1    0    0  501  502  0.00000000000E+00  0.00000000000E+00  0.25671285031E+03  0.25671285031E+03  0.00000000000E+00 0.  1.
         21   -1    0    0  502  503 -0.00000000000E+00 -0.00000000000E+00 -0.27585895353E+03  0.27585895353E+03  0.00000000000E+00 0.  1.
         -6    2    1    2    0  503  0.54137066815E+02  0.75445072924E+02 -0.19002704713E+03  0.27288652730E+03  0.17243548680E+03 0.  0.
        -24    2    3    3    0    0 -0.32747211344E+02  0.48268835739E+02 -0.12168639265E+03  0.15895689677E+03  0.84008669309E+02 0.  0.
          6    2    1    2  501    0 -0.54137066815E+02 -0.75445072924E+02  0.17088094391E+03  0.25968527654E+03  0.17208534170E+03 0.  0.
         24    2    5    5    0    0  0.19963832167E+02 -0.15082723013E+02  0.13147131603E+03  0.15619728068E+03  0.80540923917E+02 0.  0.
          5    1    5    5  501    0 -0.74100898983E+02 -0.60362349911E+02  0.39409627885E+02  0.10348799586E+03  0.47000000000E+01 0. -1.
        -11    1    6    6    0    0 -0.16471190659E+01 -0.30381607121E+02  0.12539147480E+03  0.12903013991E+03  0.00000000000E+00 0.  1.
         12    1    6    6    0    0  0.21610951233E+02  0.15298884108E+02  0.60798412239E+01  0.27167140767E+02  0.00000000000E+00 0. -1.
         -5    1    3    3    0  503  0.86884278160E+02  0.27176237185E+02 -0.68340654483E+02  0.11392963054E+03  0.47000000000E+01 0.  1.
         11    1    4    4    0    0 -0.10665375979E+02  0.15894508140E+02  0.99769892755E+01  0.21585317899E+02  0.00000000000E+00 0. -1.
        -12    1    4    4    0    0 -0.22081835365E+02  0.32374327599E+02 -0.13166338193E+03  0.13737157887E+03  0.00000000000E+00 0.  1.
</event>
<event>
12    1  0.8113184E-002  0.1897174E+03  0.7818608E-02  0.1159312E+00
         21   -1    0    0  503  502  0.00000000000E+00  0.00000000000E+00  0.28112843541E+03  0.28112843541E+03  0.00000000000E+00 0. -1.
         21   -1    0    0  501  503 -0.00000000000E+00 -0.00000000000E+00 -0.13732548081E+03  0.13732548081E+03  0.00000000000E+00 0. -1.
          6    2    1    2  501    0 -0.22154265239E+01 -0.80566103852E+02  0.12080805358E+02  0.18749198252E+03  0.16885346442E+03 0.  0.
         24    2    3    3    0    0  0.48209678886E+02 -0.29039657089E+02 -0.31988225696E+02  0.10286435423E+03  0.79939689559E+02 0.  0.
         -6    2    1    2    0  502  0.22154265239E+01  0.80566103852E+02  0.13172214923E+03  0.23096193370E+03  0.17174657206E+03 0.  0.
        -24    2    5    5    0    0  0.54437294930E+02  0.26737352641E+02  0.11787890970E+03  0.15455261962E+03  0.79452940624E+02 0.  0.
          5    1    3    3  501    0 -0.50425105410E+02 -0.51526446763E+02  0.44069031054E+02  0.84627628288E+02  0.47000000000E+01 0. -1.
        -11    1    4    4    0    0  0.20312578037E+02  0.18119281094E+02  0.14649072391E+02  0.30911235753E+02  0.00000000000E+00 0.  1.
         12    1    4    4    0    0  0.27897100849E+02 -0.47158938183E+02 -0.46637298087E+02  0.71953118482E+02  0.00000000000E+00 0. -1.
         -5    1    5    5    0  502 -0.52221868406E+02  0.53828751211E+02  0.13843239535E+02  0.76409314076E+02  0.47000000000E+01 0.  1.
         11    1    6    6    0    0  0.33589162933E+01  0.23061229380E+02  0.96131082129E+02  0.98915557778E+02  0.00000000000E+00 0. -1.
        -12    1    6    6    0    0  0.51078378637E+02  0.36761232610E+01  0.21747827570E+02  0.55637061842E+02  0.00000000000E+00 0.  1.
</event>
<event>
12    1  0.8113184E-002  0.1996837E+03  0.7818608E-02  0.1150015E+00
         21   -1    0    0  501  502  0.00000000000E+00  0.00000000000E+00  0.78657284563E+03  0.78657284563E+03  0.00000000000E+00 0. -1.
         21   -1    0    0  502  503 -0.00000000000E+00 -0.00000000000E+00 -0.71537589424E+02  0.71537589424E+02  0.00000000000E+00 0.  1.
         -6    2    1    2    0  503 -0.42177828297E+02  0.93026315421E+02  0.12582878315E+03  0.23598677853E+03  0.17153428931E+03 0.  0.
        -24    2    3    3    0    0 -0.25977000690E+02  0.11452850646E+03  0.43681454603E+02  0.14941262174E+03  0.81390900615E+02 0.  0.
          6    2    1    2  501    0  0.42177828297E+02 -0.93026315421E+02  0.58920647306E+03  0.62212365653E+03  0.17158295825E+03 0.  0.
         24    2    5    5    0    0 -0.19993025820E+02  0.34790418223E+01  0.22948294889E+03  0.24449738239E+03  0.81882362895E+02 0.  0.
          5    1    5    5  501    0  0.62170854118E+02 -0.96505357244E+02  0.35972352417E+03  0.37762627414E+03  0.47000000000E+01 0. -1.
        -11    1    6    6    0    0 -0.25700829895E+02  0.27206419420E+02  0.20989142021E+03  0.21320208768E+03  0.00000000000E+00 0.  1.
         12    1    6    6    0    0  0.57078040744E+01 -0.23727377597E+02  0.19591528678E+02  0.31295294709E+02  0.00000000000E+00 0. -1.
         -5    1    3    3    0  503 -0.16200827608E+02 -0.21502191041E+02  0.82147328548E+02  0.86574156781E+02  0.47000000000E+01 0.  1.
         11    1    4    4    0    0 -0.19500006923E+02  0.10132989729E+03  0.66142489871E+02  0.12256764386E+03  0.00000000000E+00 0. -1.
        -12    1    4    4    0    0 -0.64769937670E+01  0.13198609171E+02 -0.22461035268E+02  0.26844977885E+02  0.00000000000E+00 0.  1.
</event>
<event>
12    1  0.8113184E-002  0.2262220E+03  0.7818608E-02  0.1129711E+00
         21   -1    0    0  503  502  0.00000000000E+00  0.00000000000E+00  0.64438071389E+03  0.64438071389E+03  0.00000000000E+00 0. -1.
         21   -1    0    0  501  503 -0.00000000000E+00 -0.00000000000E+00 -0.15951449214E+03  0.15951449214E+03  0.00000000000E+00 0. -1.
          6    2    1    2  501    0 -0.27688574436E+02 -0.14313669468E+03 -0.44266647114E+02  0.22843191695E+03  0.17019645741E+03 0.  0.
         24    2    3    3    0    0  0.49198450578E+01 -0.10194657847E+03 -0.90235258816E+02  0.15846665444E+03  0.80944233273E+02 0.  0.
         -6    2    1    2    0  502  0.27688574436E+02  0.14313669468E+03  0.52913286886E+03  0.57546328909E+03  0.17297870867E+03 0.  0.
        -24    2    5    5    0    0  0.13037315822E+02  0.13604769984E+03  0.53457988815E+03  0.55766797381E+03  0.80863860678E+02 0.  0.
          5    1    3    3  501    0 -0.32608419494E+02 -0.41190116214E+02  0.45968611703E+02  0.69965262506E+02  0.47000000000E+01 0. -1.
        -13    1    4    4    0    0  0.98084275455E+01  0.65749802058E+01  0.60837833022E+01  0.13283374379E+02  0.00000000000E+00 0.  1.
         14    1    4    4    0    0 -0.48885824877E+01 -0.10852155867E+03 -0.96319042119E+02  0.14518328006E+03  0.00000000000E+00 0. -1.
         -5    1    5    5    0  502  0.14651258615E+02  0.70889948450E+01 -0.54470192804E+01  0.17795315281E+02  0.47000000000E+01 0.  1.
         11    1    6    6    0    0  0.90471168668E+01  0.99168774351E+02  0.22728899002E+03  0.24814628974E+03  0.00000000000E+00 0. -1.
        -12    1    6    6    0    0  0.39901989548E+01  0.36878925487E+02  0.30729089813E+03  0.30952168406E+03  0.00000000000E+00 0.  1.
</event>
<event>
12    1  0.8113184E-002  0.2257850E+03  0.7818608E-02  0.1131817E+00
         21   -1    0    0  503  502  0.00000000000E+00  0.00000000000E+00  0.11689836038E+03  0.11689836038E+03  0.00000000000E+00 0. -1.
         21   -1    0    0  501  503 -0.00000000000E+00 -0.00000000000E+00 -0.43305394829E+03  0.43305394829E+03  0.00000000000E+00 0.  1.
          6    2    1    2  501    0 -0.52545899605E+02 -0.11989517956E+03 -0.10404970685E+03  0.24860649452E+03  0.18396445846E+03 0.  0.
         24    2    3    3    0    0 -0.45878329569E+02 -0.15956509125E+03 -0.95397102639E+02  0.20719253621E+03  0.79134697820E+02 0.  0.
         -6    2    1    2    0  502  0.52545899605E+02  0.11989517956E+03 -0.21210588105E+03  0.30134581415E+03  0.16936489979E+03 0.  0.
        -24    2    5    5    0    0  0.24740794409E+02  0.11482911910E+03 -0.22771090213E+03  0.26872073903E+03  0.80998439108E+02 0.  0.
          5    1    3    3  501    0 -0.66675700363E+01  0.39669911690E+02 -0.86526042115E+01  0.41413958315E+02  0.47000000000E+01 0. -1.
        -13    1    4    4    0    0  0.60582595031E+01 -0.47483468219E+02  0.48369781573E+01  0.48112146283E+02  0.00000000000E+00 0.  1.
         14    1    4    4    0    0 -0.51936589072E+02 -0.11208162303E+03 -0.10023408080E+03  0.15908038992E+03  0.00000000000E+00 0. -1.
         -5    1    5    5    0  502  0.27805105196E+02  0.50660604610E+01  0.15605021076E+02  0.32625075116E+02  0.47000000000E+01 0.  1.
         11    1    6    6    0    0  0.12559261063E+02 -0.37317831830E+01 -0.17030533716E+01  0.13212177525E+02  0.00000000000E+00 0. -1.
        -12    1    6    6    0    0  0.12181533346E+02  0.11856090228E+03 -0.22600784876E+03  0.25550856151E+03  0.00000000000E+00 0.  1.
</event>
<event>
12    1  0.8113184E-002  0.2556996E+03  0.7818608E-02  0.1109803E+00
         21   -1    0    0  501  502  0.00000000000E+00  0.00000000000E+00  0.48846901881E+03  0.48846901881E+03  0.00000000000E+00 0.  1.
         21   -1    0    0  502  503 -0.00000000000E+00 -0.00000000000E+00 -0.13613018365E+03  0.13613018365E+03  0.00000000000E+00 0. -1.
         -6    2    1    2    0  503 -0.14454863353E+03  0.12088190884E+03  0.21788972480E+03  0.33570675825E+03  0.17238431490E+03 0.  0.
        -24    2    3    3    0    0 -0.85893360379E+01  0.72451720662E+02  0.10965315146E+03  0.15524163833E+03  0.82177394243E+02 0.  0.
          6    2    1    2  501    0  0.14454863353E+03 -0.12088190884E+03  0.13444911036E+03  0.28889244422E+03  0.17284541565E+03 0.  0.
         24    2    5    5    0    0  0.40941193550E+02 -0.98163674854E+02  0.12480716179E+03  0.18228251529E+03  0.79610296801E+02 0.  0.
          5    1    5    5  501    0  0.10360743998E+03 -0.22718233982E+02  0.96419485702E+01  0.10660992893E+03  0.47000000000E+01 0. -1.
        -13    1    6    6    0    0  0.32186687034E+02 -0.10928793599E+03  0.91607551746E+02  0.14619090024E+03  0.00000000000E+00 0.  1.
         14    1    6    6    0    0  0.87545065158E+01  0.11124261137E+02  0.33199610039E+02  0.36091615050E+02  0.00000000000E+00 0. -1.
         -5    1    3    3    0  503 -0.13595929749E+03  0.48430188173E+02  0.10823657334E+03  0.18046511992E+03  0.47000000000E+01 0.  1.
         11    1    4    4    0    0 -0.36742574238E+02  0.72527025951E+02  0.75198723915E+02  0.11074761547E+03  0.00000000000E+00 0. -1.
        -12    1    4    4    0    0  0.28153238200E+02 -0.75305288497E-01  0.34454427546E+02  0.44494022852E+02  0.00000000000E+00 0.  1.
</event>
<event>
12    1  0.8113184E-002  0.2232079E+03  0.7818608E-02  0.1132368E+00
         21   -1    0    0  503  502  0.00000000000E+00  0.00000000000E+00  0.22295548010E+03  0.22295548010E+03  0.00000000000E+00 0.  1.
         21   -1    0    0  501  503 -0.00000000000E+00 -0.00000000000E+00 -0.26988027626E+03  0.26988027626E+03  0.00000000000E+00 0.  1.
          6    2    1    2  501    0  0.12295120832E+03 -0.56356417310E+02 -0.13079823271E+03  0.25870819367E+03  0.17756324617E+03 0.  0.
         24    2    3    3    0    0  0.11267440112E+03 -0.91683357232E+02 -0.14283017302E+03  0.21971507840E+03  0.82297622634E+02 0.  0.
         -6    2    1    2    0  502 -0.12295120832E+03  0.56356417310E+02  0.83873436544E+02  0.23412756269E+03  0.17172046136E+03 0.  0.
        -24    2    5    5    0    0 -0.14761877003E+03  0.45094427017E+02  0.35568646496E+02  0.17853292475E+03  0.82365453874E+02 0.  0.
          5    1    3    3  501    0  0.10276807207E+02  0.35326939921E+02  0.12031940315E+02  0.38993115268E+02  0.47000000000E+01 0. -1.
        -11    1    4    4    0    0 -0.68956145928E+01  0.62178404167E+01 -0.44453612889E-02  0.92849911051E+01  0.00000000000E+00 0.  1.
         12    1    4    4    0    0  0.11957001571E+03 -0.97901197648E+02 -0.14282572766E+03  0.21043008730E+03  0.00000000000E+00 0. -1.
         -5    1    5    5    0  502  0.24667561708E+02  0.11261990293E+02  0.48304790047E+02  0.55594637938E+02  0.47000000000E+01 0.  1.
         11    1    6    6    0    0 -0.50142527509E+02  0.57928444358E+02  0.14217620710E+02  0.77923799121E+02  0.00000000000E+00 0. -1.
        -12    1    6    6    0    0 -0.97476242522E+02 -0.12834017341E+02  0.21351025786E+02  0.10060912563E+03  0.00000000000E+00 0.  1.
</event>
<event>
12    1  0.8113184E-002  0.1825813E+03  0.7818608E-02  0.1165349E+00
         21   -1    0    0  503  502  0.00000000000E+00  0.00000000000E+00  0.25881435959E+02  0.25881435959E+02  0.00000000000E+00 0. -1.
         21   -1    0    0  501  503 -0.00000000000E+00 -0.00000000000E+00 -0.13113893193E+04  0.13113893193E+04  0.00000000000E+00 0. -1.
          6    2    1    2  501    0  0.32687049040E+02 -0.50865984862E+02 -0.73305508517E+03  0.75542882428E+03  0.17218350407E+03 0.  0.
         24    2    3    3    0    0  0.13392363938E+02 -0.97161139203E+02 -0.60442199261E+03  0.61728365177E+03  0.78060996678E+02 0.  0.
         -6    2    1    2    0  502 -0.32687049040E+02  0.50865984862E+02 -0.55245279815E+03  0.58184193095E+03  0.17227926991E+03 0.  0.
        -24    2    5    5    0    0 -0.54958384875E+02  0.84914199455E+02 -0.49429699847E+03  0.51071190668E+03  0.79159860974E+02 0.  0.
          5    1    3    3  501    0  0.19294685102E+02  0.46295154341E+02 -0.12863309255E+03  0.13814517251E+03  0.47000000000E+01 0. -1.
        -11    1    4    4    0    0 -0.32801124634E+02 -0.36619622590E+02 -0.24459708033E+03  0.24948876175E+03  0.00000000000E+00 0.  1.
         12    1    4    4    0    0  0.46193488572E+02 -0.60541516613E+02 -0.35982491228E+03  0.36779489001E+03  0.00000000000E+00 0. -1.
         -5    1    5    5    0  502  0.22271335835E+02 -0.34048214594E+02 -0.58155799680E+02  0.71130024275E+02  0.47000000000E+01 0.  1.
         13    1    6    6    0    0 -0.73296647432E+02  0.80122414649E+02 -0.39685874264E+03  0.41144727665E+03  0.00000000000E+00 0. -1.
        -14    1    6    6    0    0  0.18338262557E+02  0.47917848061E+01 -0.97438255827E+02  0.99264630024E+02  0.00000000000E+00 0.  1.
</event>
<event>
12    1  0.8113184E-002  0.2120944E+03  0.7818608E-02  0.1140242E+00
         21   -1    0    0  503  502  0.00000000000E+00  0.00000000000E+00  0.11440721755E+04  0.11440721755E+04  0.00000000000E+00 0.  1.
         21   -1    0    0  501  503 -0.00000000000E+00 -0.00000000000E+00 -0.63369966468E+02  0.63369966468E+02  0.00000000000E+00 0.  1.
          6    2    1    2  501    0 -0.12232711886E+03  0.78669261063E+01  0.91333299781E+03  0.93726352212E+03  0.17105534915E+03 0.  0.
         24    2    3    3    0    0 -0.88682914365E+01  0.26354556185E+02  0.24616199331E+03  0.26024510491E+03  0.79740695118E+02 0.  0.
         -6    2    1    2    0  502  0.12232711886E+03 -0.78669261063E+01  0.16736921123E+03  0.27017861986E+03  0.17308443381E+03 0.  0.
        -24    2    5    5    0    0  0.34669315134E+02 -0.90210009865E+01  0.86527053653E+01  0.88799895427E+02  0.80791164412E+02 0.  0.
          5    1    3    3  501    0 -0.11345882742E+03 -0.18487630079E+02  0.66717100450E+03  0.67701841721E+03  0.47000000000E+01 0. -1.
        -11    1    4    4    0    0 -0.29050564765E+02 -0.15644857018E+02  0.14732504767E+03  0.15097472152E+03  0.00000000000E+00 0.  1.
         12    1    4    4    0    0  0.20182273329E+02  0.41999413202E+02  0.98836945632E+02  0.10927038340E+03  0.00000000000E+00 0. -1.
         -5    1    5    5    0  502  0.87657803721E+02  0.11540748802E+01  0.15871650587E+03  0.18137872443E+03  0.47000000000E+01 0.  1.
         13    1    6    6    0    0 -0.22887345783E+01  0.29639583400E+02  0.17637842935E+02  0.34566410191E+02  0.00000000000E+00 0. -1.
        -14    1    6    6    0    0  0.36958049713E+02 -0.38660584386E+02 -0.89851375700E+01  0.54233485236E+02  0.00000000000E+00 0.  1.
</event>
<event>
12    1  0.8113184E-002  0.2102405E+03  0.7818608E-02  0.1141570E+00
         21   -1    0    0  501  502  0.00000000000E+00  0.00000000000E+00  0.11371524364E+03  0.11371524364E+03  0.00000000000E+00 0. -1.
         21   -1    0    0  502  503 -0.00000000000E+00 -0.00000000000E+00 -0.60690512648E+03  0.60690512648E+03  0.00000000000E+00 0. -1.
         -6    2    1    2    0  503  0.11701245435E+03  0.24297002138E+02 -0.46317017749E+03  0.50824746667E+03  0.17177489712E+03 0.  0.
        -24    2    3    3    0    0  0.16879955296E+01  0.34460887492E+02 -0.25747303389E+03  0.27216180372E+03  0.81174393308E+02 0.  0.
          6    2    1    2  501    0 -0.11701245435E+03 -0.24297002138E+02 -0.30019705346E+02  0.21237290344E+03  0.17297054264E+03 0.  0.
         24    2    5    5    0    0  0.28019301136E+01 -0.29635770929E+02 -0.42704064297E+02  0.91679191354E+02  0.75467259714E+02 0.  0.
          5    1    5    5  501    0 -0.11981438446E+03  0.53387687917E+01  0.12684358952E+02  0.12069371209E+03  0.47000000000E+01 0. -1.
        -13    1    6    6    0    0 -0.23614432549E+02 -0.42166147305E+02 -0.39209545599E+02  0.62233542959E+02  0.00000000000E+00 0.  1.
         14    1    6    6    0    0  0.26416362662E+02  0.12530376376E+02 -0.34945186980E+01  0.29445648394E+02  0.00000000000E+00 0. -1.
         -5    1    3    3    0  503  0.11532445882E+03 -0.10163885355E+02 -0.20569714360E+03  0.23608566295E+03  0.47000000000E+01 0.  1.
         13    1    4    4    0    0 -0.15191758110E+02  0.65065536554E+01 -0.22666735170E+03  0.22726903238E+03  0.00000000000E+00 0. -1.
        -14    1    4    4    0    0  0.16879753640E+02  0.27954333837E+02 -0.30805682197E+02  0.44892771343E+02  0.00000000000E+00 0.  1.
</event>
<event>
12    1  0.8113184E-002  0.2454470E+03  0.7818608E-02  0.1116275E+00
         21   -1    0    0  501  502  0.00000000000E+00  0.00000000000E+00  0.34807130278E+03  0.34807130278E+03  0.00000000000E+00 0. -1.
         21   -1    0    0  502  503 -0.00000000000E+00 -0.00000000000E+00 -0.17944671605E+03  0.17944671605E+03  0.00000000000E+00 0. -1.
         -6    2    1    2    0  503 -0.10678664117E+03 -0.13806537069E+03  0.13503116740E+03  0.28013864953E+03  0.17256538898E+03 0.  0.
        -24    2    3    3    0    0 -0.37701480028E+02 -0.12471429425E+02  0.10000716001E+03  0.13250610343E+03  0.77327208961E+02 0.  0.
          6    2    1    2  501    0  0.10678664117E+03  0.13806537069E+03  0.33593419330E+02  0.24737936931E+03  0.17205406482E+03 0.  0.
         24    2    5    5    0    0  0.26371094338E+02  0.56861195528E+02 -0.42543724040E+02  0.10997582919E+03  0.79725054895E+02 0.  0.
          5    1    5    5  501    0  0.80415546829E+02  0.81204175166E+02  0.76137143370E+02  0.13740354012E+03  0.47000000000E+01 0. -1.
        -11    1    6    6    0    0  0.18535348191E+02  0.13175741902E+02  0.22002602534E+02  0.31642911142E+02  0.00000000000E+00 0.  1.
         12    1    6    6    0    0  0.78357461469E+01  0.43685453626E+02 -0.64546326574E+02  0.78332918051E+02  0.00000000000E+00 0. -1.
         -5    1    3    3    0  503 -0.69085161139E+02 -0.12559394127E+03  0.35024007392E+02  0.14763254610E+03  0.47000000000E+01 0.  1.
         11    1    4    4    0    0 -0.52964254891E+02 -0.22999931873E+02  0.98144659348E+02  0.11387090638E+03  0.00000000000E+00 0. -1.
        -12    1    4    4    0    0  0.15262774864E+02  0.10528502448E+02  0.18625006618E+01  0.18635197049E+02  0.00000000000E+00 0.  1.
</event>
<event>
12    1  0.8113184E-002  0.3562142E+03  0.7818608E-02  0.1060129E+00
         21   -1    0    0  503  502  0.00000000000E+00  0.00000000000E+00  0.49145866078E+03  0.49145866078E+03  0.00000000000E+00 0. -1.
         21   -1    0    0  501  503 -0.00000000000E+00 -0.00000000000E+00 -0.30054537160E+03  0.30054537160E+03  0.00000000000E+00 0.  1.
          6    2    1    2  501    0  0.18867184303E+03 -0.24862021619E+03  0.24453858757E+03  0.43177597907E+03  0.17094531009E+03 0.  0.
         24    2    3    3    0    0  0.97121282137E+02 -0.19752775596E+03  0.10326101150E+03  0.25578339914E+03  0.79451576187E+02 0.  0.
         -6    2    1    2    0  502 -0.18867184303E+03  0.24862021619E+03 -0.53625298396E+02  0.36022805331E+03  0.17169595659E+03 0.  0.
        -24    2    5    5    0    0 -0.14548495391E+03  0.22461524501E+03 -0.96109075796E+02  0.29489576898E+03  0.78158045047E+02 0.  0.
          5    1    3    3  501    0  0.91550560895E+02 -0.51092460223E+02  0.14127757607E+03  0.17599257993E+03  0.47000000000E+01 0. -1.
        -11    1    4    4    0    0  0.57153798925E+02 -0.42649961809E+02  0.14216076657E+02  0.72716386114E+02  0.00000000000E+00 0.  1.
         12    1    4    4    0    0  0.39967483212E+02 -0.15487779416E+03  0.89044934843E+02  0.18306701303E+03  0.00000000000E+00 0. -1.
         -5    1    5    5    0  502 -0.43186889123E+02  0.24004971174E+02  0.42483777400E+02  0.65332284327E+02  0.47000000000E+01 0.  1.
         13    1    6    6    0    0 -0.53883780253E+02  0.60743970600E+02  0.55766632185E+01  0.81390361292E+02  0.00000000000E+00 0. -1.
        -14    1    6    6    0    0 -0.91601173656E+02  0.16387127441E+03 -0.10168573901E+03  0.21350540769E+03  0.00000000000E+00 0.  1.
</event>
<event>
12    1  0.8113184E-002  0.1991856E+03  0.7818608E-02  0.1150484E+00
         21   -1    0    0  501  502  0.00000000000E+00  0.00000000000E+00  0.33697137087E+02  0.33697137087E+02  0.00000000000E+00 0.  1.
         21   -1    0    0  502  503 -0.00000000000E+00 -0.00000000000E+00 -0.12113421065E+04  0.12113421065E+04  0.00000000000E+00 0. -1.
         -6    2    1    2    0  503 -0.96722840029E+02  0.27358928011E+02 -0.48188197289E+03  0.52132586732E+03  0.17165839743E+03 0.  0.
        -24    2    3    3    0    0 -0.93468341758E+02 -0.31494873106E+02 -0.23158811850E+03  0.26414214853E+03  0.80060977098E+02 0.  0.
          6    2    1    2  501    0  0.96722840029E+02 -0.27358928011E+02 -0.69576299654E+03  0.72371337629E+03  0.17196245213E+03 0.  0.
         24    2    5    5    0    0  0.13381520668E+03  0.67563345505E+01 -0.43514833066E+03  0.45822931109E+03  0.51651469199E+02 0.  0.
          5    1    5    5  501    0 -0.37092366652E+02 -0.34115262562E+02 -0.26061466588E+03  0.26548406520E+03  0.47000000000E+01 0. -1.
        -13    1    6    6    0    0  0.20448817254E+02  0.15107746717E+02 -0.43163342118E+02  0.50094632854E+02  0.00000000000E+00 0.  1.
         14    1    6    6    0    0  0.11336638943E+03 -0.83514121665E+01 -0.39198498854E+03  0.40813467823E+03  0.00000000000E+00 0. -1.
         -5    1    3    3    0  503 -0.32544982707E+01  0.58853801118E+02 -0.25029385439E+03  0.25718371879E+03  0.47000000000E+01 0.  1.
         13    1    4    4    0    0 -0.78420800578E+02 -0.39247074093E+02 -0.23113224393E+03  0.24720895812E+03  0.00000000000E+00 0. -1.
        -14    1    4    4    0    0 -0.15047541180E+02  0.77522009870E+01 -0.45587456641E+00  0.16933190406E+02  0.00000000000E+00 0.  1.
</event>
<event>
12    1  0.8113184E-002  0.1885668E+03  0.7818608E-02  0.1160112E+00
         21   -1    0    0  503  502  0.00000000000E+00  0.00000000000E+00  0.10098578972E+03  0.10098578972E+03  0.00000000000E+00 0. -1.
         21   -1    0    0  501  503 -0.00000000000E+00 -0.00000000000E+00 -0.36030903261E+03  0.36030903261E+03  0.00000000000E+00 0. -1.
          6    2    1    2  501    0 -0.48022894285E+02 -0.55460449292E+02 -0.89742068190E+02  0.20883267787E+03  0.17371064657E+03 0.  0.
         24    2    3    3    0    0 -0.66099187138E+02  0.22138615546E+02 -0.71236485846E+02  0.12690030451E+03  0.78548262426E+02 0.  0.
         -6    2    1    2    0  502  0.48022894285E+02  0.55460449292E+02 -0.16958117469E+03  0.25246214446E+03  0.17203865775E+03 0.  0.
        -24    2    5    5    0    0  0.58261547168E+02  0.94700939761E+02 -0.92876571114E+02  0.16556949623E+03  0.80153133129E+02 0.  0.
          5    1    3    3  501    0  0.18076292853E+02 -0.77599064839E+02 -0.18505582344E+02  0.81932373364E+02  0.47000000000E+01 0. -1.
        -13    1    4    4    0    0  0.16238393463E+02 -0.29073833991E+01 -0.23490484182E+01  0.16663022804E+02  0.00000000000E+00 0.  1.
         14    1    4    4    0    0 -0.82337580601E+02  0.25045998945E+02 -0.68887437428E+02  0.11023728171E+03  0.00000000000E+00 0. -1.
         -5    1    5    5    0  502 -0.10238652883E+02 -0.39240490468E+02 -0.76704603581E+02  0.86892648225E+02  0.47000000000E+01 0.  1.
         11    1    6    6    0    0  0.34536420051E+02 -0.72887086649E+00 -0.75128960564E+01  0.35351650172E+02  0.00000000000E+00 0. -1.
        -12    1    6    6    0    0  0.23725127117E+02  0.95429810627E+02 -0.85363675058E+02  0.13021784606E+03  0.00000000000E+00 0.  1.
</event>
<event>
12    1  0.8113184E-002  0.1996983E+03  0.7818608E-02  0.1150488E+00
         21   -1    0    0  503  502  0.00000000000E+00  0.00000000000E+00  0.26566510026E+03  0.26566510026E+03  0.00000000000E+00 0.  1.
         21   -1    0    0  501  503 -0.00000000000E+00 -0.00000000000E+00 -0.33285992966E+03  0.33285992966E+03  0.00000000000E+00 0.  1.
          6    2    1    2  501    0  0.80864801831E+01 -0.99070141886E+02 -0.25648077859E+03  0.32505663221E+03  0.17320259866E+03 0.  0.
         24    2    3    3    0    0 -0.25858909995E+01 -0.63067264121E+02 -0.45207578397E+02  0.11042075023E+03  0.78516560676E+02 0.  0.
         -6    2    1    2    0  502 -0.80864801831E+01  0.99070141886E+02  0.18928594919E+03  0.27346839772E+03  0.17051542398E+03 0.  0.
        -24    2    5    5    0    0 -0.21250509571E+01 -0.64773113487E+01  0.13029277923E+03  0.15231524000E+03  0.78595499961E+02 0.  0.
          5    1    3    3  501    0  0.10672371183E+02 -0.36002877766E+02 -0.21127320019E+03  0.21463588198E+03  0.47000000000E+01 0. -1.
        -11    1    4    4    0    0 -0.21663316776E+00 -0.56508515105E+02 -0.66936647264E+02  0.87600079659E+02  0.00000000000E+00 0.  1.
         12    1    4    4    0    0 -0.23692578317E+01 -0.65587490153E+01  0.21729068868E+02  0.22820670568E+02  0.00000000000E+00 0. -1.
         -5    1    5    5    0  502 -0.59614292260E+01  0.10554745324E+03  0.58993169957E+02  0.12115315772E+03  0.47000000000E+01 0.  1.
         13    1    6    6    0    0  0.67875986399E+01 -0.29970119248E+02  0.14775504597E+02  0.34096848522E+02  0.00000000000E+00 0. -1.
        -14    1    6    6    0    0 -0.89126495969E+01  0.23492807900E+02  0.11551727463E+03  0.11821839148E+03  0.00000000000E+00 0.  1.
</event>
<event>
12    1  0.8113184E-002  0.1781509E+03  0.7818608E-02  0.1169806E+00
         21   -1    0    0  501  502  0.00000000000E+00  0.00000000000E+00  0.58408658636E+02  0.58408658636E+02  0.00000000000E+00 0.  1.
         21   -1    0    0  502  503 -0.00000000000E+00 -0.00000000000E+00 -0.59119185311E+03  0.59119185311E+03  0.00000000000E+00 0.  1.
         -6    2    1    2    0  503 -0.87275621100E+01  0.43484079527E+02 -0.17220376933E+03  0.24777382147E+03  0.17254185846E+03 0.  0.
        -24    2    3    3    0    0  0.45957548742E+02  0.76267203453E+02 -0.88044819876E+02  0.14208553765E+03  0.67138864262E+02 0.  0.
          6    2    1    2  501    0  0.87275621100E+01 -0.43484079527E+02 -0.36057942515E+03  0.40182669028E+03  0.17169779168E+03 0.  0.
         24    2    5    5    0    0 -0.71330332687E+01  0.38446648057E+02 -0.14558880941E+03  0.17115970638E+03  0.81058736423E+02 0.  0.
          5    1    5    5  501    0  0.15860595379E+02 -0.81930727584E+02 -0.21499061573E+03  0.23066698390E+03  0.47000000000E+01 0. -1.
        -13    1    6    6    0    0  0.28821624044E+02 -0.30796399770E+01 -0.23612657901E+02  0.37386198096E+02  0.00000000000E+00 0.  1.
         14    1    6    6    0    0 -0.35954657312E+02  0.41526288034E+02 -0.12197615151E+03  0.13377350828E+03  0.00000000000E+00 0. -1.
         -5    1    3    3    0  503 -0.54685110852E+02 -0.32783123925E+02 -0.84158949456E+02  0.10568828382E+03  0.47000000000E+01 0.  1.
         13    1    4    4    0    0  0.71007047270E+01  0.47882179542E+02 -0.79698394819E+02  0.93246754700E+02  0.00000000000E+00 0. -1.
        -14    1    4    4    0    0  0.38856844015E+02  0.28385023910E+02 -0.83464250578E+01  0.48838782954E+02  0.00000000000E+00 0.  1.
</event>
<event>
12    1  0.8113184E-002  0.1856570E+03  0.7818608E-02  0.1162517E+00
         21   -1    0    0  501  502  0.00000000000E+00  0.00000000000E+00  0.64032075957E+02  0.64032075957E+02  0.00000000000E+00 0.  1.
         21   -1    0    0  502  503 -0.00000000000E+00 -0.00000000000E+00 -0.11659498381E+04  0.11659498381E+04  0.00000000000E+00 0. -1.
         -6    2    1    2    0  503 -0.32682716642E+02  0.61822011386E+02 -0.10027632300E+04  0.10198051881E+04  0.17198373475E+03 0.  0.
        -24    2    3    3    0    0  0.18802959970E+02 -0.24529344056E+02 -0.53221663820E+03  0.53861549929E+03  0.76791054688E+02 0.  0.
          6    2    1    2  501    0  0.32682716642E+02 -0.61822011386E+02 -0.99154532144E+02  0.21017672604E+03  0.17161734721E+03 0.  0.
         24    2    5    5    0    0  0.49856822007E+02 -0.63622209955E+02 -0.13113371456E+03  0.17353046131E+03  0.79895441726E+02 0.  0.
          5    1    5    5  501    0 -0.17174105365E+02  0.18001985691E+01  0.31979182419E+02  0.36646264723E+02  0.47000000000E+01 0. -1.
        -11    1    6    6    0    0  0.67902472431E+01 -0.26706316426E+02 -0.10934946727E+03  0.11276808408E+03  0.00000000000E+00 0.  1.
         12    1    6    6    0    0  0.43066574764E+02 -0.36915893529E+02 -0.21784247291E+02  0.60762377233E+02  0.00000000000E+00 0. -1.
         -5    1    3    3    0  503 -0.51485676613E+02  0.86351355442E+02 -0.47054659185E+03  0.48118968877E+03  0.47000000000E+01 0.  1.
         13    1    4    4    0    0 -0.14295588596E+02 -0.21708319326E+02 -0.62014960632E+02  0.67241879238E+02  0.00000000000E+00 0. -1.
        -14    1    4    4    0    0  0.33098548566E+02 -0.28210247305E+01 -0.47020167756E+03  0.47137362005E+03  0.00000000000E+00 0.  1.
</event>
<event>
12    1  0.8113184E-002  0.2147843E+03  0.7818608E-02  0.1137834E+00
         21   -1    0    0  503  502  0.00000000000E+00  0.00000000000E+00  0.13963151344E+03  0.13963151344E+03  0.00000000000E+00 0.  1.
         21   -1    0    0  501  503 -0.00000000000E+00 -0.00000000000E+00 -0.34295611626E+03  0.34295611626E+03  0.00000000000E+00 0. -1.
          6    2    1    2  501    0 -0.12749918990E+03 -0.15135358831E+02 -0.55442619683E+02  0.22182469808E+03  0.17218359414E+03 0.  0.
         24    2    3    3    0    0 -0.98194863671E+02  0.17652696755E+02  0.24256022491E+02  0.13067776347E+03  0.80836095182E+02 0.  0.
         -6    2    1    2    0  502  0.12749918990E+03  0.15135358831E+02 -0.14788198313E+03  0.26076293162E+03  0.17217172550E+03 0.  0.
        -24    2    5    5    0    0  0.97739066906E+02  0.26752377591E+02 -0.17105357832E+03  0.22101833616E+03  0.96546172142E+02 0.  0.
          5    1    3    3  501    0 -0.29304326230E+02 -0.32788055586E+02 -0.79698642174E+02  0.91146934612E+02  0.47000000000E+01 0. -1.
        -11    1    4    4    0    0 -0.10647421368E+03  0.18744805157E+02  0.33478039031E+01  0.10816345820E+03  0.00000000000E+00 0.  1.
         12    1    4    4    0    0  0.82793500067E+01 -0.10921084012E+01  0.20908218588E+02  0.22514305271E+02  0.00000000000E+00 0. -1.
         -5    1    5    5    0  502  0.29760122994E+02 -0.11617018760E+02  0.23171595183E+02  0.39744595467E+02  0.47000000000E+01 0.  1.
         11    1    6    6    0    0  0.71156327806E+02 -0.24422777500E+02 -0.13011016902E+03  0.15029421522E+03  0.00000000000E+00 0. -1.
        -12    1    6    6    0    0  0.26582739100E+02  0.51175155090E+02 -0.40943409299E+02  0.70724120932E+02  0.00000000000E+00 0.  1.
</event>
<event>
12    1  0.8113184E-002  0.2622846E+03  0.7818608E-02  0.1105818E+00
         21   -1    0    0  501  502  0.00000000000E+00  0.00000000000E+00  0.71842877441E+03  0.71842877441E+03  0.00000000000E+00 0.  1.
         21   -1    0    0  502  503 -0.00000000000E+00 -0.00000000000E+00 -0.28035293352E+03  0.28035293352E+03  0.00000000000E+00 0. -1.
         -6    2    1    2    0  503 -0.13572163351E+03 -0.14215917859E+03  0.62433744331E+03  0.67708834745E+03  0.17326798112E+03 0.  0.
        -24    2    3    3    0    0 -0.24114532835E+01 -0.25206438690E+02  0.20993392050E+03  0.22630911408E+03  0.80637364060E+02 0.  0.
          6    2    1    2  501    0  0.13572163351E+03  0.14215917859E+03 -0.18626160241E+03  0.32169336048E+03  0.17367682569E+03 0.  0.
         24    2    5    5    0    0  0.15644518969E+03  0.14570407835E+03 -0.13254559486E+03  0.26381822279E+03  0.79542090328E+02 0.  0.
          5    1    5    5  501    0 -0.20723556180E+02 -0.35448997593E+01 -0.53716007553E+02  0.57875137689E+02  0.47000000000E+01 0. -1.
        -11    1    6    6    0    0  0.10759941988E+03  0.48949582474E+02 -0.84242582662E+02  0.14515684454E+03  0.00000000000E+00 0.  1.
         12    1    6    6    0    0  0.48845769810E+02  0.96754495877E+02 -0.48303012196E+02  0.11866137825E+03  0.00000000000E+00 0. -1.
         -5    1    3    3    0  503 -0.13331018023E+03 -0.11695273990E+03  0.41440352281E+03  0.45077923337E+03  0.47000000000E+01 0.  1.
         11    1    4    4    0    0 -0.53220299440E+01 -0.11596536902E+02  0.21187316030E+03  0.21225701338E+03  0.00000000000E+00 0. -1.
        -12    1    4    4    0    0  0.29105766605E+01 -0.13609901788E+02 -0.19392398061E+01  0.14052100704E+02  0.00000000000E+00 0.  1.
</event>
<event>
12    1  0.8113184E-002  0.3817912E+03  0.7818608E-02  0.1050428E+00
         21   -1    0    0  503  502  0.00000000000E+00  0.00000000000E+00  0.21061841172E+04  0.21061841172E+04  0.00000000000E+00 0. -1.
         21   -1    0    0  501  503 -0.00000000000E+00 -0.00000000000E+00 -0.16935867627E+03  0.16935867627E+03  0.00000000000E+00 0.  1.
          6    2    1    2  501    0  0.28306396051E+03  0.19013545212E+03  0.93013806627E+02  0.39295812044E+03  0.17172018025E+03 0.  0.
         24    2    3    3    0    0  0.61847445167E+02  0.10000398002E+03  0.55242685868E+02  0.15107141868E+03  0.77103285971E+02 0.  0.
         -6    2    1    2    0  502 -0.28306396051E+03 -0.19013545212E+03  0.18438116343E+04  0.18825846730E+04  0.16794943421E+03 0.  0.
        -24    2    5    5    0    0 -0.73328596799E+02 -0.10433483080E+03  0.62081114556E+03  0.63875873872E+03  0.79645513426E+02 0.  0.
          5    1    3    3  501    0  0.22121651534E+03  0.90131472098E+02  0.37771120759E+02  0.24188670175E+03  0.47000000000E+01 0. -1.
        -13    1    4    4    0    0  0.53670128633E+02  0.67118364038E+02 -0.38021445226E+00  0.85938943801E+02  0.00000000000E+00 0.  1.
         14    1    4    4    0    0  0.81773165341E+01  0.32885615980E+02  0.55622900321E+02  0.65132474881E+02  0.00000000000E+00 0. -1.
         -5    1    5    5    0  502 -0.20973536371E+03 -0.85800621318E+02  0.12230004887E+04  0.12438259343E+04  0.47000000000E+01 0.  1.
         13    1    6    6    0    0 -0.63676020421E+02 -0.88880934439E+02  0.60448545546E+03  0.61429400286E+03  0.00000000000E+00 0. -1.
        -14    1    6    6    0    0 -0.96525763776E+01 -0.15453896359E+02  0.16325690098E+02  0.24464735858E+02  0.00000000000E+00 0.  1.
</event>
<event>
12    1  0.8113184E-002  0.2004407E+03  0.7818608E-02  0.1153466E+00
         21   -1    0    0  503  502  0.00000000000E+00  0.00000000000E+00  0.21714331714E+04  0.21714331714E+04  0.00000000000E+00 0. -1.
         21   -1    0    0  501  503 -0.00000000000E+00 -0.00000000000E+00 -0.67144787112E+02  0.67144787112E+02  0.00000000000E+00 0. -1.
          6    2    1    2  501    0  0.42728739579E+02  0.30148764055E+02  0.96317662019E+02  0.22238153915E+03  0.19349874360E+03 0.  0.
         24    2    3    3    0    0  0.85940903316E+02 -0.35370973979E+02  0.55032772521E+02  0.13357467417E+03  0.78591620826E+02 0.  0.
         -6    2    1    2    0  502 -0.42728739579E+02 -0.30148764055E+02  0.20079707223E+04  0.20161964194E+04  0.17426097330E+03 0.  0.
        -24    2    5    5    0    0 -0.13921296394E+02  0.51037805083E+02  0.95862936296E+03  0.96331441926E+03  0.78776613179E+02 0.  0.
          5    1    3    3  501    0 -0.43212163736E+02  0.65519738034E+02  0.41284889498E+02  0.88806864981E+02  0.47000000000E+01 0. -1.
        -11    1    4    4    0    0  0.40871360271E+02 -0.50241820811E+02  0.56709879431E+02  0.86085533477E+02  0.00000000000E+00 0.  1.
         12    1    4    4    0    0  0.45069543044E+02  0.14870846832E+02 -0.16771069104E+01  0.47489140688E+02  0.00000000000E+00 0. -1.
         -5    1    5    5    0  502 -0.28807443186E+02 -0.81186569137E+02  0.10493413593E+04  0.10528820001E+04  0.47000000000E+01 0.  1.
         13    1    6    6    0    0  0.12664544898E+02  0.30988704602E+02  0.82216580896E+03  0.82284707445E+03  0.00000000000E+00 0. -1.
        -14    1    6    6    0    0 -0.26585841291E+02  0.20049100481E+02  0.13646355401E+03  0.14046734481E+03  0.00000000000E+00 0.  1.
</event>
<event>
12    1  0.8113184E-002  0.2205724E+03  0.7818608E-02  0.1133717E+00
         21   -1    0    0  501  502  0.00000000000E+00  0.00000000000E+00  0.32957191996E+02  0.32957191996E+02  0.00000000000E+00 0. -1.
         21   -1    0    0  502  503 -0.00000000000E+00 -0.00000000000E+00 -0.20248353798E+04  0.20248353798E+04  0.00000000000E+00 0.  1.
         -6    2    1    2    0  503 -0.60214400827E+02 -0.12269142702E+03 -0.15337443311E+04  0.15493254455E+04  0.17134381333E+03 0.  0.
        -24    2    3    3    0    0 -0.87811859617E+02 -0.14243665802E+03 -0.13651040762E+04  0.13772408167E+04  0.72691155280E+02 0.  0.
          6    2    1    2  501    0  0.60214400827E+02  0.12269142702E+03 -0.45813385662E+03  0.50846712628E+03  0.17312777822E+03 0.  0.
         24    2    5    5    0    0  0.17637323399E+02  0.17576892855E+02 -0.31546965922E+03  0.32615685220E+03  0.78975717836E+02 0.  0.
          5    1    5    5  501    0  0.42577077428E+02  0.10511453416E+03 -0.14266419740E+03  0.18231027408E+03  0.47000000000E+01 0. -1.
        -11    1    6    6    0    0  0.14880663511E+00  0.53851101638E+01 -0.29942897957E+03  0.29947743715E+03  0.00000000000E+00 0.  1.
         12    1    6    6    0    0  0.17488516764E+02  0.12191782692E+02 -0.16040679655E+02  0.26679415053E+02  0.00000000000E+00 0. -1.
         -5    1    3    3    0  503  0.27597458789E+02  0.19745231003E+02 -0.16864025495E+03  0.17208462880E+03  0.47000000000E+01 0.  1.
         13    1    4    4    0    0 -0.20489252406E+02 -0.69381681738E+02 -0.35717962216E+03  0.36443231156E+03  0.00000000000E+00 0. -1.
        -14    1    4    4    0    0 -0.67322607210E+02 -0.73054976285E+02 -0.10079244540E+04  0.10128085051E+04  0.00000000000E+00 0.  1.
</event>
<event>
12    1  0.8113184E-002  0.2015595E+03  0.7818608E-02  0.1148565E+00
         21   -1    0    0  501  502  0.00000000000E+00  0.00000000000E+00  0.61189233996E+03  0.61189233996E+03  0.00000000000E+00 0.  1.
         21   -1    0    0  502  503 -0.00000000000E+00 -0.00000000000E+00 -0.66210791519E+02  0.66210791519E+02  0.00000000000E+00 0. -1.
         -6    2    1    2    0  503 -0.66732819346E+02  0.78114046661E+02  0.26533799700E+03  0.33282244598E+03  0.17265993870E+03 0.  0.
        -24    2    3    3    0    0 -0.82773871457E+02  0.63957723987E+02  0.27757014311E+03  0.30773395812E+03  0.81932291410E+02 0.  0.
          6    2    1    2  501    0  0.66732819346E+02 -0.78114046661E+02  0.28034355144E+03  0.34528068550E+03  0.17341041342E+03 0.  0.
         24    2    5    5    0    0  0.50218529442E+02  0.95665938379E+01  0.21374160792E+03  0.23384224792E+03  0.79895566464E+02 0.  0.
          5    1    5    5  501    0  0.16514289903E+02 -0.87680640499E+02  0.66601943523E+02  0.11143843758E+03  0.47000000000E+01 0. -1.
        -11    1    6    6    0    0  0.26540435472E+02 -0.29342650834E+02  0.15232413339E+03  0.15737861191E+03  0.00000000000E+00 0.  1.
         12    1    6    6    0    0  0.23678093970E+02  0.38909244672E+02  0.61417474527E+02  0.76463636012E+02  0.00000000000E+00 0. -1.
         -5    1    3    3    0  503  0.16041052111E+02  0.14156322674E+02 -0.12232146116E+02  0.25088487860E+02  0.47000000000E+01 0.  1.
         11    1    4    4    0    0 -0.68981574679E+01 -0.12550869750E+02  0.59263059162E+01  0.15499355140E+02  0.00000000000E+00 0. -1.
        -12    1    4    4    0    0 -0.75875713989E+02  0.76508593737E+02  0.27164383720E+03  0.29223460298E+03  0.00000000000E+00 0.  1.
</event>
<event>
12    1  0.8113184E-002  0.2075421E+03  0.7818608E-02  0.1145339E+00
         21   -1    0    0  501  502  0.00000000000E+00  0.00000000000E+00  0.21090496350E+03  0.21090496350E+03  0.00000000000E+00 0. -1.
         21   -1    0    0  502  503 -0.00000000000E+00 -0.00000000000E+00 -0.32497435647E+03  0.32497435647E+03  0.00000000000E+00 0. -1.
         -6    2    1    2    0  503 -0.27036757137E+02  0.11007782399E+03 -0.22677302921E+03  0.30740807366E+03  0.17385512187E+03 0.  0.
        -24    2    3    3    0    0 -0.39415777873E+02  0.53007089432E+02 -0.21903264939E+03  0.24831228381E+03  0.96541875470E+02 0.  0.
          6    2    1    2  501    0  0.27036757137E+02 -0.11007782399E+03  0.11270363624E+03  0.22847124631E+03  0.16324486883E+03 0.  0.
         24    2    5    5    0    0  0.78300308787E+02 -0.83162986065E+02  0.87485470873E+02  0.16514347916E+03  0.81065655410E+02 0.  0.
          5    1    5    5  501    0 -0.51263551650E+02 -0.26914837927E+02  0.25218165364E+02  0.63327767154E+02  0.47000000000E+01 0. -1.
        -11    1    6    6    0    0  0.98452021360E+01  0.61808987951E+01  0.42282774965E+02  0.43851619967E+02  0.00000000000E+00 0.  1.
         12    1    6    6    0    0  0.68455106651E+02 -0.89343884860E+02  0.45202695908E+02  0.12129185919E+03  0.00000000000E+00 0. -1.
         -5    1    3    3    0  503  0.12379020736E+02  0.57070734560E+02 -0.77403798253E+01  0.59095789846E+02  0.47000000000E+01 0.  1.
         11    1    4    4    0    0 -0.13416817549E+01  0.48905010051E+02 -0.19933091712E+03  0.20524696012E+03  0.00000000000E+00 0. -1.
        -12    1    4    4    0    0 -0.38074096118E+02  0.41020793809E+01 -0.19701732265E+02  0.43065323692E+02  0.00000000000E+00 0.  1.
</event>
<event>
12    1  0.8113184E-002  0.2666046E+03  0.7818608E-02  0.1103596E+00
         21   -1    0    0  503  502  0.00000000000E+00  0.00000000000E+00  0.68015301046E+03  0.68015301046E+03  0.00000000000E+00 0.  1.
         21   -1    0    0  501  503 -0.00000000000E+00 -0.00000000000E+00 -0.10503001489E+03  0.10503001489E+03  0.00000000000E+00 0.  1.
          6    2    1    2  501    0  0.19954711601E+03 -0.83805758259E+01  0.33549672052E+03  0.42852776593E+03  0.17660325914E+03 0.  0.
         24    2    3    3    0    0  0.16675021870E+03 -0.69574104864E+02  0.25672339750E+03  0.32342015018E+03  0.77765668619E+02 0.  0.
         -6    2    1    2    0  502 -0.19954711601E+03  0.83805758259E+01  0.23962627505E+03  0.35665525942E+03  0.17289573973E+03 0.  0.
        -24    2    5    5    0    0 -0.99912794109E+02  0.29211385082E+02  0.21436314711E+03  0.25167318310E+03  0.80944183289E+02 0.  0.
          5    1    3    3  501    0  0.32796897308E+02  0.61193529038E+02  0.78773323017E+02  0.10510761575E+03  0.47000000000E+01 0. -1.
        -11    1    4    4    0    0  0.10618233385E+03 -0.34684835233E+02  0.92821952352E+02  0.14523649905E+03  0.00000000000E+00 0.  1.
         12    1    4    4    0    0  0.60567884853E+02 -0.34889269631E+02  0.16390144515E+03  0.17818365114E+03  0.00000000000E+00 0. -1.
         -5    1    5    5    0  502 -0.99634321901E+02 -0.20830809256E+02  0.25263127942E+02  0.10498207632E+03  0.47000000000E+01 0.  1.
         13    1    6    6    0    0 -0.51914264360E+01 -0.23083698466E+02  0.37700262047E+02  0.44509749514E+02  0.00000000000E+00 0. -1.
        -14    1    6    6    0    0 -0.94721367673E+02  0.52295083549E+02  0.17666288506E+03  0.20716343359E+03  0.00000000000E+00 0.  1.
</event>
<event>
12    1  0.8113184E-002  0.1927378E+03  0.7818608E-02  0.1156393E+00
         21   -1    0    0  501  502  0.00000000000E+00  0.00000000000E+00  0.25022456518E+02  0.25022456518E+02  0.00000000000E+00 0.  1.
         21   -1    0    0  502  503 -0.00000000000E+00 -0.00000000000E+00 -0.24199129324E+04  0.24199129324E+04  0.00000000000E+00 0. -1.
         -6    2    1    2    0  503  0.52072906792E+02 -0.69906285371E+02 -0.19659730732E+04  0.19753981793E+04  0.17189928918E+03 0.  0.
        -24    2    3    3    0    0  0.72189881076E+02  0.59983134395E+01 -0.13740713619E+04  0.13782918850E+04  0.79806352939E+02 0.  0.
          6    2    1    2  501    0 -0.52072906792E+02  0.69906285371E+02 -0.42891740263E+03  0.46953720963E+03  0.16998993086E+03 0.  0.
         24    2    5    5    0    0  0.30364351401E+02  0.35029551990E+02 -0.14727235033E+03  0.17397281131E+03  0.80176870450E+02 0.  0.
          5    1    5    5  501    0 -0.82437258192E+02  0.34876733381E+02 -0.28164505230E+03  0.29556439832E+03  0.47000000000E+01 0. -1.
        -13    1    6    6    0    0 -0.11357818260E+02  0.39822431760E+02 -0.35406093698E+02  0.54483186194E+02  0.00000000000E+00 0.  1.
         14    1    6    6    0    0  0.41722169661E+02 -0.47928797705E+01 -0.11186625663E+03  0.11948962512E+03  0.00000000000E+00 0. -1.
         -5    1    3    3    0  503 -0.20116974284E+02 -0.75904598810E+02 -0.59190171131E+03  0.59710629424E+03  0.47000000000E+01 0.  1.
         13    1    4    4    0    0 -0.14304085931E+02  0.11736455109E+02 -0.37923290244E+03  0.37968400749E+03  0.00000000000E+00 0. -1.
        -14    1    4    4    0    0  0.86493967007E+02 -0.57381416699E+01 -0.99483845948E+03  0.99860787753E+03  0.00000000000E+00 0.  1.
</event>
<event>
12    1  0.8113184E-002  0.1772693E+03  0.7818608E-02  0.1170490E+00
         21   -1    0    0  503  502  0.00000000000E+00  0.00000000000E+00  0.11739916803E+03  0.11739916803E+03  0.00000000000E+00 0.  1.
         21   -1    0    0  501  503 -0.00000000000E+00 -0.00000000000E+00 -0.30539763207E+03  0.30539763207E+03  0.00000000000E+00 0.  1.
          6    2    1    2  501    0  0.15364656294E+02  0.36356436423E+02 -0.16838684925E+03  0.24444598896E+03  0.17274793019E+03 0.  0.
         24    2    3    3    0    0 -0.31060081121E+02 -0.21112799940E+02 -0.84220829761E+02  0.13235683601E+03  0.94945799866E+02 0.  0.
         -6    2    1    2    0  502 -0.15364656294E+02 -0.36356436423E+02 -0.19611614786E+02  0.17835081114E+03  0.17281936601E+03 0.  0.
        -24    2    5    5    0    0  0.37530662421E+02  0.14706297155E+02 -0.46880988011E+02  0.99794931546E+02  0.78335021080E+02 0.  0.
          5    1    3    3  501    0  0.46424737415E+02  0.57469236363E+02 -0.84166019491E+02  0.11208915295E+03  0.47000000000E+01 0. -1.
        -11    1    4    4    0    0  0.25732785169E+02 -0.93809536493E+01 -0.66179506018E+02  0.71623358905E+02  0.00000000000E+00 0.  1.
         12    1    4    4    0    0 -0.56792866290E+02 -0.11731846291E+02 -0.18041323742E+02  0.60733477104E+02  0.00000000000E+00 0. -1.
         -5    1    5    5    0  502 -0.52895318715E+02 -0.51062733578E+02  0.27269373226E+02  0.78555879592E+02  0.47000000000E+01 0.  1.
         11    1    6    6    0    0  0.54034561993E+01  0.25077181872E+02 -0.58672455920E+02  0.64035298650E+02  0.00000000000E+00 0. -1.
        -12    1    6    6    0    0  0.32127206221E+02 -0.10370884717E+02  0.11791467909E+02  0.35759632896E+02  0.00000000000E+00 0.  1.
</event>
<event>
12    1  0.8113184E-002  0.2264017E+03  0.7818608E-02  0.1129343E+00
         21   -1    0    0  501  502  0.00000000000E+00  0.00000000000E+00  0.13166884211E+03  0.13166884211E+03  0.00000000000E+00 0.  1.
         21   -1    0    0  502  503 -0.00000000000E+00 -0.00000000000E+00 -0.40616540557E+03  0.40616540557E+03  0.00000000000E+00 0. -1.
         -6    2    1    2    0  503  0.48183565535E+02 -0.13431734774E+03 -0.80006665452E+02  0.23936477082E+03  0.17473299947E+03 0.  0.
        -24    2    3    3    0    0  0.94124562461E+02 -0.12826980303E+03 -0.68102165096E+02  0.19129237620E+03  0.81500261800E+02 0.  0.
          6    2    1    2  501    0 -0.48183565535E+02  0.13431734774E+03 -0.19448989800E+03  0.29846947686E+03  0.17576945782E+03 0.  0.
         24    2    5    5    0    0  0.39262929370E+01  0.14263312235E+03 -0.10461204787E+03  0.19413967574E+03  0.79918144171E+02 0.  0.
          5    1    5    5  501    0 -0.52109858472E+02 -0.83157746180E+01 -0.89877850130E+02  0.10432980112E+03  0.47000000000E+01 0. -1.
        -13    1    6    6    0    0 -0.30949439040E+02  0.11238161874E+03 -0.83421252076E+02  0.14334085707E+03  0.00000000000E+00 0.  1.
         14    1    6    6    0    0  0.34875731977E+02  0.30251503612E+02 -0.21190795797E+02  0.50798818670E+02  0.00000000000E+00 0. -1.
         -5    1    3    3    0  503 -0.45940996926E+02 -0.60475447009E+01 -0.11904500356E+02  0.48072394617E+02  0.47000000000E+01 0.  1.
         11    1    4    4    0    0  0.97192087466E+02 -0.10050576170E+03 -0.79828523309E+02  0.16099783581E+03  0.00000000000E+00 0. -1.
        -12    1    4    4    0    0 -0.30675250050E+01 -0.27764041332E+02  0.11726358213E+02  0.30294540394E+02  0.00000000000E+00 0.  1.
</event>
<event>
12    1  0.8113184E-002  0.2773828E+03  0.7818608E-02  0.1097302E+00
         21   -1    0    0  503  502  0.00000000000E+00  0.00000000000E+00  0.46413071911E+03  0.46413071911E+03  0.00000000000E+00 0.  1.
         21   -1    0    0  501  503 -0.00000000000E+00 -0.00000000000E+00 -0.26392988053E+03  0.26392988053E+03  0.00000000000E+00 0. -1.
          6    2    1    2  501    0 -0.31001033100E+02 -0.21457103266E+03 -0.12289093624E+03  0.30223255306E+03  0.17099866026E+03 0.  0.
         24    2    3    3    0    0  0.47229954119E+02 -0.12646619395E+03 -0.50342213015E+02  0.16378416120E+03  0.77888036774E+02 0.  0.
         -6    2    1    2    0  502  0.31001033100E+02  0.21457103266E+03  0.32309177482E+03  0.42582804658E+03  0.17303016554E+03 0.  0.
        -24    2    5    5    0    0  0.42911745514E+02  0.20896262227E+03  0.20012616947E+03  0.30207042282E+03  0.75427191587E+02 0.  0.
          5    1    3    3  501    0 -0.78230987219E+02 -0.88104838710E+02 -0.72548723226E+02  0.13844839185E+03  0.47000000000E+01 0. -1.
        -11    1    4    4    0    0  0.37291669138E+02 -0.12883350749E+03 -0.24962432854E+02  0.13642530664E+03  0.00000000000E+00 0.  1.
         12    1    4    4    0    0  0.99382849805E+01  0.23673135420E+01 -0.25379780162E+02  0.27358854560E+02  0.00000000000E+00 0. -1.
         -5    1    5    5    0  502 -0.11910712414E+02  0.56084103906E+01  0.12296560535E+03  0.12375762376E+03  0.47000000000E+01 0.  1.
         13    1    6    6    0    0 -0.17462527402E+02  0.34951471367E+02  0.17910115110E+02  0.42980430864E+02  0.00000000000E+00 0. -1.
        -14    1    6    6    0    0  0.60374272915E+02  0.17401115090E+03  0.18221605436E+03  0.25908999196E+03  0.00000000000E+00 0.  1.
</event>
<event>
12    1  0.8113184E-002  0.1835615E+03  0.7818608E-02  0.1164562E+00
         21   -1    0    0  501  502  0.00000000000E+00  0.00000000000E+00  0.18391690863E+03  0.18391690863E+03  0.00000000000E+00 0.  1.
         21   -1    0    0  502  503 -0.00000000000E+00 -0.00000000000E+00 -0.18451728152E+03  0.18451728152E+03  0.00000000000E+00 0.  1.
         -6    2    1    2    0  503  0.51414915286E+01 -0.65294479096E+02  0.18854213452E+02  0.18452724469E+03  0.17147891630E+03 0.  0.
        -24    2    3    3    0    0 -0.52719677849E+02 -0.32035963506E+02  0.46399069229E+02  0.11217496166E+03  0.81392143399E+02 0.  0.
          6    2    1    2  501    0 -0.51414915286E+01  0.65294479096E+02 -0.19454586347E+02  0.18390694546E+03  0.17074390098E+03 0.  0.
         24    2    5    5    0    0 -0.10958236074E+02 -0.18429164345E+02  0.30505797805E+02  0.86123444945E+02  0.77633285600E+02 0.  0.
          5    1    5    5  501    0  0.58167445454E+01  0.83723643441E+02 -0.49960384152E+02  0.97783500514E+02  0.47000000000E+01 0. -1.
        -13    1    6    6    0    0 -0.15547736042E+02  0.21303644064E+02 -0.10915330449E+02  0.28543331712E+02  0.00000000000E+00 0.  1.
         14    1    6    6    0    0  0.45894999675E+01 -0.39732808410E+02  0.41421128253E+02  0.57580113232E+02  0.00000000000E+00 0. -1.
         -5    1    3    3    0  503  0.57861169378E+02 -0.33258515589E+02 -0.27544855777E+02  0.72352283037E+02  0.47000000000E+01 0.  1.
         13    1    4    4    0    0 -0.51328584165E+02 -0.10052176505E+02 -0.85291241186E+01  0.52994488044E+02  0.00000000000E+00 0. -1.
        -14    1    4    4    0    0 -0.13910936843E+01 -0.21983787002E+02  0.54928193348E+02  0.59180473613E+02  0.00000000000E+00 0.  1.
</event>
<event>
12    1  0.8113184E-002  0.1733639E+03  0.7818608E-02  0.1175804E+00
         21   -1    0    0  501  502  0.00000000000E+00  0.00000000000E+00  0.15523616598E+02  0.15523616598E+02  0.00000000000E+00 0.  1.
         21   -1    0    0  502  503 -0.00000000000E+00 -0.00000000000E+00 -0.27237971621E+04  0.27237971621E+04  0.00000000000E+00 0.  1.
         -6    2    1    2    0  503 -0.10659910795E+02  0.39225928660E+01 -0.21035425612E+04  0.21102304656E+04  0.16748818152E+03 0.  0.
        -24    2    3    3    0    0 -0.67515080397E+02 -0.47193179344E+01 -0.16107963436E+04  0.16141174564E+04  0.78292685738E+02 0.  0.
          6    2    1    2  501    0  0.10659910795E+02 -0.39225928660E+01 -0.60473098430E+03  0.62909031305E+03  0.17299143956E+03 0.  0.
         24    2    5    5    0    0 -0.48072130623E+02 -0.14319900739E+02 -0.22064860968E+03  0.24037587133E+03  0.81109563345E+02 0.  0.
          5    1    5    5  501    0  0.58732041418E+02  0.10397307873E+02 -0.38408237463E+03  0.38871444172E+03  0.47000000000E+01 0. -1.
        -11    1    6    6    0    0 -0.11441617083E+02 -0.11750445965E+02 -0.19475410075E+03  0.19544345305E+03  0.00000000000E+00 0.  1.
         12    1    6    6    0    0 -0.36630513540E+02 -0.25694547742E+01 -0.25894508931E+02  0.44932418284E+02  0.00000000000E+00 0. -1.
         -5    1    3    3    0  503  0.56855169602E+02  0.86419108003E+01 -0.49274621761E+03  0.49611300920E+03  0.47000000000E+01 0.  1.
         13    1    4    4    0    0 -0.62192821510E+02  0.20828029215E+02 -0.14237016196E+04  0.14252115827E+04  0.00000000000E+00 0. -1.
        -14    1    4    4    0    0 -0.53222588872E+01 -0.25547347149E+02 -0.18709472397E+03  0.18890587371E+03  0.00000000000E+00 0.  1.
</event>
<event>
12    1  0.8113184E-002  0.2142276E+03  0.7818608E-02  0.1138403E+00
         21   -1    0    0  501  502  0.00000000000E+00  0.00000000000E+00  0.95402540257E+03  0.95402540257E+03  0.00000000000E+00 0. -1.
         21   -1    0    0  502  503 -0.00000000000E+00 -0.00000000000E+00 -0.85026929325E+02  0.85026929325E+02  0.00000000000E+00 0. -1.
         -6    2    1    2    0  503  0.10421683589E+03  0.70538694742E+02  0.91805949264E+02  0.23307032335E+03  0.17336835631E+03 0.  0.
        -24    2    3    3    0    0  0.14162810504E+03  0.61688331700E+02  0.58884871531E+02  0.18223904022E+03  0.76679001559E+02 0.  0.
          6    2    1    2  501    0 -0.10421683589E+03 -0.70538694742E+02  0.77719252398E+03  0.80598200854E+03  0.17245846579E+03 0.  0.
         24    2    5    5    0    0  0.74772517629E+01 -0.78664812295E-02  0.24653029518E+03  0.25910482120E+03  0.79386476021E+02 0.  0.
          5    1    5    5  501    0 -0.11169408765E+03 -0.70530828261E+02  0.53066222880E+03  0.54687718733E+03  0.47000000000E+01 0. -1.
        -11    1    6    6    0    0  0.26511500702E+02 -0.31453501877E+02  0.15753525615E+03  0.16281750330E+03  0.00000000000E+00 0.  1.
         12    1    6    6    0    0 -0.19034248939E+02  0.31445635396E+02  0.88995039028E+02  0.96287317906E+02  0.00000000000E+00 0. -1.
         -5    1    3    3    0  503 -0.37411269155E+02  0.88503630416E+01  0.32921077733E+02  0.50831283133E+02  0.47000000000E+01 0.  1.
         13    1    4    4    0    0  0.60835718568E+02  0.63908466305E+02  0.48686548466E+02  0.10077527832E+03  0.00000000000E+00 0. -1.
        -14    1    4    4    0    0  0.80792386473E+02 -0.22201346041E+01  0.10198323065E+02  0.81463761901E+02  0.00000000000E+00 0.  1.
</event>
<event>
12    1  0.8113184E-002  0.2540975E+03  0.7818608E-02  0.1110847E+00
         21   -1    0    0  501  502  0.00000000000E+00  0.00000000000E+00  0.33344245032E+03  0.33344245032E+03  0.00000000000E+00 0.  1.
         21   -1    0    0  502  503 -0.00000000000E+00 -0.00000000000E+00 -0.25873954872E+03  0.25873954872E+03  0.00000000000E+00 0.  1.
         -6    2    1    2    0  503  0.10200974228E+03  0.15667220047E+03 -0.11179709036E+03  0.27698717068E+03  0.17108809834E+03 0.  0.
        -24    2    3    3    0    0  0.10727793318E+03  0.16207417857E+03 -0.13712440534E+03  0.25014507526E+03  0.77413576525E+02 0.  0.
          6    2    1    2  501    0 -0.10200974228E+03 -0.15667220047E+03  0.18649999197E+03  0.31519482836E+03  0.17208534773E+03 0.  0.
         24    2    5    5    0    0  0.59795409373E+01 -0.25830541112E+02  0.75892904821E+02  0.11261831729E+03  0.78868121710E+02 0.  0.
          5    1    5    5  501    0 -0.10798928321E+03 -0.13084165935E+03  0.11060708714E+03  0.20257651107E+03  0.47000000000E+01 0. -1.
        -13    1    6    6    0    0  0.63518250141E+01 -0.39165408014E+02  0.86766503139E+02  0.95408075826E+02  0.00000000000E+00 0.  1.
         14    1    6    6    0    0 -0.37228407680E+00  0.13334866902E+02 -0.10873598318E+02  0.17210241460E+02  0.00000000000E+00 0. -1.
         -5    1    3    3    0  503 -0.52681909016E+01 -0.54019781046E+01  0.25327314980E+02  0.26842095427E+02  0.47000000000E+01 0.  1.
         13    1    4    4    0    0 -0.54440801278E+01 -0.33818213043E+01  0.15620545234E+01  0.65965701774E+01  0.00000000000E+00 0. -1.
        -14    1    4    4    0    0  0.11272201331E+03  0.16545599987E+03 -0.13868645986E+03  0.24354850508E+03  0.00000000000E+00 0.  1.
</event>
<event>
12    1  0.8113184E-002  0.1822089E+03  0.7818608E-02  0.1165982E+00
         21   -1    0    0  501  502  0.00000000000E+00  0.00000000000E+00  0.33215109612E+03  0.33215109612E+03  0.00000000000E+00 0. -1.
         21   -1    0    0  502  503 -0.00000000000E+00 -0.00000000000E+00 -0.19202032650E+03  0.19202032650E+03  0.00000000000E+00 0. -1.
         -6    2    1    2    0  503 -0.30747653345E+02 -0.52720909631E+02 -0.11220999228E+03  0.21292242102E+03  0.17035246552E+03 0.  0.
        -24    2    3    3    0    0 -0.76025271159E+02  0.57384447785E+00 -0.53671698978E+02  0.12160311708E+03  0.78271934044E+02 0.  0.
          6    2    1    2  501    0  0.30747653345E+02  0.52720909631E+02  0.25234076189E+03  0.31124900160E+03  0.17168333753E+03 0.  0.
         24    2    5    5    0    0  0.60349949959E+02  0.27896555806E+02  0.68680657398E+02  0.12351070372E+03  0.78214621054E+02 0.  0.
          5    1    5    5  501    0 -0.29602296614E+02  0.24824353826E+02  0.18366010450E+03  0.18773829788E+03  0.47000000000E+01 0. -1.
        -13    1    6    6    0    0 -0.16039189771E+02 -0.12804187898E+01 -0.93759652381E+00  0.16117511223E+02  0.00000000000E+00 0.  1.
         14    1    6    6    0    0  0.76389139730E+02  0.29176974595E+02  0.69618253922E+02  0.10739319250E+03  0.00000000000E+00 0. -1.
         -5    1    3    3    0  503  0.45277617814E+02 -0.53294754109E+02 -0.58538293301E+02  0.91319303945E+02  0.47000000000E+01 0.  1.
         11    1    4    4    0    0 -0.80256845610E+01 -0.24957196549E+02 -0.39796183621E+02  0.47655109937E+02  0.00000000000E+00 0. -1.
        -12    1    4    4    0    0 -0.67999586598E+02  0.25531041027E+02 -0.13875515357E+02  0.73948007139E+02  0.00000000000E+00 0.  1.
</event>
<event>
12    1  0.8113184E-002  0.1928587E+03  0.7818608E-02  0.1156114E+00
         21   -1    0    0  501  502  0.00000000000E+00  0.00000000000E+00  0.42204087446E+02  0.42204087446E+02  0.00000000000E+00 0.  1.
         21   -1    0    0  502  503 -0.00000000000E+00 -0.00000000000E+00 -0.97298052839E+03  0.97298052839E+03  0.00000000000E+00 0. -1.
         -6    2    1    2    0  503 -0.72532535832E+00 -0.87196376214E+02 -0.62374996632E+03  0.65261084785E+03  0.17097708652E+03 0.  0.
        -24    2    3    3    0    0  0.10610580558E+02 -0.33914579634E+02 -0.13646992720E+03  0.16227282246E+03  0.80284772829E+02 0.  0.
          6    2    1    2  501    0  0.72532535832E+00  0.87196376214E+02 -0.30702647462E+03  0.36257376799E+03  0.17201961224E+03 0.  0.
         24    2    5    5    0    0 -0.27257152658E+02  0.12120171288E+03 -0.22598630699E+03  0.27022128688E+03  0.80727475876E+02 0.  0.
          5    1    5    5  501    0  0.27982478017E+02 -0.34005336662E+02 -0.81040167630E+02  0.92352481109E+02  0.47000000000E+01 0. -1.
        -13    1    6    6    0    0 -0.39390615142E+01  0.37806420017E+02 -0.15087803823E+03  0.15559249346E+03  0.00000000000E+00 0.  1.
         14    1    6    6    0    0 -0.23318091144E+02  0.83395292859E+02 -0.75108268762E+02  0.11462879343E+03  0.00000000000E+00 0. -1.
         -5    1    3    3    0  503 -0.11335905916E+02 -0.53281796580E+02 -0.48728003912E+03  0.49033802538E+03  0.47000000000E+01 0.  1.
         11    1    4    4    0    0 -0.33643794210E+02 -0.24170641174E+02 -0.77789965446E+02  0.88132874160E+02  0.00000000000E+00 0. -1.
        -12    1    4    4    0    0  0.44254374768E+02 -0.97439384607E+01 -0.58679961756E+02  0.74139948303E+02  0.00000000000E+00 0.  1.
</event>
<event>
12    1  0.8113184E-002  0.3196642E+03  0.7818608E-02  0.1075856E+00
         21   -1    0    0  501  502  0.00000000000E+00  0.00000000000E+00  0.14311706075E+04  0.14311706075E+04  0.00000000000E+00 0. -1.
         21   -1    0    0  502  503 -0.00000000000E+00 -0.00000000000E+00 -0.91501368540E+02  0.91501368540E+02  0.00000000000E+00 0.  1.
         -6    2    1    2    0  503 -0.25324935164E+03  0.90392458878E+02  0.31173291274E+03  0.44617845246E+03  0.17202259103E+03 0.  0.
        -24    2    3    3    0    0 -0.64299963278E+02  0.77638932026E+02  0.10947872146E+03  0.16906228241E+03  0.80213314599E+02 0.  0.
          6    2    1    2  501    0  0.25324935164E+03 -0.90392458878E+02  0.10279363262E+04  0.10764935236E+04  0.17285596555E+03 0.  0.
         24    2    5    5    0    0  0.10847905914E+03 -0.94739049891E+02  0.67699115868E+03  0.69680690140E+03  0.80496180429E+02 0.  0.
          5    1    5    5  501    0  0.14477029250E+03  0.43465910127E+01  0.35094516752E+03  0.37968662216E+03  0.47000000000E+01 0. -1.
        -11    1    6    6    0    0  0.91629769404E+00  0.12624934939E+02  0.40989596982E+02  0.42899599583E+02  0.00000000000E+00 0.  1.
         12    1    6    6    0    0  0.10756276145E+03 -0.10736398483E+03  0.63600156169E+03  0.65390730181E+03  0.00000000000E+00 0. -1.
         -5    1    3    3    0  503 -0.18894938836E+03  0.12753526852E+02  0.20225419129E+03  0.27711617005E+03  0.47000000000E+01 0.  1.
         11    1    4    4    0    0 -0.49938548491E+01  0.58442750595E+02  0.82290697872E+02  0.10105569078E+03  0.00000000000E+00 0. -1.
        -12    1    4    4    0    0 -0.59306108429E+02  0.19196181431E+02  0.27188023584E+02  0.68006591628E+02  0.00000000000E+00 0.  1.
</event>
<event>
12    1  0.8113184E-002  0.1870189E+03  0.7818608E-02  0.1161207E+00
         21   -1    0    0  501  502  0.00000000000E+00  0.00000000000E+00  0.74593753771E+03  0.74593753771E+03  0.00000000000E+00 0.  1.
         21   -1    0    0  502  503 -0.00000000000E+00 -0.00000000000E+00 -0.10666922275E+03  0.10666922275E+03  0.00000000000E+00 0.  1.
         -6    2    1    2    0  503  0.10216490472E+02 -0.72417207890E+02  0.36242589176E+00  0.18689150459E+03  0.17198742529E+03 0.  0.
        -24    2    3    3    0    0 -0.20338436930E+02  0.70577884713E+01 -0.39919826219E+02  0.92580166617E+02  0.80709542996E+02 0.  0.
          6    2    1    2  501    0 -0.10216490472E+02  0.72417207890E+02  0.63890588907E+03  0.66571525587E+03  0.17212622731E+03 0.  0.
         24    2    5    5    0    0  0.37423997650E+01  0.90474363416E+02  0.62906870722E+03  0.64042154856E+03  0.78820717280E+02 0.  0.
          5    1    5    5  501    0 -0.13958890237E+02 -0.18057155526E+02  0.98371818543E+01  0.25293707304E+02  0.47000000000E+01 0. -1.
        -11    1    6    6    0    0 -0.23764503036E+02  0.68245326657E+02  0.26623039658E+03  0.27586373498E+03  0.00000000000E+00 0.  1.
         12    1    6    6    0    0  0.27506902801E+02  0.22229036760E+02  0.36283831064E+03  0.36455781358E+03  0.00000000000E+00 0. -1.
         -5    1    3    3    0  503  0.30554927402E+02 -0.79474996361E+02  0.40282252111E+02  0.94311337973E+02  0.47000000000E+01 0.  1.
         13    1    4    4    0    0 -0.18447463354E+02 -0.10012212363E+02  0.20756990672E+02  0.29519586080E+02  0.00000000000E+00 0. -1.
        -14    1    4    4    0    0 -0.18909735764E+01  0.17070000834E+02 -0.60676816892E+02  0.63060580537E+02  0.00000000000E+00 0.  1.
</event>
<event>
12    1  0.8113184E-002  0.1882644E+03  0.7818608E-02  0.1160632E+00
         21   -1    0    0  503  502  0.00000000000E+00  0.00000000000E+00  0.82679956315E+02  0.82679956315E+02  0.00000000000E+00 0. -1.
         21   -1    0    0  501  503 -0.00000000000E+00 -0.00000000000E+00 -0.55818388081E+03  0.55818388081E+03  0.00000000000E+00 0. -1.
          6    2    1    2  501    0  0.16086545113E+02 -0.72970011151E+02 -0.39431003735E+03  0.43583719087E+03  0.16997132680E+03 0.  0.
         24    2    3    3    0    0 -0.30577771156E+02 -0.94904363367E+02 -0.22975761973E+03  0.26333135803E+03  0.81320366600E+02 0.  0.
         -6    2    1    2    0  502 -0.16086545113E+02  0.72970011151E+02 -0.81193887145E+02  0.20502664625E+03  0.17280069127E+03 0.  0.
        -24    2    5    5    0    0 -0.20202549966E+01 -0.23132653915E+02 -0.80531313348E+01  0.83349849321E+02  0.79643853185E+02 0.  0.
          5    1    3    3  501    0  0.46664316269E+02  0.21934352216E+02 -0.16455241762E+03  0.17250583285E+03  0.47000000000E+01 0. -1.
        -11    1    4    4    0    0  0.19297430130E+02 -0.58411531211E+02 -0.77067859601E+02  0.98609090714E+02  0.00000000000E+00 0.  1.
         12    1    4    4    0    0 -0.49875201286E+02 -0.36492832157E+02 -0.15268976013E+03  0.16472226731E+03  0.00000000000E+00 0. -1.
         -5    1    5    5    0  502 -0.14066290116E+02  0.96102665066E+02 -0.73140755810E+02  0.12167679693E+03  0.47000000000E+01 0.  1.
         13    1    6    6    0    0  0.78776856176E+01  0.15623888243E+02 -0.32184999233E+02  0.36633836684E+02  0.00000000000E+00 0. -1.
        -14    1    6    6    0    0 -0.98979406143E+01 -0.38756542158E+02  0.24131867898E+02  0.46716012637E+02  0.00000000000E+00 0.  1.
</event>
<event>
12    1  0.8113184E-002  0.2140418E+03  0.7818608E-02  0.1138570E+00
         21   -1    0    0  501  502  0.00000000000E+00  0.00000000000E+00  0.60572177677E+02  0.60572177677E+02  0.00000000000E+00 0.  1.
         21   -1    0    0  502  503 -0.00000000000E+00 -0.00000000000E+00 -0.95083064066E+03  0.95083064066E+03  0.00000000000E+00 0.  1.
         -6    2    1    2    0  503  0.11106406751E+03 -0.59195846537E+02 -0.21395654096E+03  0.30203818403E+03  0.17207640121E+03 0.  0.
        -24    2    3    3    0    0  0.14029893671E+03 -0.24894418298E+02 -0.14018778550E+03  0.21546344847E+03  0.80426107207E+02 0.  0.
          6    2    1    2  501    0 -0.11106406751E+03  0.59195846537E+02 -0.67630192203E+03  0.70936463431E+03  0.17313150876E+03 0.  0.
         24    2    5    5    0    0 -0.64018974953E+02  0.10326622372E+03 -0.39545578218E+03  0.42117705105E+03  0.79009433305E+02 0.  0.
          5    1    5    5  501    0 -0.47045092562E+02 -0.44070377184E+02 -0.28084613984E+03  0.28818758326E+03  0.47000000000E+01 0. -1.
        -11    1    6    6    0    0 -0.47304647020E+02  0.19436079171E+02 -0.85289936228E+02  0.99447795476E+02  0.00000000000E+00 0.  1.
         12    1    6    6    0    0 -0.16714327933E+02  0.83830144549E+02 -0.31016584596E+03  0.32172925557E+03  0.00000000000E+00 0. -1.
         -5    1    3    3    0  503 -0.29234869191E+02 -0.34301428238E+02 -0.73768755458E+02  0.86574735562E+02  0.47000000000E+01 0.  1.
         13    1    4    4    0    0  0.20357236549E+02 -0.13817750452E+02  0.67037618378E+01  0.25500739798E+02  0.00000000000E+00 0. -1.
        -14    1    4    4    0    0  0.11994170016E+03 -0.11076667847E+02 -0.14689154734E+03  0.18996270867E+03  0.00000000000E+00 0.  1.
</event>
<event>
12    1  0.8113184E-002  0.2037122E+03  0.7818608E-02  0.1148859E+00
         21   -1    0    0  503  502  0.00000000000E+00  0.00000000000E+00  0.66748888443E+02  0.66748888443E+02  0.00000000000E+00 0. -1.
         21   -1    0    0  501  503 -0.00000000000E+00 -0.00000000000E+00 -0.10127269009E+04  0.10127269009E+04  0.00000000000E+00 0. -1.
          6    2    1    2  501    0  0.33930414414E+02  0.82369228001E+02 -0.82879898682E+03  0.85346728747E+03  0.18320122130E+03 0.  0.
         24    2    3    3    0    0  0.16031844736E+02 -0.55461039035E+01 -0.17079797477E+03  0.18936120691E+03  0.79987118854E+02 0.  0.
         -6    2    1    2    0  502 -0.33930414414E+02 -0.82369228001E+02 -0.11717902567E+03  0.22600850190E+03  0.17150205868E+03 0.  0.
        -24    2    5    5    0    0 -0.63361769585E+02 -0.98282048518E+02 -0.48464188106E+02  0.14943669622E+03  0.79425900960E+02 0.  0.
          5    1    3    3  501    0  0.17898569678E+02  0.87915331905E+02 -0.65800101205E+03  0.66410608056E+03  0.47000000000E+01 0. -1.
        -11    1    4    4    0    0 -0.30100814011E+02  0.73639030522E+01 -0.44013355802E+02  0.53828074099E+02  0.00000000000E+00 0.  1.
         12    1    4    4    0    0  0.46132658746E+02 -0.12910006956E+02 -0.12678461897E+03  0.13553313281E+03  0.00000000000E+00 0. -1.
         -5    1    5    5    0  502  0.29431355172E+02  0.15912820517E+02 -0.68714837563E+02  0.76571805682E+02  0.47000000000E+01 0.  1.
         11    1    6    6    0    0  0.18381846029E+02 -0.28152977902E+02 -0.10156637130E+02  0.35123207513E+02  0.00000000000E+00 0. -1.
        -12    1    6    6    0    0 -0.81743615615E+02 -0.70129070616E+02 -0.38307550977E+02  0.11431348871E+03  0.00000000000E+00 0.  1.
</event>
<event>
12    1  0.8113184E-002  0.2876210E+03  0.7818608E-02  0.1092088E+00
         21   -1    0    0  503  502  0.00000000000E+00  0.00000000000E+00  0.14532233729E+03  0.14532233729E+03  0.00000000000E+00 0.  1.
         21   -1    0    0  501  503 -0.00000000000E+00 -0.00000000000E+00 -0.56198256261E+03  0.56198256261E+03  0.00000000000E+00 0. -1.
          6    2    1    2  501    0  0.17857226476E+02  0.22575957404E+03 -0.20909540369E+03  0.35559346868E+03  0.17731204505E+03 0.  0.
         24    2    3    3    0    0  0.49674623552E+02  0.21986788747E+03 -0.13488488083E+03  0.27449876830E+03  0.79662955992E+02 0.  0.
         -6    2    1    2    0  502 -0.17857226476E+02 -0.22575957404E+03 -0.20756482164E+03  0.35171143122E+03  0.17126444424E+03 0.  0.
        -24    2    5    5    0    0 -0.50709899108E+02 -0.10033687634E+03 -0.39432135455E+02  0.13934184450E+03  0.72265300817E+02 0.  0.
          5    1    3    3  501    0 -0.31817397076E+02  0.58916865702E+01 -0.74210522860E+02  0.81094700384E+02  0.47000000000E+01 0. -1.
        -13    1    4    4    0    0  0.24190701128E+02  0.20965283277E+03 -0.11302226527E+03  0.23940244935E+03  0.00000000000E+00 0.  1.
         14    1    4    4    0    0  0.25483922424E+02  0.10215054698E+02 -0.21862615556E+02  0.35096318946E+02  0.00000000000E+00 0. -1.
         -5    1    5    5    0  502  0.32852672632E+02 -0.12542269770E+03 -0.16813268619E+03  0.21236958672E+03  0.47000000000E+01 0.  1.
         13    1    6    6    0    0 -0.35919772265E+02 -0.60640395873E+02 -0.59713177666E+02  0.92375057446E+02  0.00000000000E+00 0. -1.
        -14    1    6    6    0    0 -0.14790126843E+02 -0.39696480462E+02  0.20281042211E+02  0.46966787055E+02  0.00000000000E+00 0.  1.
</event>
<event>
12    1  0.8113184E-002  0.1773186E+03  0.7818608E-02  0.1170890E+00
         21   -1    0    0  501  502  0.00000000000E+00  0.00000000000E+00  0.10147799900E+04  0.10147799900E+04  0.00000000000E+00 0. -1.
         21   -1    0    0  502  503 -0.00000000000E+00 -0.00000000000E+00 -0.35915244848E+02  0.35915244848E+02  0.00000000000E+00 0. -1.
         -6    2    1    2    0  503  0.27567161460E+02  0.25709139220E+02  0.28618523889E+03  0.33568000137E+03  0.17134224269E+03 0.  0.
        -24    2    3    3    0    0  0.41600939426E+02  0.47927610496E+02  0.85284291850E+02  0.13301306299E+03  0.79946047316E+02 0.  0.
          6    2    1    2  501    0 -0.27567161460E+02 -0.25709139220E+02  0.69267950623E+03  0.71501523344E+03  0.17326562693E+03 0.  0.
         24    2    5    5    0    0 -0.55004798698E+02  0.37941027301E+02  0.35140552935E+03  0.36674208643E+03  0.80925042292E+02 0.  0.
          5    1    5    5  501    0  0.27437637238E+02 -0.63650166521E+02  0.34127397687E+03  0.34827314701E+03  0.47000000000E+01 0. -1.
        -11    1    6    6    0    0  0.18441140308E+02  0.40651642004E+01  0.31115697123E+02  0.36397634858E+02  0.00000000000E+00 0.  1.
         12    1    6    6    0    0 -0.73445939006E+02  0.33875863101E+02  0.32028983223E+03  0.33034445158E+03  0.00000000000E+00 0. -1.
         -5    1    3    3    0  503 -0.14033777965E+02 -0.22218471276E+02  0.20090094704E+03  0.20266693838E+03  0.47000000000E+01 0.  1.
         11    1    4    4    0    0  0.36088798955E+02  0.50708364941E+02  0.17094371548E+02  0.64544226881E+02  0.00000000000E+00 0. -1.
        -12    1    4    4    0    0  0.55121404705E+01 -0.27807544446E+01  0.68189920302E+02  0.68468836112E+02  0.00000000000E+00 0.  1.
</event>
<event>
12    1  0.8113184E-002  0.1823173E+03  0.7818608E-02  0.1165592E+00
         21   -1    0    0  503  502  0.00000000000E+00  0.00000000000E+00  0.54991363949E+03  0.54991363949E+03  0.00000000000E+00 0. -1.
         21   -1    0    0  501  503 -0.00000000000E+00 -0.00000000000E+00 -0.69319338803E+02  0.69319338803E+02  0.00000000000E+00 0. -1.
          6    2    1    2  501    0  0.44952884158E+01 -0.58810395661E+02  0.12943714083E+03  0.22359240575E+03  0.17251295669E+03 0.  0.
         24    2    3    3    0    0 -0.41680895194E+02 -0.88960577534E+02  0.99684227384E+02  0.16075452499E+03  0.79080912589E+02 0.  0.
         -6    2    1    2    0  502 -0.44952884158E+01  0.58810395661E+02  0.35115715986E+03  0.39564057254E+03  0.17245649152E+03 0.  0.
        -24    2    5    5    0    0 -0.35576368202E+02 -0.15658291414E+02  0.10767759676E+03  0.13909426772E+03  0.79005635262E+02 0.  0.
          5    1    3    3  501    0  0.46176183610E+02  0.30150181873E+02  0.29752913445E+02  0.62837880759E+02  0.47000000000E+01 0. -1.
        -13    1    4    4    0    0 -0.40332290439E+02 -0.69791900993E+02  0.11195498356E+03  0.13795478042E+03  0.00000000000E+00 0.  1.
         14    1    4    4    0    0 -0.13486047549E+01 -0.19168676541E+02 -0.12270756180E+02  0.22799744567E+02  0.00000000000E+00 0. -1.
         -5    1    5    5    0  502  0.31081079786E+02  0.74468687074E+02  0.24347956309E+03  0.25654630482E+03  0.47000000000E+01 0.  1.
         13    1    6    6    0    0 -0.23672381170E+02 -0.59596659162E+01  0.11806099159E+03  0.12055827215E+03  0.00000000000E+00 0. -1.
        -14    1    6    6    0    0 -0.11903987032E+02 -0.96986254974E+01 -0.10383394824E+02  0.18535995573E+02  0.00000000000E+00 0.  1.
</event>
<event>
12    1  0.8113184E-002  0.2177852E+03  0.7818608E-02  0.1135675E+00
         21   -1    0    0  501  502  0.00000000000E+00  0.00000000000E+00  0.20284503621E+03  0.20284503621E+03  0.00000000000E+00 0.  1.
         21   -1    0    0  502  503 -0.00000000000E+00 -0.00000000000E+00 -0.25595312481E+03  0.25595312481E+03  0.00000000000E+00 0. -1.
         -6    2    1    2    0  503 -0.41444084572E+01  0.13368820514E+03 -0.95156343080E+02  0.23766602377E+03  0.17187407283E+03 0.  0.
        -24    2    3    3    0    0 -0.65229433343E+02  0.11220565622E+03 -0.59442581735E+02  0.16356850072E+03  0.79851397236E+02 0.  0.
          6    2    1    2  501    0  0.41444084572E+01 -0.13368820514E+03  0.42048254474E+02  0.22113213725E+03  0.17100191258E+03 0.  0.
         24    2    5    5    0    0  0.35868596509E+02 -0.11422749584E+03 -0.23720410472E+02  0.14541720739E+03  0.79050802095E+02 0.  0.
          5    1    5    5  501    0 -0.31724188051E+02 -0.19460709298E+02  0.65768664946E+02  0.75714929853E+02  0.47000000000E+01 0. -1.
        -11    1    6    6    0    0  0.57225865773E+02 -0.52547883776E+02 -0.18954089858E+02  0.79970852973E+02  0.00000000000E+00 0.  1.
         12    1    6    6    0    0 -0.21357269265E+02 -0.61679612065E+02 -0.47663206138E+01  0.65446354422E+02  0.00000000000E+00 0. -1.
         -5    1    3    3    0  503  0.61085024886E+02  0.21482548915E+02 -0.35713761345E+02  0.74097523053E+02  0.47000000000E+01 0.  1.
         13    1    4    4    0    0 -0.84354964879E+01 -0.51407455542E+01 -0.27676307154E+02  0.29386439790E+02  0.00000000000E+00 0. -1.
        -14    1    4    4    0    0 -0.56793936855E+02  0.11734640178E+03 -0.31766274581E+02  0.13418206093E+03  0.00000000000E+00 0.  1.
</event>
<event>
12    1  0.8113184E-002  0.1986712E+03  0.7818608E-02  0.1154043E+00
         21   -1    0    0  503  502  0.00000000000E+00  0.00000000000E+00  0.35477442800E+03  0.35477442800E+03  0.00000000000E+00 0.  1.
         21   -1    0    0  501  503 -0.00000000000E+00 -0.00000000000E+00 -0.22012626603E+03  0.22012626603E+03  0.00000000000E+00 0.  1.
          6    2    1    2  501    0  0.39136921102E+02  0.90452100333E+02 -0.14077593481E+03  0.24349153374E+03  0.17250212212E+03 0.  0.
         24    2    3    3    0    0  0.39604848337E+02  0.41035433602E+02 -0.46386901334E+01  0.98585822002E+02  0.80281978244E+02 0.  0.
         -6    2    1    2    0  502 -0.39136921102E+02 -0.90452100333E+02  0.27542409678E+03  0.33140916029E+03  0.15575723864E+03 0.  0.
        -24    2    5    5    0    0  0.25863741990E+02 -0.41068295039E+02  0.19690296410E+03  0.21804468302E+03  0.80107231367E+02 0.  0.
          5    1    3    3  501    0 -0.46792723565E+00  0.49416666731E+02 -0.13613724468E+03  0.14490571174E+03  0.47000000000E+01 0. -1.
        -13    1    4    4    0    0  0.12691851120E+02 -0.96277209149E+01 -0.31455686458E+02  0.35259556228E+02  0.00000000000E+00 0.  1.
         14    1    4    4    0    0  0.26912997218E+02  0.50663154517E+02  0.26816996325E+02  0.63326265773E+02  0.00000000000E+00 0. -1.
         -5    1    5    5    0  502 -0.65000663092E+02 -0.49383805295E+02  0.78521132684E+02  0.11336447727E+03  0.47000000000E+01 0.  1.
         13    1    6    6    0    0  0.50515070427E+01 -0.62643845273E+02  0.11906700500E+03  0.13463551074E+03  0.00000000000E+00 0. -1.
        -14    1    6    6    0    0  0.20812234947E+02  0.21575550234E+02  0.77835959101E+02  0.83409172281E+02  0.00000000000E+00 0.  1.
</event>
<event>
12    1  0.8113184E-002  0.1740509E+03  0.7818608E-02  0.1173770E+00
         21   -1    0    0  501  502  0.00000000000E+00  0.00000000000E+00  0.55530966232E+03  0.55530966232E+03  0.00000000000E+00 0. -1.
         21   -1    0    0  502  503 -0.00000000000E+00 -0.00000000000E+00 -0.95958499716E+02  0.95958499716E+02  0.00000000000E+00 0. -1.
         -6    2    1    2    0  503 -0.23169091949E+02  0.26773674538E+01  0.15390832249E+02  0.17440917822E+03  0.17215605889E+03 0.  0.
        -24    2    3    3    0    0  0.41998117525E+02  0.10718116280E+02 -0.27742245070E+02  0.95707391767E+02  0.80694193007E+02 0.  0.
          6    2    1    2  501    0  0.23169091949E+02 -0.26773674538E+01  0.44396033036E+03  0.47685898382E+03  0.17248113055E+03 0.  0.
         24    2    5    5    0    0 -0.26971934482E+02 -0.43000217887E+02  0.35115144585E+03  0.36382963434E+03  0.80549121136E+02 0.  0.
          5    1    5    5  501    0  0.50141026431E+02  0.40322850433E+02  0.92808884509E+02  0.11302934947E+03  0.47000000000E+01 0. -1.
        -13    1    6    6    0    0  0.78309229447E+01 -0.13172530045E+02  0.73674036347E+01  0.17003456656E+02  0.00000000000E+00 0.  1.
         14    1    6    6    0    0 -0.34802857426E+02 -0.29827687842E+02  0.34378404221E+03  0.34682617769E+03  0.00000000000E+00 0. -1.
         -5    1    3    3    0  503 -0.65167209474E+02 -0.80407488259E+01  0.43133077319E+02  0.78701786456E+02  0.47000000000E+01 0.  1.
         13    1    4    4    0    0  0.64311563126E+02  0.16486653823E+02 -0.11178557785E+02  0.67325679055E+02  0.00000000000E+00 0. -1.
        -14    1    4    4    0    0 -0.22313445602E+02 -0.57685375435E+01 -0.16563687285E+02  0.28381712712E+02  0.00000000000E+00 0.  1.
</event>
<event>
12    1  0.8113184E-002  0.1877685E+03  0.7818608E-02  0.1160976E+00
         21   -1    0    0  503  502  0.00000000000E+00  0.00000000000E+00  0.78740002935E+02  0.78740002935E+02  0.00000000000E+00 0. -1.
         21   -1    0    0  501  503 -0.00000000000E+00 -0.00000000000E+00 -0.57042798887E+03  0.57042798887E+03  0.00000000000E+00 0. -1.
          6    2    1    2  501    0  0.52396272766E+02 -0.49026535054E+02 -0.40048943975E+03  0.44232206946E+03  0.17351671748E+03 0.  0.
         24    2    3    3    0    0  0.69399568419E+02  0.40834400485E+01 -0.35451255709E+03  0.36989455220E+03  0.79434577047E+02 0.  0.
         -6    2    1    2    0  502 -0.52396272766E+02  0.49026535054E+02 -0.91198546188E+02  0.20684592234E+03  0.17122818175E+03 0.  0.
        -24    2    5    5    0    0 -0.53447956281E+01  0.84257668642E+01 -0.11503336444E+03  0.14011922274E+03  0.79379854235E+02 0.  0.
          5    1    3    3  501    0 -0.17003295653E+02 -0.53109975103E+02 -0.45976882658E+02  0.72427517267E+02  0.47000000000E+01 0. -1.
        -11    1    4    4    0    0  0.25090033476E+02 -0.17266548599E+02 -0.34069381616E+02  0.45698645976E+02  0.00000000000E+00 0.  1.
         12    1    4    4    0    0  0.44309534943E+02  0.21349988648E+02 -0.32044317548E+03  0.32419590622E+03  0.00000000000E+00 0. -1.
         -5    1    5    5    0  502 -0.47051477138E+02  0.40600768190E+02  0.23834818257E+02  0.66726699603E+02  0.47000000000E+01 0.  1.
         11    1    6    6    0    0 -0.14261936951E+02 -0.20571862947E+02 -0.44179154163E+01  0.25418937179E+02  0.00000000000E+00 0. -1.
        -12    1    6    6    0    0  0.89171413232E+01  0.28997629811E+02 -0.11061544903E+03  0.11470028556E+03  0.00000000000E+00 0.  1.
</event>
<event>
12    1  0.8113184E-002  0.2056892E+03  0.7818608E-02  0.1145107E+00
         21   -1    0    0  503  502  0.00000000000E+00  0.00000000000E+00  0.16996506752E+03  0.16996506752E+03  0.00000000000E+00 0. -1.
         21   -1    0    0  501  503 -0.00000000000E+00 -0.00000000000E+00 -0.56221463666E+03  0.56221463666E+03  0.00000000000E+00 0. -1.
          6    2    1    2  501    0 -0.64309620181E+02  0.92739947561E+02 -0.46953326588E+03  0.51245070632E+03  0.17148706517E+03 0.  0.
         24    2    3    3    0    0 -0.71818351993E+02  0.70761269098E+02 -0.17357343593E+03  0.21554372711E+03  0.78525968628E+02 0.  0.
         -6    2    1    2    0  502  0.64309620181E+02 -0.92739947561E+02  0.77283696737E+02  0.21972899787E+03  0.17196405904E+03 0.  0.
        -24    2    5    5    0    0  0.51204386718E+02 -0.11683833518E+03  0.14487874341E+02  0.15104213784E+03  0.79565967054E+02 0.  0.
          5    1    3    3  501    0  0.75087318121E+01  0.21978678463E+02 -0.29595982994E+03  0.29690697920E+03  0.47000000000E+01 0. -1.
        -11    1    4    4    0    0 -0.13652814128E+02 -0.13663911110E+02 -0.82328033438E+01  0.20997162935E+02  0.00000000000E+00 0.  1.
         12    1    4    4    0    0 -0.58165537865E+02  0.84425180209E+02 -0.16534063259E+03  0.19454656418E+03  0.00000000000E+00 0. -1.
         -5    1    5    5    0  502  0.13105233463E+02  0.24098387622E+02  0.62795822396E+02  0.68686860027E+02  0.47000000000E+01 0.  1.
         11    1    6    6    0    0  0.68555367121E+02 -0.77473811003E+02  0.25681823623E+02  0.10659073983E+03  0.00000000000E+00 0. -1.
        -12    1    6    6    0    0 -0.17350980403E+02 -0.39364524179E+02 -0.11193949281E+02  0.44451398013E+02  0.00000000000E+00 0.  1.
</event>
<event>
12    1  0.8113184E-002  0.2298222E+03  0.7818608E-02  0.1127120E+00
         21   -1    0    0  501  502  0.00000000000E+00  0.00000000000E+00  0.34900368746E+03  0.34900368746E+03  0.00000000000E+00 0. -1.
         21   -1    0    0  502  503 -0.00000000000E+00 -0.00000000000E+00 -0.39640151804E+03  0.39640151804E+03  0.00000000000E+00 0. -1.
         -6    2    1    2    0  503  0.56582162748E+02 -0.13955567127E+03 -0.31756688151E+03  0.39200380912E+03  0.17361145010E+03 0.  0.
        -24    2    3    3    0    0  0.89910477090E+02 -0.14629240346E+03 -0.29702294681E+03  0.35200001742E+03  0.78714802457E+02 0.  0.
          6    2    1    2  501    0 -0.56582162748E+02  0.13955567127E+03  0.27016905093E+03  0.35340139638E+03  0.17095000542E+03 0.  0.
         24    2    5    5    0    0 -0.10366107053E+03  0.10712676000E+03  0.17589620688E+03  0.24304960904E+03  0.76888728734E+02 0.  0.
          5    1    5    5  501    0  0.47078907780E+02  0.32428911276E+02  0.94272844048E+02  0.11035178734E+03  0.47000000000E+01 0. -1.
        -11    1    6    6    0    0  0.12320728543E+02  0.12463415103E+02  0.24592642876E+02  0.30198264048E+02  0.00000000000E+00 0.  1.
         12    1    6    6    0    0 -0.11598179907E+03  0.94663344893E+02  0.15130356401E+03  0.21285134499E+03  0.00000000000E+00 0. -1.
         -5    1    3    3    0  503 -0.33328314343E+02  0.67367321903E+01 -0.20543934695E+02  0.40003791699E+02  0.47000000000E+01 0.  1.
         13    1    4    4    0    0  0.91555513106E+02 -0.14433293918E+03 -0.30165214410E+03  0.34671086708E+03  0.00000000000E+00 0. -1.
        -14    1    4    4    0    0 -0.16450360160E+01 -0.19594642836E+01  0.46291972852E+01  0.52891503361E+01  0.00000000000E+00 0.  1.
</event>
<event>
12    1  0.8113184E-002  0.1822564E+03  0.7818608E-02  0.1165703E+00
         21   -1    0    0  503  502  0.00000000000E+00  0.00000000000E+00  0.71038935876E+02  0.71038935876E+02  0.00000000000E+00 0.  1.
         21   -1    0    0  501  503 -0.00000000000E+00 -0.00000000000E+00 -0.60145878714E+03  0.60145878714E+03  0.00000000000E+00 0.  1.
          6    2    1    2  501    0 -0.49472625114E+02  0.35800573033E+02 -0.42410518872E+03  0.46149962438E+03  0.17142774145E+03 0.  0.
         24    2    3    3    0    0 -0.93772786948E+02  0.53357537156E+02 -0.28675281102E+03  0.31603994960E+03  0.77548131969E+02 0.  0.
         -6    2    1    2    0  502  0.49472625114E+02 -0.35800573033E+02 -0.10631466254E+03  0.21099809863E+03  0.17172119406E+03 0.  0.
        -24    2    5    5    0    0  0.66774548666E+02 -0.46910770088E+00 -0.91190076778E+01  0.10603737109E+03  0.81863956390E+02 0.  0.
          5    1    3    3  501    0  0.44300161834E+02 -0.17556964123E+02 -0.13735237770E+03  0.14545967478E+03  0.47000000000E+01 0. -1.
        -13    1    4    4    0    0 -0.12953546907E+02  0.23063739429E+02 -0.16317547309E+03  0.16530567284E+03  0.00000000000E+00 0.  1.
         14    1    4    4    0    0 -0.80819240041E+02  0.30293797727E+02 -0.12357733793E+03  0.15073427677E+03  0.00000000000E+00 0. -1.
         -5    1    5    5    0  502 -0.17301923552E+02 -0.35331465332E+02 -0.97195654864E+02  0.10496072754E+03  0.47000000000E+01 0.  1.
         13    1    6    6    0    0  0.38045728531E+02  0.14162985507E+02 -0.43090945728E+02  0.59202172441E+02  0.00000000000E+00 0. -1.
        -14    1    6    6    0    0  0.28728820134E+02 -0.14632093207E+02  0.33971938050E+02  0.46835198653E+02  0.00000000000E+00 0.  1.
</event>
<event>
12    1  0.8113184E-002  0.2311316E+03  0.7818608E-02  0.1126835E+00
         21   -1    0    0  501  502  0.00000000000E+00  0.00000000000E+00  0.11233594682E+03  0.11233594682E+03  0.00000000000E+00 0. -1.
         21   -1    0    0  502  503 -0.00000000000E+00 -0.00000000000E+00 -0.47101194981E+03  0.47101194981E+03  0.00000000000E+00 0.  1.
         -6    2    1    2    0  503  0.15468441982E+03  0.11958419347E+02 -0.14625727214E+03  0.27351964879E+03  0.17132289715E+03 0.  0.
        -24    2    3    3    0    0  0.11270083532E+03 -0.15474106983E+02 -0.23434301092E+02  0.14076899121E+03  0.79534999525E+02 0.  0.
          6    2    1    2  501    0 -0.15468441982E+03 -0.11958419347E+02 -0.21241873085E+03  0.30982824785E+03  0.16371179683E+03 0.  0.
         24    2    5    5    0    0 -0.11220548017E+03  0.49716963516E+02 -0.16670849736E+03  0.22196569262E+03  0.80094939712E+02 0.  0.
          5    1    5    5  501    0 -0.42478939650E+02 -0.61675382863E+02 -0.45710233486E+02  0.87862555223E+02  0.47000000000E+01 0. -1.
        -13    1    6    6    0    0  0.10657122466E+02  0.12443092102E+02 -0.31523653090E+02  0.35526687215E+02  0.00000000000E+00 0.  1.
         14    1    6    6    0    0 -0.12286260264E+03  0.37273871414E+02 -0.13518484427E+03  0.18643900541E+03  0.00000000000E+00 0. -1.
         -5    1    3    3    0  503  0.41983584499E+02  0.27432526330E+02 -0.12282297105E+03  0.13275065757E+03  0.47000000000E+01 0.  1.
         13    1    4    4    0    0  0.33713224773E+02 -0.42617833712E+02 -0.17278186504E+02  0.57021022472E+02  0.00000000000E+00 0. -1.
        -14    1    4    4    0    0  0.78987610549E+02  0.27143726729E+02 -0.61561145877E+01  0.83747968739E+02  0.00000000000E+00 0.  1.
</event>
<event>
12    1  0.8113184E-002  0.2494589E+03  0.7818608E-02  0.1114286E+00
         21   -1    0    0  501  502  0.00000000000E+00  0.00000000000E+00  0.12454444383E+04  0.12454444383E+04  0.00000000000E+00 0.  1.
         21   -1    0    0  502  503 -0.00000000000E+00 -0.00000000000E+00 -0.49598153604E+02  0.49598153604E+02  0.00000000000E+00 0.  1.
         -6    2    1    2    0  503 -0.43495126682E+02 -0.17468164244E+03  0.53286245142E+03  0.58668018088E+03  0.16687042954E+03 0.  0.
        -24    2    3    3    0    0  0.19866392881E+02 -0.30777577102E+02  0.21935204979E+03  0.23591826147E+03  0.78741167932E+02 0.  0.
          6    2    1    2  501    0  0.43495126682E+02  0.17468164244E+03  0.66298383323E+03  0.70836241098E+03  0.17269695975E+03 0.  0.
         24    2    5    5    0    0  0.96799652540E+02  0.12411640283E+03  0.48410001454E+03  0.51492061993E+03  0.77558794266E+02 0.  0.
          5    1    5    5  501    0 -0.53304525858E+02  0.50565239609E+02  0.17888381869E+03  0.19344179105E+03  0.47000000000E+01 0. -1.
        -11    1    6    6    0    0  0.26130694142E+02  0.84285893438E+02  0.31881409229E+03  0.33080107384E+03  0.00000000000E+00 0.  1.
         12    1    6    6    0    0  0.70668958398E+02  0.39830509395E+02  0.16528592225E+03  0.18411954609E+03  0.00000000000E+00 0. -1.
         -5    1    3    3    0  503 -0.63361519563E+02 -0.14390406534E+03  0.31351040163E+03  0.35076191941E+03  0.47000000000E+01 0.  1.
         13    1    4    4    0    0 -0.14320073122E+02 -0.27444025554E+01  0.16595482204E+03  0.16659411514E+03  0.00000000000E+00 0. -1.
        -14    1    4    4    0    0  0.34186466003E+02 -0.28033174546E+02  0.53397227753E+02  0.69324146331E+02  0.00000000000E+00 0.  1.
</event>
<event>
12    1  0.8113184E-002  0.2454102E+03  0.7818608E-02  0.1117060E+00
         21   -1    0    0  503  502  0.00000000000E+00  0.00000000000E+00  0.11978787733E+03  0.11978787733E+03  0.00000000000E+00 0. -1.
         21   -1    0    0  501  503 -0.00000000000E+00 -0.00000000000E+00 -0.71627020128E+03  0.71627020128E+03  0.00000000000E+00 0. -1.
          6    2    1    2  501    0  0.16563975510E+03 -0.50609506145E+02 -0.53396427942E+03  0.58765976123E+03  0.17386285595E+03 0.  0.
         24    2    3    3    0    0  0.13264370549E+03  0.25654340208E+02 -0.28163499838E+03  0.32195867048E+03  0.78016763634E+02 0.  0.
         -6    2    1    2    0  502 -0.16563975510E+03  0.50609506145E+02 -0.62518044525E+02  0.24839831738E+03  0.16671942779E+03 0.  0.
        -24    2    5    5    0    0 -0.19010188980E+03  0.55779318787E+02 -0.48407703957E+02  0.21930682880E+03  0.80635714456E+02 0.  0.
          5    1    3    3  501    0  0.32996049613E+02 -0.76263846353E+02 -0.25232928105E+03  0.26570109075E+03  0.47000000000E+01 0. -1.
        -11    1    4    4    0    0  0.71484884341E+02  0.23076822951E+02 -0.22973839581E+03  0.24170717605E+03  0.00000000000E+00 0.  1.
         12    1    4    4    0    0  0.61158821148E+02  0.25775172569E+01 -0.51896602570E+02  0.80251494427E+02  0.00000000000E+00 0. -1.
         -5    1    5    5    0  502  0.24462134700E+02 -0.51698126420E+01 -0.14110340569E+02  0.29091488580E+02  0.47000000000E+01 0.  1.
         13    1    6    6    0    0 -0.56111354795E+02  0.46997718832E+02  0.80659552992E+01  0.73636467509E+02  0.00000000000E+00 0. -1.
        -14    1    6    6    0    0 -0.13399053501E+03  0.87815999552E+01 -0.56473659256E+02  0.14567036129E+03  0.00000000000E+00 0.  1.
</event>
<event>
12    1  0.8113184E-002  0.2188100E+03  0.7818608E-02  0.1134866E+00
         21   -1    0    0  501  502  0.00000000000E+00  0.00000000000E+00  0.17739779656E+03  0.17739779656E+03  0.00000000000E+00 0. -1.
         21   -1    0    0  502  503 -0.00000000000E+00 -0.00000000000E+00 -0.39840179925E+03  0.39840179925E+03  0.00000000000E+00 0. -1.
         -6    2    1    2    0  503  0.94659280703E+02 -0.95944557851E+02 -0.27431788893E+03  0.35058812239E+03  0.17174396574E+03 0.  0.
        -24    2    3    3    0    0 -0.77135474077E+01 -0.62487775837E+02 -0.17671516439E+03  0.20516482977E+03  0.83067063918E+02 0.  0.
          6    2    1    2  501    0 -0.94659280703E+02  0.95944557851E+02  0.53313886242E+02  0.22521147341E+03  0.17237198057E+03 0.  0.
         24    2    5    5    0    0 -0.13272948759E+03  0.79881114213E+02  0.28020188293E+02  0.17653667470E+03  0.79887153389E+02 0.  0.
          5    1    5    5  501    0  0.38070206889E+02  0.16063443638E+02  0.25293697949E+02  0.48674798715E+02  0.47000000000E+01 0. -1.
        -11    1    6    6    0    0 -0.30545215856E+02 -0.99427941863E+01  0.24569371838E+02  0.40441604820E+02  0.00000000000E+00 0.  1.
         12    1    6    6    0    0 -0.10218427174E+03  0.89823908399E+02  0.34508164550E+01  0.13609506988E+03  0.00000000000E+00 0. -1.
         -5    1    3    3    0  503  0.10237282811E+03 -0.33456782014E+02 -0.97602724549E+02  0.14542329262E+03  0.47000000000E+01 0.  1.
         13    1    4    4    0    0  0.37704912950E+02 -0.29135366920E+02 -0.87832177804E+02  0.99925079554E+02  0.00000000000E+00 0. -1.
        -14    1    4    4    0    0 -0.45418460357E+02 -0.33352408918E+02 -0.88882986582E+02  0.10523975022E+03  0.00000000000E+00 0.  1.
</event>
<event>
12    1  0.8113184E-002  0.3049975E+03  0.7818608E-02  0.1082834E+00
         21   -1    0    0  503  502  0.00000000000E+00  0.00000000000E+00  0.17098067952E+03  0.17098067952E+03  0.00000000000E+00 0.  1.
         21   -1    0    0  501  503 -0.00000000000E+00 -0.00000000000E+00 -0.81719698548E+03  0.81719698548E+03  0.00000000000E+00 0.  1.
          6    2    1    2  501    0 -0.24965812301E+03  0.31218751090E+02 -0.60906557901E+03  0.68092588700E+03  0.17145085375E+03 0.  0.
         24    2    3    3    0    0 -0.61014315980E+02  0.41985153094E+02 -0.28909580827E+03  0.30930088040E+03  0.81272064227E+02 0.  0.
         -6    2    1    2    0  502  0.24965812301E+03 -0.31218751090E+02 -0.37150726955E+02  0.30725177801E+03  0.17239399575E+03 0.  0.
        -24    2    5    5    0    0  0.61521334476E+02 -0.13466643840E+02 -0.49308686695E+02  0.11783030484E+03  0.86524037492E+02 0.  0.
          5    1    3    3  501    0 -0.18864380703E+03 -0.10766402005E+02 -0.31996977074E+03  0.37162500660E+03  0.47000000000E+01 0. -1.
        -13    1    4    4    0    0 -0.51445775689E+02  0.64195883553E+02 -0.25136551374E+03  0.26448516177E+03  0.00000000000E+00 0.  1.
         14    1    4    4    0    0 -0.95685402911E+01 -0.22210730458E+02 -0.37730294529E+02  0.44815718627E+02  0.00000000000E+00 0. -1.
         -5    1    5    5    0  502  0.18813678853E+03 -0.17752107250E+02  0.12157959740E+02  0.18942147316E+03  0.47000000000E+01 0.  1.
         11    1    6    6    0    0  0.51820353639E+02  0.17356285165E+01 -0.72074770605E+02  0.88787014903E+02  0.00000000000E+00 0. -1.
        -12    1    6    6    0    0  0.97009808374E+01 -0.15202272356E+02  0.22766083910E+02  0.29043289941E+02  0.00000000000E+00 0.  1.
</event>
<event>
12    1  0.8113184E-002  0.1908602E+03  0.7818608E-02  0.1158049E+00
         21   -1    0    0  503  502  0.00000000000E+00  0.00000000000E+00  0.36589355002E+03  0.36589355002E+03  0.00000000000E+00 0.  1.
         21   -1    0    0  501  503 -0.00000000000E+00 -0.00000000000E+00 -0.98889308458E+02  0.98889308458E+02  0.00000000000E+00 0. -1.
          6    2    1    2  501    0 -0.57448533685E+02  0.58349700406E+02  0.14244102854E+03  0.23687148024E+03  0.17062716660E+03 0.  0.
         24    2    3    3    0    0 -0.30846592423E+02  0.68059777813E+02  0.16652738809E+03  0.19939893564E+03  0.80280252443E+02 0.  0.
         -6    2    1    2    0  502  0.57448533685E+02 -0.58349700406E+02  0.12456321303E+03  0.22791137824E+03  0.17240238029E+03 0.  0.
        -24    2    5    5    0    0  0.51584464688E+02  0.25775360442E+02  0.49743343177E+02  0.11507735814E+03  0.86273240126E+02 0.  0.
          5    1    3    3  501    0 -0.26601941261E+02 -0.97100774071E+01 -0.24086359552E+02  0.37472544598E+02  0.47000000000E+01 0. -1.
        -11    1    4    4    0    0 -0.19518823695E+02 -0.12526506841E+02  0.66625740661E+02  0.70547056428E+02  0.00000000000E+00 0.  1.
         12    1    4    4    0    0 -0.11327768728E+02  0.80586284654E+02  0.99901647427E+02  0.12885187922E+03  0.00000000000E+00 0. -1.
         -5    1    5    5    0  502  0.58640689964E+01 -0.84125060847E+02  0.74819869849E+02  0.11283402010E+03  0.47000000000E+01 0.  1.
         11    1    6    6    0    0  0.12668888718E+02  0.39069860834E+02 -0.10259581263E+02  0.42334545877E+02  0.00000000000E+00 0. -1.
        -12    1    6    6    0    0  0.38915575970E+02 -0.13294500392E+02  0.60002924440E+02  0.72742812258E+02  0.00000000000E+00 0.  1.
</event>
<event>
12    1  0.8113184E-002  0.1809836E+03  0.7818608E-02  0.1166889E+00
         21   -1    0    0  503  502  0.00000000000E+00  0.00000000000E+00  0.43471739235E+03  0.43471739235E+03  0.00000000000E+00 0.  1.
         21   -1    0    0  501  503 -0.00000000000E+00 -0.00000000000E+00 -0.87572785413E+02  0.87572785413E+02  0.00000000000E+00 0.  1.
          6    2    1    2  501    0 -0.38947281388E+02  0.42062525525E+02  0.75700920490E+02  0.19604374434E+03  0.17151202159E+03 0.  0.
         24    2    3    3    0    0 -0.64017185339E+02 -0.21153382056E+02  0.20854350738E+02  0.10855096024E+03  0.82478733221E+02 0.  0.
         -6    2    1    2    0  502  0.38947281388E+02 -0.42062525525E+02  0.27144368645E+03  0.32624643343E+03  0.17166512060E+03 0.  0.
        -24    2    5    5    0    0  0.68124014343E+02 -0.77403678239E+02  0.16499706907E+03  0.21025828243E+03  0.79701328672E+02 0.  0.
          5    1    3    3  501    0  0.25069903951E+02  0.63215907581E+02  0.54846569752E+02  0.87492784097E+02  0.47000000000E+01 0. -1.
        -13    1    4    4    0    0 -0.22889326955E+02 -0.18873041001E+02 -0.30613296533E+02  0.42629648013E+02  0.00000000000E+00 0.  1.
         14    1    4    4    0    0 -0.41127858384E+02 -0.22803410548E+01  0.51467647270E+02  0.65921312230E+02  0.00000000000E+00 0. -1.
         -5    1    5    5    0  502 -0.29176732956E+02  0.35341152714E+02  0.10644661738E+03  0.11598815100E+03  0.47000000000E+01 0.  1.
         13    1    6    6    0    0  0.57252115019E+02 -0.70792929141E+02  0.71142737822E+02  0.11554537046E+03  0.00000000000E+00 0. -1.
        -14    1    6    6    0    0  0.10871899325E+02 -0.66107490981E+01  0.93854331253E+02  0.94712911968E+02  0.00000000000E+00 0.  1.
</event>
<event>
12    1  0.8113184E-002  0.2554818E+03  0.7818608E-02  0.1110107E+00
         21   -1    0    0  503  502  0.00000000000E+00  0.00000000000E+00  0.12060433850E+03  0.12060433850E+03  0.00000000000E+00 0. -1.
         21   -1    0    0  501  503 -0.00000000000E+00 -0.00000000000E+00 -0.83153677593E+03  0.83153677593E+03  0.00000000000E+00 0. -1.
          6    2    1    2  501    0 -0.17525427523E+03 -0.63551931310E+02 -0.63886627755E+03  0.68805599978E+03  0.17469410202E+03 0.  0.
         24    2    3    3    0    0 -0.23873510472E+02 -0.63285872565E+02 -0.23387068039E+03  0.25566759747E+03  0.78072908773E+02 0.  0.
         -6    2    1    2    0  502  0.17525427523E+03  0.63551931310E+02 -0.72066159882E+02  0.26408511465E+03  0.17261085545E+03 0.  0.
        -24    2    5    5    0    0  0.33328690434E+02  0.44284051529E+02 -0.71927880543E+02  0.12078043248E+03  0.79639274506E+02 0.  0.
          5    1    3    3  501    0 -0.15138076476E+03 -0.26605874473E+00 -0.40499559716E+03  0.43238840230E+03  0.47000000000E+01 0. -1.
        -11    1    4    4    0    0  0.20444052464E+02 -0.26040949896E+01 -0.10044772875E+03  0.10254017165E+03  0.00000000000E+00 0.  1.
         12    1    4    4    0    0 -0.44317562935E+02 -0.60681777576E+02 -0.13342295164E+03  0.15312742582E+03  0.00000000000E+00 0. -1.
         -5    1    5    5    0  502  0.14192558480E+03  0.19267879781E+02 -0.13827933938E+00  0.14330468217E+03  0.47000000000E+01 0.  1.
         13    1    6    6    0    0  0.59577276509E+02  0.26915896545E+02 -0.45084254230E+02  0.79413521157E+02  0.00000000000E+00 0. -1.
        -14    1    6    6    0    0 -0.26248586075E+02  0.17368154984E+02 -0.26843626313E+02  0.41366911319E+02  0.00000000000E+00 0.  1.
</event>
<event>
12    1  0.8113184E-002  0.2059743E+03  0.7818608E-02  0.1144992E+00
         21   -1    0    0  503  502  0.00000000000E+00  0.00000000000E+00  0.20016931518E+03  0.20016931518E+03  0.00000000000E+00 0.  1.
         21   -1    0    0  501  503 -0.00000000000E+00 -0.00000000000E+00 -0.22526082525E+03  0.22526082525E+03  0.00000000000E+00 0. -1.
          6    2    1    2  501    0  0.10109969173E+03 -0.52117733780E+02  0.41103700632E+02  0.20908036462E+03  0.17055110326E+03 0.  0.
         24    2    3    3    0    0  0.68647445912E+02 -0.99484703201E+02  0.43639312117E+02  0.15141497313E+03  0.80077628110E+02 0.  0.
         -6    2    1    2    0  502 -0.10109969173E+03  0.52117733780E+02 -0.66195210699E+02  0.21634977581E+03  0.17172074345E+03 0.  0.
        -24    2    5    5    0    0 -0.27132342924E+02  0.85707666413E+02 -0.62078151221E+02  0.13487283157E+03  0.79088657355E+02 0.  0.
          5    1    3    3  501    0  0.32452245817E+02  0.47366969420E+02 -0.25356114846E+01  0.57665391495E+02  0.47000000000E+01 0. -1.
        -11    1    4    4    0    0  0.22861674483E+02 -0.26855458983E+02  0.54456433777E+02  0.64879696494E+02  0.00000000000E+00 0.  1.
         12    1    4    4    0    0  0.45785771429E+02 -0.72629244217E+02 -0.10817121660E+02  0.86535276633E+02  0.00000000000E+00 0. -1.
         -5    1    5    5    0  502 -0.73967348805E+02 -0.33589932632E+02 -0.41170594780E+01  0.81476944237E+02  0.47000000000E+01 0.  1.
         11    1    6    6    0    0 -0.22366586044E+02 -0.60995001493E+01  0.12881178727E+01  0.23219115422E+02  0.00000000000E+00 0. -1.
        -12    1    6    6    0    0 -0.47657568807E+01  0.91807166562E+02 -0.63366269093E+02  0.11165371615E+03  0.00000000000E+00 0.  1.
</event>
<event>
12    1  0.8113184E-002  0.1844067E+03  0.7818608E-02  0.1163624E+00
         21   -1    0    0  503  502  0.00000000000E+00  0.00000000000E+00  0.10440638129E+04  0.10440638129E+04  0.00000000000E+00 0. -1.
         21   -1    0    0  501  503 -0.00000000000E+00 -0.00000000000E+00 -0.37019354484E+02  0.37019354484E+02  0.00000000000E+00 0. -1.
          6    2    1    2  501    0  0.66211065865E+02 -0.12195677973E+02  0.31593994228E+03  0.36581944259E+03  0.17167753971E+03 0.  0.
         24    2    3    3    0    0 -0.69926616191E+01 -0.56483844367E+02  0.15679708239E+03  0.18507440876E+03  0.80174121385E+02 0.  0.
         -6    2    1    2    0  502 -0.66211065865E+02  0.12195677973E+02  0.69110451611E+03  0.71526372477E+03  0.17159284362E+03 0.  0.
        -24    2    5    5    0    0 -0.30358801103E+02  0.52200710687E+02  0.60789603852E+03  0.61610966145E+03  0.80043427461E+02 0.  0.
          5    1    3    3  501    0  0.73203727484E+02  0.44288166393E+02  0.15914285989E+03  0.18074503383E+03  0.47000000000E+01 0. -1.
        -13    1    4    4    0    0 -0.41296541443E+02 -0.32241802355E+02  0.60611108995E+02  0.80116444553E+02  0.00000000000E+00 0.  1.
         14    1    4    4    0    0  0.34303879824E+02 -0.24242042012E+02  0.96185973394E+02  0.10495796420E+03  0.00000000000E+00 0. -1.
         -5    1    5    5    0  502 -0.35852264761E+02 -0.40005032714E+02  0.83208477593E+02  0.99154063327E+02  0.47000000000E+01 0.  1.
         13    1    6    6    0    0 -0.48368181883E+02  0.49874072746E+02  0.31131619023E+03  0.31897441033E+03  0.00000000000E+00 0. -1.
        -14    1    6    6    0    0  0.18009380780E+02  0.23266379414E+01  0.29657984829E+03  0.29713525111E+03  0.00000000000E+00 0.  1.
</event>
<event>
12    1  0.8113184E-002  0.1846382E+03  0.7818608E-02  0.1163552E+00
         21   -1    0    0  503  502  0.00000000000E+00  0.00000000000E+00  0.88338564439E+03  0.88338564439E+03  0.00000000000E+00 0. -1.
         21   -1    0    0  501  503 -0.00000000000E+00 -0.00000000000E+00 -0.45151961927E+02  0.45151961927E+02  0.00000000000E+00 0. -1.
          6    2    1    2  501    0 -0.46030688315E+02 -0.47528802252E+02  0.23952055977E+03  0.30200054819E+03  0.17162873083E+03 0.  0.
         24    2    3    3    0    0  0.31934832195E+02 -0.97571220459E+01  0.70850395935E+02  0.11232441268E+03  0.80510621301E+02 0.  0.
         -6    2    1    2    0  502  0.46030688315E+02  0.47528802252E+02  0.59871312270E+03  0.62653705813E+03  0.17237595716E+03 0.  0.
        -24    2    5    5    0    0 -0.36070186409E+02  0.40028066021E+02  0.25014090595E+03  0.26831716064E+03  0.80748507372E+02 0.  0.
          5    1    3    3  501    0 -0.77965520510E+02 -0.37771680206E+02  0.16867016383E+03  0.18967613551E+03  0.47000000000E+01 0. -1.
        -13    1    4    4    0    0  0.23431760667E+02 -0.11054989725E+02  0.88755861843E+02  0.92460062823E+02  0.00000000000E+00 0.  1.
         14    1    4    4    0    0  0.85030715281E+01  0.12978676793E+01 -0.17905465908E+02  0.19864349859E+02  0.00000000000E+00 0. -1.
         -5    1    5    5    0  502  0.82100874725E+02  0.75007362312E+01  0.34857221675E+03  0.35821989750E+03  0.47000000000E+01 0.  1.
         13    1    6    6    0    0  0.25074140979E+02  0.19890663290E+02  0.98770621420E+02  0.10382671471E+03  0.00000000000E+00 0. -1.
        -14    1    6    6    0    0 -0.61144327388E+02  0.20137402730E+02  0.15137028453E+03  0.16449044592E+03  0.00000000000E+00 0.  1.
</event>
<event>
12    1  0.8113184E-002  0.1898650E+03  0.7818608E-02  0.1159537E+00
         21   -1    0    0  501  502  0.00000000000E+00  0.00000000000E+00  0.35360013219E+02  0.35360013219E+02  0.00000000000E+00 0.  1.
         21   -1    0    0  502  503 -0.00000000000E+00 -0.00000000000E+00 -0.21730957797E+04  0.21730957797E+04  0.00000000000E+00 0. -1.
         -6    2    1    2    0  503 -0.15229816062E+02 -0.76822939988E+02 -0.18756742331E+04  0.18848434475E+04  0.16836650945E+03 0.  0.
        -24    2    3    3    0    0 -0.73656124140E+01 -0.16202411657E+02 -0.42079868375E+03  0.42867668225E+03  0.79846072347E+02 0.  0.
          6    2    1    2  501    0  0.15229816062E+02  0.76822939988E+02 -0.26206153338E+03  0.32361234541E+03  0.17295950803E+03 0.  0.
         24    2    5    5    0    0  0.26874190068E+02 -0.16109364788E+02 -0.72911986020E+02  0.11249236534E+03  0.79728544630E+02 0.  0.
          5    1    5    5  501    0 -0.11644374006E+02  0.92932304776E+02 -0.18914954736E+03  0.21111998007E+03  0.47000000000E+01 0. -1.
        -13    1    6    6    0    0  0.14549091009E+02  0.32445538519E+02 -0.29370712197E+02  0.46119711122E+02  0.00000000000E+00 0.  1.
         14    1    6    6    0    0  0.12325099059E+02 -0.48554903307E+02 -0.43541273823E+02  0.66372654219E+02  0.00000000000E+00 0. -1.
         -5    1    3    3    0  503 -0.78642036483E+01 -0.60620528331E+02 -0.14548755494E+04  0.14561667653E+04  0.47000000000E+01 0.  1.
         13    1    4    4    0    0 -0.36181706529E+02 -0.30044746897E+02 -0.19308857642E+03  0.19873349252E+03  0.00000000000E+00 0. -1.
        -14    1    4    4    0    0  0.28816094115E+02  0.13842335240E+02 -0.22771010733E+03  0.22994318974E+03  0.00000000000E+00 0.  1.
</event>
<event>
12    1  0.8113184E-002  0.1963038E+03  0.7818608E-02  0.1153461E+00
         21   -1    0    0  503  502  0.00000000000E+00  0.00000000000E+00  0.96491061001E+02  0.96491061001E+02  0.00000000000E+00 0. -1.
         21   -1    0    0  501  503 -0.00000000000E+00 -0.00000000000E+00 -0.41486579881E+03  0.41486579881E+03  0.00000000000E+00 0. -1.
          6    2    1    2  501    0  0.47147595256E+02 -0.79740754049E+02 -0.10097224780E+03  0.21844214153E+03  0.17011787318E+03 0.  0.
         24    2    3    3    0    0  0.88122433594E+02 -0.55715350937E+02 -0.10805395338E+03  0.17018866574E+03  0.80117173397E+02 0.  0.
         -6    2    1    2    0  502 -0.47147595256E+02  0.79740754049E+02 -0.21740249000E+03  0.29291471828E+03  0.17307138969E+03 0.  0.
        -24    2    5    5    0    0 -0.76419674678E+01 -0.23991081789E+02 -0.11262154743E+03  0.14019888963E+03  0.79612461554E+02 0.  0.
          5    1    3    3  501    0 -0.40974838339E+02 -0.24025403112E+02  0.70817055842E+01  0.48253475788E+02  0.47000000000E+01 0. -1.
        -13    1    4    4    0    0 -0.20658223610E+01 -0.38006485009E+02 -0.43898010349E+02  0.58101599267E+02  0.00000000000E+00 0.  1.
         14    1    4    4    0    0  0.90188255955E+02 -0.17708865928E+02 -0.64155943034E+02  0.11208706648E+03  0.00000000000E+00 0. -1.
         -5    1    5    5    0  502 -0.39505627788E+02  0.10373183584E+03 -0.10478094257E+03  0.15271582865E+03  0.47000000000E+01 0.  1.
         13    1    6    6    0    0  0.24269723369E+02 -0.11113383122E+02 -0.10007040487E+03  0.10356936172E+03  0.00000000000E+00 0. -1.
        -14    1    6    6    0    0 -0.31911690837E+02 -0.12877698666E+02 -0.12551142565E+02  0.36629527907E+02  0.00000000000E+00 0.  1.
</event>
<event>
12    1  0.8113184E-002  0.2111298E+03  0.7818608E-02  0.1140792E+00
         21   -1    0    0  503  502  0.00000000000E+00  0.00000000000E+00  0.29287124898E+03  0.29287124898E+03  0.00000000000E+00 0.  1.
         21   -1    0    0  501  503 -0.00000000000E+00 -0.00000000000E+00 -0.17628926618E+03  0.17628926618E+03  0.00000000000E+00 0.  1.
          6    2    1    2  501    0 -0.55078568505E+02 -0.10776438890E+03 -0.29119535285E+02  0.21312845844E+03  0.17299994289E+03 0.  0.
         24    2    3    3    0    0 -0.41473705604E+02 -0.21077595018E+02 -0.72559844945E+02  0.11510375221E+03  0.76286364490E+02 0.  0.
         -6    2    1    2    0  502  0.55078568505E+02  0.10776438890E+03  0.14570151808E+03  0.25603205672E+03  0.17226917737E+03 0.  0.
        -24    2    5    5    0    0  0.16045204331E+02  0.12916532355E+03  0.67986117662E+02  0.16634718071E+03  0.78154609235E+02 0.  0.
          5    1    3    3  501    0 -0.13604862901E+02 -0.86686793878E+02  0.43440309661E+02  0.98024706226E+02  0.47000000000E+01 0. -1.
        -11    1    4    4    0    0 -0.22713963985E+00 -0.55936892340E+01 -0.70790072119E+02  0.71011092530E+02  0.00000000000E+00 0.  1.
         12    1    4    4    0    0 -0.41246565965E+02 -0.15483905784E+02 -0.17697728260E+01  0.44092659684E+02  0.00000000000E+00 0. -1.
         -5    1    5    5    0  502  0.39033364174E+02 -0.21400934654E+02  0.77715400418E+02  0.89684876010E+02  0.47000000000E+01 0.  1.
         13    1    6    6    0    0  0.41746807051E+02  0.58600697803E+02  0.12629249755E+02  0.73050226771E+02  0.00000000000E+00 0. -1.
        -14    1    6    6    0    0 -0.25701602720E+02  0.70564625747E+02  0.55356867907E+02  0.93296953935E+02  0.00000000000E+00 0.  1.
</event>
<event>
12    1  0.8113184E-002  0.1827251E+03  0.7818608E-02  0.1165203E+00
         21   -1    0    0  501  502  0.00000000000E+00  0.00000000000E+00  0.12652970552E+03  0.12652970552E+03  0.00000000000E+00 0. -1.
         21   -1    0    0  502  503 -0.00000000000E+00 -0.00000000000E+00 -0.26446925525E+03  0.26446925525E+03  0.00000000000E+00 0. -1.
         -6    2    1    2    0  503  0.58015421391E+02 -0.25095981670E+02 -0.78762666822E+02  0.19897748058E+03  0.17144352620E+03 0.  0.
        -24    2    3    3    0    0 -0.25170036792E+02 -0.27723937277E+02 -0.76770371913E+02  0.11559411387E+03  0.77885568037E+02 0.  0.
          6    2    1    2  501    0 -0.58015421391E+02  0.25095981670E+02 -0.59176882906E+02  0.19202148020E+03  0.17139062977E+03 0.  0.
         24    2    5    5    0    0 -0.24078045625E+02  0.79674410639E+02 -0.37817801185E+02  0.12413296310E+03  0.83970485580E+02 0.  0.
          5    1    5    5  501    0 -0.33937375765E+02 -0.54578428969E+02 -0.21359081722E+02  0.67888517104E+02  0.47000000000E+01 0. -1.
        -13    1    6    6    0    0 -0.30735597264E+02  0.62987990066E+01 -0.39490933666E+02  0.50436947270E+02  0.00000000000E+00 0.  1.
         14    1    6    6    0    0  0.66575516388E+01  0.73375611632E+02  0.16731324816E+01  0.73696015825E+02  0.00000000000E+00 0. -1.
         -5    1    3    3    0  503  0.83185458182E+02  0.26279556073E+01 -0.19922949082E+01  0.83383366702E+02  0.47000000000E+01 0.  1.
         13    1    4    4    0    0  0.81060950866E+01 -0.32870864216E+02 -0.74516574685E+02  0.81846944932E+02  0.00000000000E+00 0. -1.
        -14    1    4    4    0    0 -0.33276131878E+02  0.51469269391E+01 -0.22537972283E+01  0.33747168942E+02  0.00000000000E+00 0.  1.
</event>
<event>
12    1  0.8113184E-002  0.2340497E+03  0.7818608E-02  0.1126807E+00
         21   -1    0    0  501  502  0.00000000000E+00  0.00000000000E+00  0.13879199964E+03  0.13879199964E+03  0.00000000000E+00 0. -1.
         21   -1    0    0  502  503 -0.00000000000E+00 -0.00000000000E+00 -0.13304958425E+04  0.13304958425E+04  0.00000000000E+00 0. -1.
         -6    2    1    2    0  503 -0.10611250033E+03 -0.81047821764E+02 -0.12148074262E+04  0.12341005763E+04  0.17151833005E+03 0.  0.
        -24    2    3    3    0    0 -0.13085047622E+03 -0.99358357056E+02 -0.11039010877E+04  0.11189070475E+04  0.79758631677E+02 0.  0.
          6    2    1    2  501    0  0.10611250033E+03  0.81047821764E+02  0.23103583331E+02  0.23518726585E+03  0.19222555063E+03 0.  0.
         24    2    5    5    0    0  0.27370183970E+02 -0.17310650320E+02  0.58325390155E+02  0.10427734609E+03  0.80144420798E+02 0.  0.
          5    1    5    5  501    0  0.78742316365E+02  0.98358472084E+02 -0.35221806824E+02  0.13090991977E+03  0.47000000000E+01 0. -1.
        -13    1    6    6    0    0 -0.23506247814E+02  0.12424947667E+02  0.11320067441E+02  0.28897524767E+02  0.00000000000E+00 0.  1.
         14    1    6    6    0    0  0.50876431783E+02 -0.29735597986E+02  0.47005322714E+02  0.75379821319E+02  0.00000000000E+00 0. -1.
         -5    1    3    3    0  503  0.24737975889E+02  0.18310535292E+02 -0.11090633853E+03  0.11519352881E+03  0.47000000000E+01 0.  1.
         13    1    4    4    0    0 -0.86107548860E+02 -0.20553466668E+02 -0.65453675262E+03  0.66049626456E+03  0.00000000000E+00 0. -1.
        -14    1    4    4    0    0 -0.44742927363E+02 -0.78804890389E+02 -0.44936433507E+03  0.45841078296E+03  0.00000000000E+00 0.  1.
</event>
<event>
12    1  0.8113184E-002  0.2134447E+03  0.7818608E-02  0.1141146E+00
         21   -1    0    0  503  502  0.00000000000E+00  0.00000000000E+00  0.49695279141E+03  0.49695279141E+03  0.00000000000E+00 0. -1.
         21   -1    0    0  501  503 -0.00000000000E+00 -0.00000000000E+00 -0.31770907173E+03  0.31770907173E+03  0.00000000000E+00 0. -1.
          6    2    1    2  501    0 -0.91645051859E+02  0.54530478300E+02 -0.25824598151E+03  0.32788071909E+03  0.17158785036E+03 0.  0.
         24    2    3    3    0    0 -0.10855060493E+03  0.54661269118E+02 -0.27017850314E+03  0.30666068366E+03  0.79203934058E+02 0.  0.
         -6    2    1    2    0  502  0.91645051859E+02 -0.54530478300E+02  0.43748970119E+03  0.48678114406E+03  0.18489525406E+03 0.  0.
        -24    2    5    5    0    0 -0.18580856699E+02 -0.10494429568E+02  0.26523316079E+03  0.27753647814E+03  0.78882734670E+02 0.  0.
          5    1    3    3  501    0  0.16905553071E+02 -0.13079081814E+00  0.11932521637E+02  0.21220035427E+02  0.47000000000E+01 0. -1.
        -11    1    4    4    0    0 -0.34747472687E+02  0.33900557209E+02 -0.36527347235E+02  0.60752627377E+02  0.00000000000E+00 0.  1.
         12    1    4    4    0    0 -0.73803132243E+02  0.20760711909E+02 -0.23365115591E+03  0.24590805628E+03  0.00000000000E+00 0. -1.
         -5    1    5    5    0  502  0.11022590856E+03 -0.44036048731E+02  0.17225654040E+03  0.20924466592E+03  0.47000000000E+01 0.  1.
         13    1    6    6    0    0 -0.83115335240E+01 -0.44640011704E+02  0.13090961270E+03  0.13856095745E+03  0.00000000000E+00 0. -1.
        -14    1    6    6    0    0 -0.10269323175E+02  0.34145582135E+02  0.13432354809E+03  0.13897552068E+03  0.00000000000E+00 0.  1.
</event>
<event>
12    1  0.8113184E-002  0.1752243E+03  0.7818608E-02  0.1172784E+00
         21   -1    0    0  501  502  0.00000000000E+00  0.00000000000E+00  0.11594774119E+04  0.11594774119E+04  0.00000000000E+00 0. -1.
         21   -1    0    0  502  503 -0.00000000000E+00 -0.00000000000E+00 -0.43547222164E+02  0.43547222164E+02  0.00000000000E+00 0. -1.
         -6    2    1    2    0  503 -0.28777977882E+02  0.17279341159E+02  0.17850929841E+03  0.24936773203E+03  0.17085651441E+03 0.  0.
        -24    2    3    3    0    0 -0.19926769259E+02  0.69418087368E+02  0.15487595495E+03  0.19125217754E+03  0.85877162297E+02 0.  0.
          6    2    1    2  501    0  0.28777977882E+02 -0.17279341159E+02  0.93742089137E+03  0.95365690208E+03  0.17197910243E+03 0.  0.
         24    2    5    5    0    0 -0.40387568575E+02 -0.31960601437E+02  0.68319727254E+03  0.68974185781E+03  0.79578146974E+02 0.  0.
          5    1    5    5  501    0  0.69165546457E+02  0.14681260278E+02  0.25422361883E+03  0.26391504427E+03  0.47000000000E+01 0. -1.
        -11    1    6    6    0    0 -0.32124264955E+02 -0.39507693418E+02  0.19887354182E+03  0.20528884985E+03  0.00000000000E+00 0.  1.
         12    1    6    6    0    0 -0.82633036204E+01  0.75470919814E+01  0.48432373072E+03  0.48445300796E+03  0.00000000000E+00 0. -1.
         -5    1    3    3    0  503 -0.88512086228E+01 -0.52138746210E+02  0.23633343460E+02  0.58115554488E+02  0.47000000000E+01 0.  1.
         13    1    4    4    0    0 -0.28630599298E+02 -0.65258688146E+01  0.75706236520E+02  0.81201800645E+02  0.00000000000E+00 0. -1.
        -14    1    4    4    0    0  0.87038300386E+01  0.75943956183E+02  0.79169718435E+02  0.11005037690E+03  0.00000000000E+00 0.  1.
</event>
<event>
12    1  0.8113184E-002  0.2292729E+03  0.7818608E-02  0.1127178E+00
         21   -1    0    0  503  502  0.00000000000E+00  0.00000000000E+00  0.21869540428E+04  0.21869540428E+04  0.00000000000E+00 0. -1.
         21   -1    0    0  501  503 -0.00000000000E+00 -0.00000000000E+00 -0.37947222782E+02  0.37947222782E+02  0.00000000000E+00 0.  1.
          6    2    1    2  501    0  0.13305825125E+03 -0.71461549040E+02  0.40079857444E+03  0.46174187619E+03  0.17249583106E+03 0.  0.
         24    2    3    3    0    0  0.10344491828E+03 -0.11658732562E+03  0.29483919172E+03  0.34273445630E+03  0.79014574277E+02 0.  0.
         -6    2    1    2    0  502 -0.13305825125E+03  0.71461549040E+02  0.17482082456E+04  0.17631593894E+04  0.17230122258E+03 0.  0.
        -24    2    5    5    0    0 -0.47127340477E+02  0.10211708013E+03  0.99601770565E+03  0.10054413803E+04  0.78817605272E+02 0.  0.
          5    1    3    3  501    0  0.29613332970E+02  0.45125776578E+02  0.10595938273E+03  0.11900741989E+03  0.47000000000E+01 0. -1.
        -11    1    4    4    0    0  0.11139108752E+03 -0.85273909091E+02  0.25849495725E+03  0.29410756004E+03  0.00000000000E+00 0.  1.
         12    1    4    4    0    0 -0.79461692432E+01 -0.31313416526E+02  0.36344234465E+02  0.48626896251E+02  0.00000000000E+00 0. -1.
         -5    1    5    5    0  502 -0.85930910773E+02 -0.30655531091E+02  0.75219053995E+03  0.75771800915E+03  0.47000000000E+01 0.  1.
         13    1    6    6    0    0  0.88458047367E+01 -0.19474548985E+01  0.24651869345E+03  0.24668503615E+03  0.00000000000E+00 0. -1.
        -14    1    6    6    0    0 -0.55973145213E+02  0.10406453503E+03  0.74949901220E+03  0.75875634411E+03  0.00000000000E+00 0.  1.
</event>
<event>
12    1  0.8113184E-002  0.2162698E+03  0.7818608E-02  0.1136773E+00
         21   -1    0    0  503  502  0.00000000000E+00  0.00000000000E+00  0.38868256343E+02  0.38868256343E+02  0.00000000000E+00 0.  1.
         21   -1    0    0  501  503 -0.00000000000E+00 -0.00000000000E+00 -0.15290016459E+04  0.15290016459E+04  0.00000000000E+00 0. -1.
          6    2    1    2  501    0 -0.12524341613E+03  0.37103182479E+02 -0.11075560679E+04  0.11283951873E+04  0.17185079534E+03 0.  0.
         24    2    3    3    0    0 -0.64083462046E+02 -0.36855237126E+02 -0.39671065390E+03  0.41108515646E+03  0.78400665377E+02 0.  0.
         -6    2    1    2    0  502  0.12524341613E+03 -0.37103182479E+02 -0.38257732170E+03  0.43947471494E+03  0.17236605975E+03 0.  0.
        -24    2    5    5    0    0  0.11951539518E+03  0.21016415488E+02 -0.19581224430E+03  0.24373513788E+03  0.79616348893E+02 0.  0.
          5    1    3    3  501    0 -0.61159954079E+02  0.73958419605E+02 -0.71084541396E+03  0.71731003085E+03  0.47000000000E+01 0. -1.
        -11    1    4    4    0    0 -0.70893274834E+02 -0.20678987793E+02 -0.37908623943E+03  0.38621218764E+03  0.00000000000E+00 0.  1.
         12    1    4    4    0    0  0.68098127881E+01 -0.16176249333E+02 -0.17624414470E+02  0.24872968824E+02  0.00000000000E+00 0. -1.
         -5    1    5    5    0  502  0.57280209420E+01 -0.58119597967E+02 -0.18676507740E+03  0.19573957706E+03  0.47000000000E+01 0.  1.
         11    1    6    6    0    0  0.79236411322E+02  0.12538052683E+02 -0.18428638945E+03  0.20099026091E+03  0.00000000000E+00 0. -1.
        -12    1    6    6    0    0  0.40278983862E+02  0.84783628047E+01 -0.11525854853E+02  0.42744876966E+02  0.00000000000E+00 0.  1.
</event>
<event>
12    1  0.8113184E-002  0.3238420E+03  0.7818608E-02  0.1073958E+00
         21   -1    0    0  503  502  0.00000000000E+00  0.00000000000E+00  0.50622792878E+03  0.50622792878E+03  0.00000000000E+00 0. -1.
         21   -1    0    0  501  503 -0.00000000000E+00 -0.00000000000E+00 -0.10226839484E+04  0.10226839484E+04  0.00000000000E+00 0. -1.
          6    2    1    2  501    0  0.18755803349E+03  0.19965237723E+03 -0.94107204046E+03  0.99523374972E+03  0.17272678885E+03 0.  0.
         24    2    3    3    0    0  0.96511246949E+02  0.59540692558E+02 -0.59357681891E+03  0.60962277928E+03  0.80293077017E+02 0.  0.
         -6    2    1    2    0  502 -0.18755803349E+03 -0.19965237723E+03  0.42461602083E+03  0.53367812748E+03  0.17168136458E+03 0.  0.
        -24    2    5    5    0    0 -0.23253321644E+02 -0.34123898991E+02  0.11599310361E+03  0.14681134101E+03  0.79962568202E+02 0.  0.
          5    1    3    3  501    0  0.91046786540E+02  0.14011168467E+03 -0.34749522156E+03  0.38561097044E+03  0.47000000000E+01 0. -1.
        -11    1    4    4    0    0  0.34044356441E+02  0.46946821991E+02 -0.43296359064E+03  0.43683005061E+03  0.00000000000E+00 0.  1.
         12    1    4    4    0    0  0.62466890508E+02  0.12593870567E+02 -0.16061322827E+03  0.17279272867E+03  0.00000000000E+00 0. -1.
         -5    1    5    5    0  502 -0.16430471185E+03 -0.16552847824E+03  0.30862291722E+03  0.38686678647E+03  0.47000000000E+01 0.  1.
         13    1    6    6    0    0 -0.33839206212E+02 -0.34301685979E+02  0.12432692425E+03  0.13333747272E+03  0.00000000000E+00 0. -1.
        -14    1    6    6    0    0  0.10585884568E+02  0.17778698798E+00 -0.83338206363E+01  0.13473868290E+02  0.00000000000E+00 0.  1.
</event>
<event>
12    1  0.8113184E-002  0.1950305E+03  0.7818608E-02  0.1154019E+00
         21   -1    0    0  503  502  0.00000000000E+00  0.00000000000E+00  0.16327505678E+03  0.16327505678E+03  0.00000000000E+00 0. -1.
         21   -1    0    0  501  503 -0.00000000000E+00 -0.00000000000E+00 -0.72063949936E+03  0.72063949936E+03  0.00000000000E+00 0. -1.
          6    2    1    2  501    0 -0.64824712031E+02 -0.66277592981E+02 -0.64230860422E+03  0.67126539667E+03  0.17158650032E+03 0.  0.
         24    2    3    3    0    0 -0.33401072915E+02 -0.54168587038E+02 -0.19307643389E+03  0.22074824275E+03  0.86031446919E+02 0.  0.
         -6    2    1    2    0  502  0.64824712031E+02  0.66277592981E+02  0.84944161639E+02  0.21264915948E+03  0.17149108376E+03 0.  0.
        -24    2    5    5    0    0  0.51040492422E+02 -0.28539270378E+02  0.54843765639E+02  0.11210878884E+03  0.78364022907E+02 0.  0.
          5    1    3    3  501    0 -0.31423639116E+02 -0.12109005943E+02 -0.44923217033E+03  0.45051715392E+03  0.47000000000E+01 0. -1.
        -11    1    4    4    0    0  0.18705452625E+02  0.71868883846E+01 -0.14097116579E+02  0.24500490167E+02  0.00000000000E+00 0.  1.
         12    1    4    4    0    0 -0.52106525540E+02 -0.61355475422E+02 -0.17897931731E+03  0.19624775258E+03  0.00000000000E+00 0. -1.
         -5    1    5    5    0  502  0.13784219608E+02  0.94816863359E+02  0.30100396001E+02  0.10054037063E+03  0.47000000000E+01 0.  1.
         13    1    6    6    0    0  0.23861634256E+02  0.26504353032E+02  0.26842779863E+02  0.44636231357E+02  0.00000000000E+00 0. -1.
        -14    1    6    6    0    0  0.27178858167E+02 -0.55043623410E+02  0.28000985776E+02  0.67472557487E+02  0.00000000000E+00 0.  1.
</event>
<event>
12    1  0.8113184E-002  0.3682676E+03  0.7818608E-02  0.1055360E+00
         21   -1    0    0  501  502  0.00000000000E+00  0.00000000000E+00  0.29751777479E+04  0.29751777479E+04  0.00000000000E+00 0.  1.
         21   -1    0    0  502  503 -0.00000000000E+00 -0.00000000000E+00 -0.55890558491E+02  0.55890558491E+02  0.00000000000E+00 0. -1.
         -6    2    1    2    0  503 -0.29470254890E+03  0.13855744750E+03  0.80866165614E+03  0.88855548356E+03  0.17189943183E+03 0.  0.
        -24    2    3    3    0    0 -0.27496315109E+03  0.15953484397E+03  0.77270745860E+03  0.84224685251E+03  0.10605113436E+03 0.  0.
          6    2    1    2  501    0  0.29470254890E+03 -0.13855744750E+03  0.21106255333E+04  0.21425128228E+04  0.17196888014E+03 0.  0.
         24    2    5    5    0    0  0.19425063840E+03 -0.87143036598E+02  0.17439048157E+04  0.17587939118E+04  0.82612339908E+02 0.  0.
          5    1    5    5  501    0  0.10045191050E+03 -0.51414410904E+02  0.36672071756E+03  0.38371891100E+03  0.47000000000E+01 0. -1.
        -13    1    6    6    0    0  0.12125932366E+03 -0.87925176691E+02  0.97582876182E+03  0.98725702462E+03  0.00000000000E+00 0.  1.
         14    1    6    6    0    0  0.72991314730E+02  0.78214009384E+00  0.76807605387E+03  0.77153688719E+03  0.00000000000E+00 0. -1.
         -5    1    3    3    0  503 -0.19739397809E+02 -0.20977396466E+02  0.35954197540E+02  0.46308631043E+02  0.47000000000E+01 0.  1.
         11    1    4    4    0    0 -0.44885432759E+02 -0.77885088500E+01  0.16624742286E+03  0.17237624126E+03  0.00000000000E+00 0. -1.
        -12    1    4    4    0    0 -0.23007771833E+03  0.16732335282E+03  0.60646003574E+03  0.66987061125E+03  0.00000000000E+00 0.  1.
</event>
<event>
12    1  0.8113184E-002  0.1789388E+03  0.7818608E-02  0.1168981E+00
         21   -1    0    0  503  502  0.00000000000E+00  0.00000000000E+00  0.36458094272E+03  0.36458094272E+03  0.00000000000E+00 0.  1.
         21   -1    0    0  501  503 -0.00000000000E+00 -0.00000000000E+00 -0.92301210119E+02  0.92301210119E+02  0.00000000000E+00 0.  1.
          6    2    1    2  501    0 -0.39671950965E+02  0.25670400742E+02  0.83984321269E+02  0.19712409240E+03  0.17196426495E+03 0.  0.
         24    2    3    3    0    0 -0.53838324976E+02 -0.52165003248E+02  0.40749346508E+02  0.10684458582E+03  0.64307880371E+02 0.  0.
         -6    2    1    2    0  502  0.39671950965E+02 -0.25670400742E+02  0.18829541133E+03  0.25975806043E+03  0.17258694871E+03 0.  0.
        -24    2    5    5    0    0  0.67196574698E+01  0.51311947739E+02  0.92790064113E+02  0.13265378446E+03  0.79428966726E+02 0.  0.
          5    1    3    3  501    0  0.14166374011E+02  0.77835403990E+02  0.43234974761E+02  0.90279506586E+02  0.47000000000E+01 0. -1.
        -11    1    4    4    0    0 -0.12749956452E+02  0.12642142321E+02 -0.34603163668E+01  0.18285484444E+02  0.00000000000E+00 0.  1.
         12    1    4    4    0    0 -0.41088368524E+02 -0.64807145569E+02  0.44209662875E+02  0.88559101374E+02  0.00000000000E+00 0. -1.
         -5    1    5    5    0  502  0.32952293495E+02 -0.76982348481E+02  0.95505347217E+02  0.12710427598E+03  0.47000000000E+01 0.  1.
         11    1    6    6    0    0 -0.18817116866E+02  0.19920042383E+01 -0.55454840559E+01  0.19718122666E+02  0.00000000000E+00 0. -1.
        -12    1    6    6    0    0  0.25536774336E+02  0.49319943501E+02  0.98335548169E+02  0.11293566179E+03  0.00000000000E+00 0.  1.
</event>
<event>
12    1  0.8113184E-002  0.2098535E+03  0.7818608E-02  0.1141931E+00
         21   -1    0    0  501  502  0.00000000000E+00  0.00000000000E+00  0.26323558162E+03  0.26323558162E+03  0.00000000000E+00 0.  1.
         21   -1    0    0  502  503 -0.00000000000E+00 -0.00000000000E+00 -0.21721777753E+03  0.21721777753E+03  0.00000000000E+00 0.  1.
         -6    2    1    2    0  503 -0.90023802644E+02  0.78229782671E+02 -0.93245520719E+02  0.22963711897E+03  0.17266816538E+03 0.  0.
        -24    2    3    3    0    0 -0.10271882901E+03  0.40551967269E+02 -0.89875473195E+01  0.13635112030E+03  0.79468434712E+02 0.  0.
          6    2    1    2  501    0  0.90023802644E+02 -0.78229782671E+02  0.13926332481E+03  0.25081624018E+03  0.17114417537E+03 0.  0.
         24    2    5    5    0    0  0.94518960352E+01 -0.79985121391E+02  0.12549954509E+03  0.16892335294E+03  0.79359973335E+02 0.  0.
          5    1    5    5  501    0  0.80571906608E+02  0.17553387204E+01  0.13763779717E+02  0.81892887241E+02  0.47000000000E+01 0. -1.
        -13    1    6    6    0    0  0.31834629341E+02 -0.80800250020E+02  0.11520906799E+03  0.14427492289E+03  0.00000000000E+00 0.  1.
         14    1    6    6    0    0 -0.22382733306E+02  0.81512862878E+00  0.10290477107E+02  0.24648430052E+02  0.00000000000E+00 0. -1.
         -5    1    3    3    0  503  0.12695026370E+02  0.37677815401E+02 -0.84257973399E+02  0.93285998678E+02  0.47000000000E+01 0.  1.
         13    1    4    4    0    0 -0.76094192686E+02  0.63124912688E+02  0.43982339429E+01  0.98966788491E+02  0.00000000000E+00 0. -1.
        -14    1    4    4    0    0 -0.26624636328E+02 -0.22572945418E+02 -0.13385781262E+02  0.37384331805E+02  0.00000000000E+00 0.  1.
</event>
<event>
12    1  0.8113184E-002  0.1971585E+03  0.7818608E-02  0.1152323E+00
         21   -1    0    0  501  502  0.00000000000E+00  0.00000000000E+00  0.92227447755E+02  0.92227447755E+02  0.00000000000E+00 0.  1.
         21   -1    0    0  502  503 -0.00000000000E+00 -0.00000000000E+00 -0.79061727375E+03  0.79061727375E+03  0.00000000000E+00 0.  1.
         -6    2    1    2    0  503  0.86877366520E+02 -0.39744818318E+02 -0.65112653580E+03  0.68010034806E+03  0.17159076438E+03 0.  0.
        -24    2    3    3    0    0  0.95646053647E+02  0.52768107445E+01 -0.28774396661E+03  0.31380426763E+03  0.80625775952E+02 0.  0.
          6    2    1    2  501    0 -0.86877366520E+02  0.39744818318E+02 -0.47263290198E+02  0.20274437344E+03  0.17246488038E+03 0.  0.
         24    2    5    5    0    0 -0.11693726928E+01 -0.27921176921E+02 -0.36078997442E+02  0.92872968963E+02  0.80887172991E+02 0.  0.
          5    1    5    5  501    0 -0.85707993827E+02  0.67665995239E+02 -0.11184292756E+02  0.10987140448E+03  0.47000000000E+01 0. -1.
        -11    1    6    6    0    0  0.18964974340E+02  0.21027279869E+02 -0.27089116722E+02  0.39187204483E+02  0.00000000000E+00 0.  1.
         12    1    6    6    0    0 -0.20134347033E+02 -0.48948456789E+02 -0.89898807202E+01  0.53685764481E+02  0.00000000000E+00 0. -1.
         -5    1    3    3    0  503 -0.87686871269E+01 -0.45021629063E+02 -0.36338256918E+03  0.36629608044E+03  0.47000000000E+01 0.  1.
         13    1    4    4    0    0  0.30462465367E+02  0.37363454146E+02 -0.76569284001E+02  0.90481184533E+02  0.00000000000E+00 0. -1.
        -14    1    4    4    0    0  0.65183588279E+02 -0.32086643402E+02 -0.21117468261E+03  0.22332308309E+03  0.00000000000E+00 0.  1.
</event>
<event>
12    1  0.8113184E-002  0.1839537E+03  0.7818608E-02  0.1164541E+00
         21   -1    0    0  501  502  0.00000000000E+00  0.00000000000E+00  0.28167457940E+03  0.28167457940E+03  0.00000000000E+00 0. -1.
         21   -1    0    0  502  503 -0.00000000000E+00 -0.00000000000E+00 -0.18656274413E+03  0.18656274413E+03  0.00000000000E+00 0. -1.
         -6    2    1    2    0  503 -0.38081414606E+02  0.45846548209E+02 -0.93789677423E+02  0.20456568772E+03  0.17175132279E+03 0.  0.
        -24    2    3    3    0    0 -0.14863229420E+02  0.94773322694E+02 -0.52283370359E+02  0.13617141229E+03  0.81278560679E+02 0.  0.
          6    2    1    2  501    0  0.38081414606E+02 -0.45846548209E+02  0.18890151269E+03  0.26367163581E+03  0.17403117511E+03 0.  0.
         24    2    5    5    0    0 -0.10749858679E+02  0.84016901203E+01  0.24357429693E+02  0.83604398747E+02  0.78805223495E+02 0.  0.
          5    1    5    5  501    0  0.48831273285E+02 -0.54248238330E+02  0.16454408300E+03  0.18006723706E+03  0.47000000000E+01 0. -1.
        -11    1    6    6    0    0 -0.35504942176E+02  0.84861513722E+01  0.40131355739E+02  0.54250727161E+02  0.00000000000E+00 0.  1.
         12    1    6    6    0    0  0.24755083498E+02 -0.84461251860E-01 -0.15773926046E+02  0.29353671586E+02  0.00000000000E+00 0. -1.
         -5    1    3    3    0  503 -0.23218185186E+02 -0.48926774484E+02 -0.41506307064E+02  0.68394275425E+02  0.47000000000E+01 0.  1.
         11    1    4    4    0    0 -0.35945205462E+02  0.83134368893E+02 -0.62467240663E+02  0.11002516641E+03  0.00000000000E+00 0. -1.
        -12    1    4    4    0    0  0.21081976042E+02  0.11638953801E+02  0.10183870304E+02  0.26146245884E+02  0.00000000000E+00 0.  1.
</event>
<event>
12    1  0.8113184E-002  0.1813625E+03  0.7818608E-02  0.1166492E+00
         21   -1    0    0  501  502  0.00000000000E+00  0.00000000000E+00  0.90889755001E+03  0.90889755001E+03  0.00000000000E+00 0.  1.
         21   -1    0    0  502  503 -0.00000000000E+00 -0.00000000000E+00 -0.36245176484E+02  0.36245176484E+02  0.00000000000E+00 0.  1.
         -6    2    1    2    0  503 -0.46796858757E+02  0.30589728245E+02  0.41758971305E+03  0.45527302266E+03  0.17253022709E+03 0.  0.
        -24    2    3    3    0    0  0.28840161491E+02 -0.24286826467E+00  0.14036693011E+03  0.16622948058E+03  0.84246965798E+02 0.  0.
          6    2    1    2  501    0  0.46796858757E+02 -0.30589728245E+02  0.45506266047E+03  0.48986970383E+03  0.17252427164E+03 0.  0.
         24    2    5    5    0    0  0.63562289902E+01 -0.69999894462E+02  0.38613759503E+03  0.40064324820E+03  0.80451122809E+02 0.  0.
          5    1    5    5  501    0  0.40440629767E+02  0.39410166217E+02  0.68925065440E+02  0.89226455624E+02  0.47000000000E+01 0. -1.
        -13    1    6    6    0    0  0.27178207942E+02 -0.16029387597E+02  0.25959051938E+03  0.26150111664E+03  0.00000000000E+00 0.  1.
         14    1    6    6    0    0 -0.20821978951E+02 -0.53970506865E+02  0.12654707565E+03  0.13914213156E+03  0.00000000000E+00 0. -1.
         -5    1    3    3    0  503 -0.75637020248E+02  0.30832596510E+02  0.27722278293E+03  0.28904354208E+03  0.47000000000E+01 0.  1.
         13    1    4    4    0    0  0.26609386683E+02 -0.40558000596E+02  0.71584908967E+02  0.86472018964E+02  0.00000000000E+00 0. -1.
        -14    1    4    4    0    0  0.22307748075E+01  0.40315132331E+02  0.68782021147E+02  0.79757461620E+02  0.00000000000E+00 0.  1.
</event>
<event>
12    1  0.8113184E-002  0.2314575E+03  0.7818608E-02  0.1125790E+00
         21   -1    0    0  501  502  0.00000000000E+00  0.00000000000E+00  0.18156683365E+03  0.18156683365E+03  0.00000000000E+00 0. -1.
         21   -1    0    0  502  503 -0.00000000000E+00 -0.00000000000E+00 -0.33184788287E+03  0.33184788287E+03  0.00000000000E+00 0. -1.
         -6    2    1    2    0  503  0.25497541863E+02 -0.15268065942E+03 -0.16219585050E+03  0.28263060918E+03  0.17207864167E+03 0.  0.
        -24    2    3    3    0    0  0.51364928649E+02 -0.21656970929E+02 -0.91358217648E+02  0.13138118315E+03  0.76205715458E+02 0.  0.
          6    2    1    2  501    0 -0.25497541863E+02  0.15268065942E+03  0.11914801284E+02  0.23078410734E+03  0.17075664938E+03 0.  0.
         24    2    5    5    0    0 -0.20569240773E+02  0.98896948164E+01  0.25938825636E+02  0.87144589853E+02  0.80002857047E+02 0.  0.
          5    1    5    5  501    0 -0.49283010896E+01  0.14279096460E+03 -0.14024024353E+02  0.14363951749E+03  0.47000000000E+01 0. -1.
        -11    1    6    6    0    0 -0.45506786696E+02 -0.13623431225E+02  0.70882957490E+01  0.48028215149E+02  0.00000000000E+00 0.  1.
         12    1    6    6    0    0  0.24937545923E+02  0.23513126042E+02  0.18850529887E+02  0.39116374703E+02  0.00000000000E+00 0. -1.
         -5    1    3    3    0  503 -0.25867386786E+02 -0.13102368849E+03 -0.70837632856E+02  0.15124942603E+03  0.47000000000E+01 0.  1.
         13    1    4    4    0    0  0.19649150216E+02 -0.13565045603E+02 -0.95453258309E+02  0.98394227921E+02  0.00000000000E+00 0. -1.
        -14    1    4    4    0    0  0.31715778433E+02 -0.80919253254E+01  0.40950406610E+01  0.32986955226E+02  0.00000000000E+00 0.  1.
</event>
<event>
12    1  0.8113184E-002  0.4195099E+03  0.7818608E-02  0.1037473E+00
         21   -1    0    0  503  502  0.00000000000E+00  0.00000000000E+00  0.25125588549E+03  0.25125588549E+03  0.00000000000E+00 0. -1.
         21   -1    0    0  501  503 -0.00000000000E+00 -0.00000000000E+00 -0.13230870625E+04  0.13230870625E+04  0.00000000000E+00 0.  1.
          6    2    1    2  501    0  0.31062699444E+03 -0.21912049909E+03 -0.10770777593E+04  0.11548002070E+04  0.17018841268E+03 0.  0.
         24    2    3    3    0    0  0.86337746773E+02 -0.12909036829E+03 -0.46923849640E+03  0.50065821130E+03  0.79720438632E+02 0.  0.
         -6    2    1    2    0  502 -0.31062699444E+03  0.21912049909E+03  0.52465822080E+01  0.41954274102E+03  0.17744199651E+03 0.  0.
        -24    2    5    5    0    0 -0.22649380504E+03  0.10594747461E+03  0.57296770455E+02  0.26915045690E+03  0.81453897673E+02 0.  0.
          5    1    3    3  501    0  0.22428924767E+03 -0.90030130799E+02 -0.60783926287E+03  0.65414199571E+03  0.47000000000E+01 0. -1.
        -13    1    4    4    0    0  0.23792144227E+02 -0.59317401304E+02 -0.30450308491E+03  0.31113782950E+03  0.00000000000E+00 0.  1.
         14    1    4    4    0    0  0.62545602545E+02 -0.69772966988E+02 -0.16473541148E+03  0.18952038180E+03  0.00000000000E+00 0. -1.
         -5    1    5    5    0  502 -0.84133189397E+02  0.11317302448E+03 -0.52050188247E+02  0.15039228412E+03  0.47000000000E+01 0.  1.
         11    1    6    6    0    0 -0.21494371723E+03  0.71306363993E+02  0.48944486662E+02  0.23169152314E+03  0.00000000000E+00 0. -1.
        -12    1    6    6    0    0 -0.11550087811E+02  0.34641110622E+02  0.83522837935E+01  0.37458933756E+02  0.00000000000E+00 0.  1.
</event>
<event>
12    1  0.8113184E-002  0.2848910E+03  0.7818608E-02  0.1093178E+00
         21   -1    0    0  503  502  0.00000000000E+00  0.00000000000E+00  0.31603568305E+03  0.31603568305E+03  0.00000000000E+00 0. -1.
         21   -1    0    0  501  503 -0.00000000000E+00 -0.00000000000E+00 -0.30913125899E+03  0.30913125899E+03  0.00000000000E+00 0. -1.
          6    2    1    2  501    0 -0.21505635309E+03  0.73262424189E+02  0.13312233847E+03  0.31445899008E+03  0.17189031863E+03 0.  0.
         24    2    3    3    0    0 -0.15347163308E+03  0.16659016404E+02  0.24609926495E+02  0.17736903033E+03  0.83803695920E+02 0.  0.
         -6    2    1    2    0  502  0.21505635309E+03 -0.73262424189E+02 -0.12621791441E+03  0.31070795196E+03  0.17026993773E+03 0.  0.
        -24    2    5    5    0    0  0.49147303520E+02 -0.76677025773E+02 -0.44955473207E+02  0.12587519896E+03  0.74355547319E+02 0.  0.
          5    1    3    3  501    0 -0.61584720005E+02  0.56603407785E+02  0.10851241197E+03  0.13708995975E+03  0.47000000000E+01 0. -1.
        -11    1    4    4    0    0 -0.30790810882E+02 -0.29476882343E+02  0.17588545947E+02  0.46112011190E+02  0.00000000000E+00 0.  1.
         12    1    4    4    0    0 -0.12268082220E+03  0.46135898747E+02  0.70213805483E+01  0.13125701914E+03  0.00000000000E+00 0. -1.
         -5    1    5    5    0  502  0.16590904957E+03  0.34146015845E+01 -0.81262441203E+02  0.18483275300E+03  0.47000000000E+01 0.  1.
         11    1    6    6    0    0  0.55498954652E+02 -0.19409879765E+02 -0.31519798902E+02  0.66711131926E+02  0.00000000000E+00 0. -1.
        -12    1    6    6    0    0 -0.63516511317E+01 -0.57267146008E+02 -0.13435674305E+02  0.59164067034E+02  0.00000000000E+00 0.  1.
</event>
<event>
12    1  0.8113184E-002  0.1946067E+03  0.7818608E-02  0.1155104E+00
         21   -1    0    0  501  502  0.00000000000E+00  0.00000000000E+00  0.13348881413E+03  0.13348881413E+03  0.00000000000E+00 0. -1.
         21   -1    0    0  502  503 -0.00000000000E+00 -0.00000000000E+00 -0.54079697549E+03  0.54079697549E+03  0.00000000000E+00 0.  1.
         -6    2    1    2    0  503 -0.19477539284E+02  0.82694228449E+02 -0.43737085467E+03  0.47737074841E+03  0.17138219558E+03 0.  0.
        -24    2    3    3    0    0 -0.48346921302E+02 -0.55474424818E+01 -0.69388405539E+02  0.97827329841E+02  0.48859356557E+02 0.  0.
          6    2    1    2  501    0  0.19477539284E+02 -0.82694228449E+02  0.30062693306E+02  0.19691504121E+03  0.17508300309E+03 0.  0.
         24    2    5    5    0    0  0.15356022079E+02  0.75208182427E+01 -0.30801049981E+02  0.87909413832E+02  0.80541853960E+02 0.  0.
          5    1    5    5  501    0  0.41215172048E+01 -0.90215046692E+02  0.60863743287E+02  0.10900562738E+03  0.47000000000E+01 0. -1.
        -11    1    6    6    0    0 -0.14857436757E+01 -0.34104125835E+02 -0.12586399129E+01  0.34159669314E+02  0.00000000000E+00 0.  1.
         12    1    6    6    0    0  0.16841765755E+02  0.41624944077E+02 -0.29542410068E+02  0.53749744518E+02  0.00000000000E+00 0. -1.
         -5    1    3    3    0  503  0.28869382019E+02  0.88241670931E+02 -0.36798244913E+03  0.37954341856E+03  0.47000000000E+01 0.  1.
         13    1    4    4    0    0 -0.23991078740E+02 -0.14643139050E+02 -0.65838822038E+02  0.71587316388E+02  0.00000000000E+00 0. -1.
        -14    1    4    4    0    0 -0.24355842563E+02  0.90956965680E+01 -0.35495835014E+01  0.26240013453E+02  0.00000000000E+00 0.  1.
</event>
<event>
12    1  0.8113184E-002  0.1766943E+03  0.7818608E-02  0.1171308E+00
         21   -1    0    0  503  502  0.00000000000E+00  0.00000000000E+00  0.43279822373E+03  0.43279822373E+03  0.00000000000E+00 0. -1.
         21   -1    0    0  501  503 -0.00000000000E+00 -0.00000000000E+00 -0.12848890372E+03  0.12848890372E+03  0.00000000000E+00 0.  1.
          6    2    1    2  501    0  0.14404123876E+02  0.39459222394E+02 -0.34162160839E+02  0.17996642980E+03  0.17162853377E+03 0.  0.
         24    2    3    3    0    0  0.62321004174E+02  0.68885033180E+02 -0.20467594738E+02  0.12190149288E+03  0.76236449127E+02 0.  0.
         -6    2    1    2    0  502 -0.14404123876E+02 -0.39459222394E+02  0.33847148085E+03  0.38132069765E+03  0.17052279054E+03 0.  0.
        -24    2    5    5    0    0  0.18660986562E+02  0.39748966182E+02  0.20308178861E+03  0.22094707940E+03  0.75147763107E+02 0.  0.
          5    1    3    3  501    0 -0.47916880298E+02 -0.29425810786E+02 -0.13694566101E+02  0.58064936912E+02  0.47000000000E+01 0. -1.
        -11    1    4    4    0    0  0.45745253594E+01  0.13943821486E+02 -0.37610342999E+02  0.40371949921E+02  0.00000000000E+00 0.  1.
         12    1    4    4    0    0  0.57746478814E+02  0.54941211694E+02  0.17142748261E+02  0.81529542963E+02  0.00000000000E+00 0. -1.
         -5    1    5    5    0  502 -0.33065110438E+02 -0.79208188576E+02  0.13538969224E+03  0.16037361825E+03  0.47000000000E+01 0.  1.
         13    1    6    6    0    0  0.50595194932E+01  0.13180031685E+02  0.18604336361E+03  0.18657825467E+03  0.00000000000E+00 0. -1.
        -14    1    6    6    0    0  0.13601467069E+02  0.26568934497E+02  0.17038424991E+02  0.34368824724E+02  0.00000000000E+00 0.  1.
</event>
<event>
12    1  0.8113184E-002  0.1957430E+03  0.7818608E-02  0.1153575E+00
         21   -1    0    0  503  502  0.00000000000E+00  0.00000000000E+00  0.15142124224E+02  0.15142124224E+02  0.00000000000E+00 0. -1.
         21   -1    0    0  501  503 -0.00000000000E+00 -0.00000000000E+00 -0.25474755151E+04  0.25474755151E+04  0.00000000000E+00 0.  1.
          6    2    1    2  501    0  0.87908805663E+02  0.33998481693E+02 -0.13991348234E+04  0.14126374947E+04  0.17053616192E+03 0.  0.
         24    2    3    3    0    0  0.94675133679E+02  0.77820045005E+02 -0.10838109881E+04  0.10941766279E+04  0.86930401332E+02 0.  0.
         -6    2    1    2    0  502 -0.87908805663E+02 -0.33998481693E+02 -0.11331985674E+04  0.11499801446E+04  0.17155606902E+03 0.  0.
        -24    2    5    5    0    0 -0.11788749527E+03  0.98435883048E+01 -0.81651200638E+03  0.82883638100E+03  0.79268733649E+02 0.  0.
          5    1    3    3  501    0 -0.67663280155E+01 -0.43821563312E+02 -0.31532383532E+03  0.31846086687E+03  0.47000000000E+01 0. -1.
        -11    1    4    4    0    0  0.71692652425E+02  0.55771713713E+02 -0.42507689936E+03  0.43467308501E+03  0.00000000000E+00 0.  1.
         12    1    4    4    0    0  0.22982481253E+02  0.22048331292E+02 -0.65873408874E+03  0.65950354285E+03  0.00000000000E+00 0. -1.
         -5    1    5    5    0  502  0.29978689611E+02 -0.43842069998E+02 -0.31668656104E+03  0.32114376356E+03  0.47000000000E+01 0.  1.
         13    1    6    6    0    0  0.10078093559E+02  0.10146090012E+02 -0.71870780440E+02  0.73279739310E+02  0.00000000000E+00 0. -1.
        -14    1    6    6    0    0 -0.12796558883E+03 -0.30250170748E+00 -0.74464122594E+03  0.75555664169E+03  0.00000000000E+00 0.  1.
</event>
<event>
12    1  0.8113184E-002  0.2106442E+03  0.7818608E-02  0.1141322E+00
         21   -1    0    0  503  502  0.00000000000E+00  0.00000000000E+00  0.12086535315E+03  0.12086535315E+03  0.00000000000E+00 0. -1.
         21   -1    0    0  501  503 -0.00000000000E+00 -0.00000000000E+00 -0.39218473585E+03  0.39218473585E+03  0.00000000000E+00 0. -1.
          6    2    1    2  501    0 -0.47756740786E+02 -0.11339074266E+03 -0.20307228763E+03  0.29162600564E+03  0.16931983449E+03 0.  0.
         24    2    3    3    0    0 -0.54904894635E+02 -0.13832326086E+03 -0.20502262073E+03  0.26519457802E+03  0.78396538501E+02 0.  0.
         -6    2    1    2    0  502  0.47756740786E+02  0.11339074266E+03 -0.68247095076E+02  0.22142408336E+03  0.17097599800E+03 0.  0.
        -24    2    5    5    0    0  0.82586725224E+02  0.89201492372E+02 -0.92096557446E+02  0.17254530984E+03  0.80700896083E+02 0.  0.
          5    1    3    3  501    0  0.71481538485E+01  0.24932518194E+02  0.19503331022E+01  0.26431427622E+02  0.47000000000E+01 0. -1.
        -11    1    4    4    0    0 -0.56841279878E+01 -0.10989808435E+03 -0.15043229372E+03  0.18638608652E+03  0.00000000000E+00 0.  1.
         12    1    4    4    0    0 -0.49220766647E+02 -0.28425176513E+02 -0.54590327010E+02  0.78808491498E+02  0.00000000000E+00 0. -1.
         -5    1    5    5    0  502 -0.34829984438E+02  0.24189250292E+02  0.23849462370E+02  0.48878773522E+02  0.47000000000E+01 0.  1.
         13    1    6    6    0    0  0.51519182756E+02  0.42066249260E+01 -0.15440807967E+02  0.53947571176E+02  0.00000000000E+00 0. -1.
        -14    1    6    6    0    0  0.31067542467E+02  0.84994867446E+02 -0.76655749479E+02  0.11859773866E+03  0.00000000000E+00 0.  1.
</event>
<event>
12    1  0.8113184E-002  0.1921546E+03  0.7818608E-02  0.1156876E+00
         21   -1    0    0  503  502  0.00000000000E+00  0.00000000000E+00  0.53540429652E+03  0.53540429652E+03  0.00000000000E+00 0. -1.
         21   -1    0    0  501  503 -0.00000000000E+00 -0.00000000000E+00 -0.68534736282E+02  0.68534736282E+02  0.00000000000E+00 0. -1.
          6    2    1    2  501    0 -0.46728022380E+00  0.83228259388E+02  0.24718061314E+03  0.31308409325E+03  0.17319420436E+03 0.  0.
         24    2    3    3    0    0 -0.19063588317E+02  0.27495837718E+01  0.51128319217E+02  0.10029022150E+03  0.84101384600E+02 0.  0.
         -6    2    1    2    0  502  0.46728022380E+00 -0.83228259388E+02  0.21968894710E+03  0.29085493956E+03  0.17148236315E+03 0.  0.
        -24    2    5    5    0    0 -0.10980464778E+02 -0.13033931433E+02  0.19975228209E+03  0.21684240579E+03  0.82638978533E+02 0.  0.
          5    1    3    3  501    0  0.18596308093E+02  0.80478675616E+02  0.19605229392E+03  0.21279387175E+03  0.47000000000E+01 0. -1.
        -13    1    4    4    0    0 -0.43132372132E+02  0.27964334262E+02  0.31421833320E+02  0.60247299738E+02  0.00000000000E+00 0.  1.
         14    1    4    4    0    0  0.24068783816E+02 -0.25214750490E+02  0.19706485896E+02  0.40042921759E+02  0.00000000000E+00 0. -1.
         -5    1    5    5    0  502  0.11447745002E+02 -0.70194327955E+02  0.19936665015E+02  0.74012533767E+02  0.47000000000E+01 0.  1.
         11    1    6    6    0    0  0.35122852841E+01  0.13684814611E+02 -0.65458533583E+00  0.14143506666E+02  0.00000000000E+00 0. -1.
        -12    1    6    6    0    0 -0.14492750062E+02 -0.26718746043E+02  0.20040686742E+03  0.20269889912E+03  0.00000000000E+00 0.  1.
</event>
<event>
12    1  0.8113184E-002  0.1788138E+03  0.7818608E-02  0.1169091E+00
         21   -1    0    0  501  502  0.00000000000E+00  0.00000000000E+00  0.97155237523E+02  0.97155237523E+02  0.00000000000E+00 0.  1.
         21   -1    0    0  502  503 -0.00000000000E+00 -0.00000000000E+00 -0.41420366643E+03  0.41420366643E+03  0.00000000000E+00 0.  1.
         -6    2    1    2    0  503 -0.48382383184E+02  0.77490262671E+01 -0.27490962265E+03  0.32764700765E+03  0.17139532836E+03 0.  0.
        -24    2    3    3    0    0  0.25807723447E+02 -0.14356265264E+02 -0.82624272446E+02  0.12031017604E+03  0.82314197565E+02 0.  0.
          6    2    1    2  501    0  0.48382383184E+02 -0.77490262671E+01 -0.42138806259E+02  0.18371189631E+03  0.17196941426E+03 0.  0.
         24    2    5    5    0    0  0.32255503719E+01  0.15404178717E+02  0.37001634375E+02  0.89581615345E+02  0.80050308958E+02 0.  0.
          5    1    5    5  501    0  0.45156832812E+02 -0.23153204984E+02 -0.79140440634E+02  0.94130280964E+02  0.47000000000E+01 0. -1.
        -13    1    6    6    0    0  0.61408525857E+01  0.26477106449E+02  0.58900875387E+02  0.64869564187E+02  0.00000000000E+00 0.  1.
         14    1    6    6    0    0 -0.29153022138E+01 -0.11072927732E+02 -0.21899241012E+02  0.24712051159E+02  0.00000000000E+00 0. -1.
         -5    1    3    3    0  503 -0.74190106631E+02  0.22105291531E+02 -0.19228535020E+03  0.20733683160E+03  0.47000000000E+01 0.  1.
         11    1    4    4    0    0  0.12937032223E+01  0.29014989800E+02 -0.72090787117E+01  0.29925141888E+02  0.00000000000E+00 0. -1.
        -12    1    4    4    0    0  0.24514020225E+02 -0.43371255065E+02 -0.75415193734E+02  0.90385034156E+02  0.00000000000E+00 0.  1.
</event>
<event>
12    1  0.8113184E-002  0.2344903E+03  0.7818608E-02  0.1123668E+00
         21   -1    0    0  503  502  0.00000000000E+00  0.00000000000E+00  0.66756945486E+03  0.66756945486E+03  0.00000000000E+00 0.  1.
         21   -1    0    0  501  503 -0.00000000000E+00 -0.00000000000E+00 -0.12149740014E+03  0.12149740014E+03  0.00000000000E+00 0. -1.
          6    2    1    2  501    0  0.21249551272E+02  0.15843075975E+03  0.47920640726E+02  0.23848487531E+03  0.17037252972E+03 0.  0.
         24    2    3    3    0    0  0.37373786092E+02  0.19855132108E+02  0.35867649469E+02  0.98375774528E+02  0.81242098555E+02 0.  0.
         -6    2    1    2    0  502 -0.21249551272E+02 -0.15843075975E+03  0.49815141399E+03  0.55058197968E+03  0.17156292149E+03 0.  0.
        -24    2    5    5    0    0 -0.52599671064E+01 -0.52535721254E+02  0.37669207792E+03  0.38858233062E+03  0.79445810703E+02 0.  0.
          5    1    3    3  501    0 -0.16124234820E+02  0.13857562764E+03  0.12052991256E+02  0.14010910079E+03  0.47000000000E+01 0. -1.
        -11    1    4    4    0    0  0.33696025830E+01 -0.20416064658E+02 -0.14661795910E+02  0.25360169104E+02  0.00000000000E+00 0.  1.
         12    1    4    4    0    0  0.34004183509E+02  0.40271196766E+02  0.50529445380E+02  0.73015605424E+02  0.00000000000E+00 0. -1.
         -5    1    5    5    0  502 -0.15989584165E+02 -0.10589503849E+03  0.12145933607E+03  0.16199964907E+03  0.47000000000E+01 0.  1.
         11    1    6    6    0    0  0.30181611279E+02  0.19064131917E+01  0.13123946060E+03  0.13467872917E+03  0.00000000000E+00 0. -1.
        -12    1    6    6    0    0 -0.35441578385E+02 -0.54442134446E+02  0.24545261732E+03  0.25390360145E+03  0.00000000000E+00 0.  1.
</event>
<event>
12    1  0.8113184E-002  0.1834855E+03  0.7818608E-02  0.1166891E+00
         21   -1    0    0  503  502  0.00000000000E+00  0.00000000000E+00  0.24785788310E+02  0.24785788310E+02  0.00000000000E+00 0. -1.
         21   -1    0    0  501  503 -0.00000000000E+00 -0.00000000000E+00 -0.18979511168E+04  0.18979511168E+04  0.00000000000E+00 0. -1.
          6    2    1    2  501    0  0.42892932121E+01 -0.20621878548E+02 -0.14648042353E+04  0.14750475903E+04  0.17225064868E+03 0.  0.
         24    2    3    3    0    0  0.66736750624E+02 -0.20874892147E+02 -0.10742877766E+04  0.10795416568E+04  0.80164871982E+02 0.  0.
         -6    2    1    2    0  502 -0.42892932121E+01  0.20621878548E+02 -0.40836109318E+03  0.44768931481E+03  0.18227254389E+03 0.  0.
        -24    2    5    5    0    0  0.45048275763E+02 -0.11710754072E+02 -0.35541161302E+03  0.36828319229E+03  0.84549430169E+02 0.  0.
          5    1    3    3  501    0 -0.62447457412E+02  0.25301359874E+00 -0.39051645865E+03  0.39550593350E+03  0.47000000000E+01 0. -1.
        -11    1    4    4    0    0  0.74161847116E+02  0.91428450301E+01 -0.69923694020E+03  0.70321822340E+03  0.00000000000E+00 0.  1.
         12    1    4    4    0    0 -0.74250964917E+01 -0.30017737177E+02 -0.37505083642E+03  0.37632343337E+03  0.00000000000E+00 0. -1.
         -5    1    5    5    0  502 -0.49337568975E+02  0.32332632621E+02 -0.52949480165E+02  0.79406122524E+02  0.47000000000E+01 0.  1.
         13    1    6    6    0    0  0.14299525405E+02  0.36001608611E+02 -0.11870041941E+03  0.12486145049E+03  0.00000000000E+00 0. -1.
        -14    1    6    6    0    0  0.30748750358E+02 -0.47712362683E+02 -0.23671119361E+03  0.24342174180E+03  0.00000000000E+00 0.  1.
</event>
<event>
12    1  0.8113184E-002  0.2190101E+03  0.7818608E-02  0.1139711E+00
         21   -1    0    0  501  502  0.00000000000E+00  0.00000000000E+00  0.12701860469E+04  0.12701860469E+04  0.00000000000E+00 0.  1.
         21   -1    0    0  502  503 -0.00000000000E+00 -0.00000000000E+00 -0.35844570039E+02  0.35844570039E+02  0.00000000000E+00 0.  1.
         -6    2    1    2    0  503 -0.10033099723E+03 -0.28639300277E+02  0.41519681235E+03  0.45811352515E+03  0.16307388023E+03 0.  0.
        -24    2    3    3    0    0 -0.84807157852E+02  0.38446147203E+02  0.22144572486E+03  0.25243654356E+03  0.77560551880E+02 0.  0.
          6    2    1    2  501    0  0.10033099723E+03  0.28639300277E+02  0.81914466449E+03  0.84791709177E+03  0.19255880822E+03 0.  0.
         24    2    5    5    0    0  0.76510491296E+02 -0.55148773625E+02  0.30538188776E+03  0.32680084889E+03  0.68157574463E+02 0.  0.
          5    1    5    5  501    0  0.23820505934E+02  0.83788073901E+02  0.51376277673E+03  0.52111624287E+03  0.47000000000E+01 0. -1.
        -11    1    6    6    0    0  0.40826670949E+02 -0.36054755851E+01  0.54420018041E+02  0.68127489889E+02  0.00000000000E+00 0.  1.
         12    1    6    6    0    0  0.35683820347E+02 -0.51543298039E+02  0.25096186972E+03  0.25867335901E+03  0.00000000000E+00 0. -1.
         -5    1    3    3    0  503 -0.15523839378E+02 -0.67085447480E+02  0.19375108749E+03  0.20567698159E+03  0.47000000000E+01 0.  1.
         11    1    4    4    0    0  0.10504835869E+02  0.21828698013E+02  0.38607829502E+02  0.45578592919E+02  0.00000000000E+00 0. -1.
        -12    1    4    4    0    0 -0.95311993721E+02  0.16617449190E+02  0.18283789535E+03  0.20685795064E+03  0.00000000000E+00 0.  1.
</event>
<event>
12    1  0.8113184E-002  0.2341480E+03  0.7818608E-02  0.1124723E+00
         21   -1    0    0  501  502  0.00000000000E+00  0.00000000000E+00  0.40093355278E+03  0.40093355278E+03  0.00000000000E+00 0. -1.
         21   -1    0    0  502  503 -0.00000000000E+00 -0.00000000000E+00 -0.17191280493E+03  0.17191280493E+03  0.00000000000E+00 0.  1.
         -6    2    1    2    0  503  0.15043841352E+03  0.55569177233E+02 -0.19780132161E+02  0.23498203435E+03  0.17060378988E+03 0.  0.
        -24    2    3    3    0    0  0.77721657242E+02 -0.26766791143E+02 -0.12834990100E+02  0.12481278579E+03  0.93039655053E+02 0.  0.
          6    2    1    2  501    0 -0.15043841352E+03 -0.55569177233E+02  0.24880088002E+03  0.33786432335E+03  0.16288269821E+03 0.  0.
         24    2    5    5    0    0 -0.66744886600E+02 -0.77999764201E+02  0.20343032430E+03  0.23994438153E+03  0.75170248656E+02 0.  0.
          5    1    5    5  501    0 -0.83693526918E+02  0.22430586968E+02  0.45370555721E+02  0.97919941820E+02  0.47000000000E+01 0. -1.
        -11    1    6    6    0    0 -0.42923117235E+02 -0.26142789410E+02  0.32775013316E+02  0.60000341076E+02  0.00000000000E+00 0.  1.
         12    1    6    6    0    0 -0.23821769365E+02 -0.51856974792E+02  0.17065531098E+03  0.17994404046E+03  0.00000000000E+00 0. -1.
         -5    1    3    3    0  503  0.72716756275E+02  0.82335968377E+02 -0.69451420611E+01  0.11016924857E+03  0.47000000000E+01 0.  1.
         11    1    4    4    0    0 -0.93786548630E+01 -0.28064076467E+02 -0.22493971291E+02  0.37168942673E+02  0.00000000000E+00 0. -1.
        -12    1    4    4    0    0  0.87100312105E+02  0.12972853236E+01  0.96589811911E+01  0.87643843114E+02  0.00000000000E+00 0.  1.
</event>
<event>
12    1  0.8113184E-002  0.2042545E+03  0.7818608E-02  0.1146649E+00
         21   -1    0    0  503  502  0.00000000000E+00  0.00000000000E+00  0.95020315070E+03  0.95020315070E+03  0.00000000000E+00 0. -1.
         21   -1    0    0  501  503 -0.00000000000E+00 -0.00000000000E+00 -0.12555159583E+03  0.12555159583E+03  0.00000000000E+00 0.  1.
          6    2    1    2  501    0 -0.10914593919E+03 -0.23074146029E+02 -0.23427295094E+02  0.20342589001E+03  0.16848739512E+03 0.  0.
         24    2    3    3    0    0 -0.12724992327E+01 -0.22677815273E+02 -0.43207238482E+02  0.93652613267E+02  0.79925239785E+02 0.  0.
         -6    2    1    2    0  502  0.10914593919E+03  0.23074146029E+02  0.84807884997E+03  0.87232885652E+03  0.17109835152E+03 0.  0.
        -24    2    5    5    0    0  0.42371097622E+02 -0.33731648060E+02  0.61871307362E+03  0.62673462396E+03  0.84007662745E+02 0.  0.
          5    1    3    3  501    0 -0.10787343996E+03 -0.39633075634E+00  0.19779943388E+02  0.10977327674E+03  0.47000000000E+01 0. -1.
        -11    1    4    4    0    0  0.33994723021E+02 -0.31117122777E+02 -0.30331331719E+02  0.55171606892E+02  0.00000000000E+00 0.  1.
         12    1    4    4    0    0 -0.35267222254E+02  0.84393075045E+01 -0.12875906763E+02  0.38481006375E+02  0.00000000000E+00 0. -1.
         -5    1    5    5    0  502  0.66774841566E+02  0.56805794089E+02  0.22936577634E+03  0.24559423256E+03  0.47000000000E+01 0.  1.
         13    1    6    6    0    0  0.53498591663E+02 -0.63665523133E+00  0.21665716309E+03  0.22316547887E+03  0.00000000000E+00 0. -1.
        -14    1    6    6    0    0 -0.11127494040E+02 -0.33094992829E+02  0.40205591054E+03  0.40356914509E+03  0.00000000000E+00 0.  1.
</event>
<event>
12    1  0.8113184E-002  0.2469263E+03  0.7818608E-02  0.1115841E+00
         21   -1    0    0  503  502  0.00000000000E+00  0.00000000000E+00  0.57511904828E+03  0.57511904828E+03  0.00000000000E+00 0. -1.
         21   -1    0    0  501  503 -0.00000000000E+00 -0.00000000000E+00 -0.14766716911E+03  0.14766716911E+03  0.00000000000E+00 0. -1.
          6    2    1    2  501    0 -0.15678136968E+03 -0.74015290432E+02  0.41024855924E+03  0.47882824517E+03  0.17582362444E+03 0.  0.
         24    2    3    3    0    0 -0.14774975882E+03 -0.39067915954E+02  0.40742718042E+03  0.44231880589E+03  0.79326700517E+02 0.  0.
         -6    2    1    2    0  502  0.15678136968E+03  0.74015290432E+02  0.17203319927E+02  0.24395797222E+03  0.17076556121E+03 0.  0.
        -24    2    5    5    0    0  0.11592896626E+03  0.72660701625E+02 -0.49431057870E+02  0.16564460120E+03  0.79218695053E+02 0.  0.
          5    1    3    3  501    0 -0.90316108695E+01 -0.34947374478E+02  0.28213788244E+01  0.36509439276E+02  0.47000000000E+01 0. -1.
        -13    1    4    4    0    0  0.37739025439E+01 -0.66209218238E+01  0.76828084892E+02  0.77205139559E+02  0.00000000000E+00 0.  1.
         14    1    4    4    0    0 -0.15152366136E+03 -0.32446994130E+02  0.33059909553E+03  0.36511366633E+03  0.00000000000E+00 0. -1.
         -5    1    5    5    0  502  0.40852403427E+02  0.13545888064E+01  0.66634377797E+02  0.78313371023E+02  0.47000000000E+01 0.  1.
         13    1    6    6    0    0  0.10658001515E+03  0.89217258311E+02 -0.41636416157E+02  0.14509517553E+03  0.00000000000E+00 0. -1.
        -14    1    6    6    0    0  0.93489511052E+01 -0.16556556686E+02 -0.77946417132E+01  0.20549425673E+02  0.00000000000E+00 0.  1.
</event>
<event>
12    1  0.8113184E-002  0.1788731E+03  0.7818608E-02  0.1169100E+00
         21   -1    0    0  501  502  0.00000000000E+00  0.00000000000E+00  0.43821863471E+03  0.43821863471E+03  0.00000000000E+00 0. -1.
         21   -1    0    0  502  503 -0.00000000000E+00 -0.00000000000E+00 -0.78953300521E+02  0.78953300521E+02  0.00000000000E+00 0. -1.
         -6    2    1    2    0  503 -0.19431565743E+02  0.42455644655E+02  0.25292779813E+03  0.30978711694E+03  0.17267170946E+03 0.  0.
        -24    2    3    3    0    0 -0.65550230856E+02  0.36895072157E+02  0.95574522117E+02  0.14565304153E+03  0.80138880176E+02 0.  0.
          6    2    1    2  501    0  0.19431565743E+02 -0.42455644655E+02  0.10633753607E+03  0.20738481830E+03  0.17181595901E+03 0.  0.
         24    2    5    5    0    0  0.14795801087E+02  0.43658206730E+02  0.59007103663E+02  0.10889956282E+03  0.79071624209E+02 0.  0.
          5    1    5    5  501    0  0.46357646561E+01 -0.86113851385E+02  0.47330432405E+02  0.98485255475E+02  0.47000000000E+01 0. -1.
        -11    1    6    6    0    0 -0.63777801980E+01 -0.19406490312E+02  0.30074289155E+02  0.36355891058E+02  0.00000000000E+00 0.  1.
         12    1    6    6    0    0  0.21173581285E+02  0.63064697041E+02  0.28932814508E+02  0.72543671762E+02  0.00000000000E+00 0. -1.
         -5    1    3    3    0  503  0.46118665112E+02  0.55605724982E+01  0.15735327601E+03  0.16413407540E+03  0.47000000000E+01 0.  1.
         13    1    4    4    0    0 -0.24888462676E+02  0.44002908266E+02  0.91029532014E+02  0.10412524770E+03  0.00000000000E+00 0. -1.
        -14    1    4    4    0    0 -0.40661768180E+02 -0.71078361085E+01  0.45449901032E+01  0.41527793834E+02  0.00000000000E+00 0.  1.
</event>
<event>
12    1  0.8113184E-002  0.1814828E+03  0.7818608E-02  0.1166543E+00
         21   -1    0    0  503  502  0.00000000000E+00  0.00000000000E+00  0.22124100464E+03  0.22124100464E+03  0.00000000000E+00 0. -1.
         21   -1    0    0  501  503 -0.00000000000E+00 -0.00000000000E+00 -0.18751579925E+03  0.18751579925E+03  0.00000000000E+00 0. -1.
          6    2    1    2  501    0  0.44778346709E+02 -0.30595748514E+02 -0.76629505383E+02  0.19635584460E+03  0.17245966615E+03 0.  0.
         24    2    3    3    0    0  0.67612682222E+02  0.70809121644E+01  0.37674816385E+01  0.10455876860E+03  0.79351925369E+02 0.  0.
         -6    2    1    2    0  502 -0.44778346709E+02  0.30595748514E+02  0.11035471077E+03  0.21240095929E+03  0.17319008389E+03 0.  0.
        -24    2    5    5    0    0 -0.52518825220E+02  0.78714641196E+02  0.10994654949E+03  0.16343567122E+03  0.75291122590E+02 0.  0.
          5    1    3    3  501    0 -0.22834335513E+02 -0.37676660679E+02 -0.80396987022E+02  0.91797075990E+02  0.47000000000E+01 0. -1.
        -11    1    4    4    0    0  0.22783302980E+02  0.17069184257E+02  0.37853352002E+02  0.47363616877E+02  0.00000000000E+00 0.  1.
         12    1    4    4    0    0  0.44829379242E+02 -0.99882720930E+01 -0.34085870364E+02  0.57195151727E+02  0.00000000000E+00 0. -1.
         -5    1    5    5    0  502  0.77404785110E+01 -0.48118892682E+02  0.40816127518E+00  0.48965288074E+02  0.47000000000E+01 0.  1.
         13    1    6    6    0    0 -0.22728509929E+02 -0.14676492812E+01  0.60476198556E+02  0.64622826847E+02  0.00000000000E+00 0. -1.
        -14    1    6    6    0    0 -0.29790315292E+02  0.80182290477E+02  0.49470350937E+02  0.98812844373E+02  0.00000000000E+00 0.  1.
</event>
<event>
12    1  0.8113184E-002  0.2663392E+03  0.7818608E-02  0.1103539E+00
         21   -1    0    0  503  502  0.00000000000E+00  0.00000000000E+00  0.13864937428E+04  0.13864937428E+04  0.00000000000E+00 0. -1.
         21   -1    0    0  501  503 -0.00000000000E+00 -0.00000000000E+00 -0.20163884022E+03  0.20163884022E+03  0.00000000000E+00 0.  1.
          6    2    1    2  501    0  0.20112117119E+03  0.98079445727E+01 -0.94255958272E+02  0.28158706670E+03  0.17280384598E+03 0.  0.
         24    2    3    3    0    0  0.67433483561E+02 -0.45750097851E+02 -0.73743426464E+02  0.13529302081E+03  0.78903500395E+02 0.  0.
         -6    2    1    2    0  502 -0.20112117119E+03 -0.98079445727E+01  0.12791108608E+04  0.13065455163E+04  0.17432920185E+03 0.  0.
        -24    2    5    5    0    0 -0.22236298364E+03  0.87713472841E+01  0.11663590611E+04  0.11902206994E+04  0.81912275592E+02 0.  0.
          5    1    3    3  501    0  0.13368768763E+03  0.55558042424E+02 -0.20512531807E+02  0.14629404589E+03  0.47000000000E+01 0. -1.
        -13    1    4    4    0    0  0.36958937019E+02  0.19149600470E+02 -0.29911682556E+02  0.51257965011E+02  0.00000000000E+00 0.  1.
         14    1    4    4    0    0  0.30474546541E+02 -0.64899698321E+02 -0.43831743909E+02  0.84035055799E+02  0.00000000000E+00 0. -1.
         -5    1    5    5    0  502  0.21241812451E+02 -0.18579291857E+02  0.11275179979E+03  0.11632481695E+03  0.47000000000E+01 0.  1.
         13    1    6    6    0    0 -0.98214361797E+02 -0.19223753056E+02  0.68717978717E+03  0.69442902693E+03  0.00000000000E+00 0. -1.
        -14    1    6    6    0    0 -0.12414862184E+03  0.27995100340E+02  0.47917927388E+03  0.49579167245E+03  0.00000000000E+00 0.  1.
</event>
<event>
12    1  0.8113184E-002  0.1996041E+03  0.7818608E-02  0.1150212E+00
         21   -1    0    0  501  502  0.00000000000E+00  0.00000000000E+00  0.47717779301E+03  0.47717779301E+03  0.00000000000E+00 0.  1.
         21   -1    0    0  502  503 -0.00000000000E+00 -0.00000000000E+00 -0.12282047191E+03  0.12282047191E+03  0.00000000000E+00 0.  1.
         -6    2    1    2    0  503 -0.79316833408E+02  0.57181783074E+02  0.70321286476E+01  0.19972794220E+03  0.17401403301E+03 0.  0.
        -24    2    3    3    0    0 -0.45543181996E+01 -0.27617975259E+02  0.17558646447E+02  0.86091107195E+02  0.79497662238E+02 0.  0.
          6    2    1    2  501    0  0.79316833408E+02 -0.57181783074E+02  0.34732519245E+03  0.40027032271E+03  0.17326461137E+03 0.  0.
         24    2    5    5    0    0  0.28916416323E+02 -0.35416331921E+02  0.59358894906E+02  0.10707991456E+03  0.76499372537E+02 0.  0.
          5    1    5    5  501    0  0.50400417085E+02 -0.21765451153E+02  0.28796629755E+03  0.29319040815E+03  0.47000000000E+01 0. -1.
        -13    1    6    6    0    0 -0.79061069275E+01 -0.43606286174E+02  0.52559568177E+02  0.68749712200E+02  0.00000000000E+00 0.  1.
         14    1    6    6    0    0  0.36822523250E+02  0.81899542528E+01  0.67993267291E+01  0.38330202362E+02  0.00000000000E+00 0. -1.
         -5    1    3    3    0  503 -0.74762515208E+02  0.84799758333E+02 -0.10526517800E+02  0.11363683501E+03  0.47000000000E+01 0.  1.
         11    1    4    4    0    0 -0.10911591984E+02  0.71306074810E+01  0.41445988153E+02  0.43447420368E+02  0.00000000000E+00 0. -1.
        -12    1    4    4    0    0  0.63572737846E+01 -0.34748582740E+02 -0.23887341706E+02  0.42643686826E+02  0.00000000000E+00 0.  1.
</event>
<event>
12    1  0.8113184E-002  0.2192443E+03  0.7818608E-02  0.1134656E+00
         21   -1    0    0  503  502  0.00000000000E+00  0.00000000000E+00  0.16101436615E+03  0.16101436615E+03  0.00000000000E+00 0.  1.
         21   -1    0    0  501  503 -0.00000000000E+00 -0.00000000000E+00 -0.30511088345E+03  0.30511088345E+03  0.00000000000E+00 0. -1.
          6    2    1    2  501    0  0.13024239826E+03 -0.32545257069E+02 -0.11017088680E+03  0.24536845599E+03  0.17333718249E+03 0.  0.
         24    2    3    3    0    0  0.12573624500E+03 -0.71479046651E+02 -0.48463067895E+02  0.17211485333E+03  0.79724502949E+02 0.  0.
         -6    2    1    2    0  502 -0.13024239826E+03  0.32545257069E+02 -0.33925630498E+02  0.22075679362E+03  0.17193119979E+03 0.  0.
        -24    2    5    5    0    0  0.38558515694E+01  0.11243049495E+02  0.11001639326E+01  0.80453476016E+02  0.79563042231E+02 0.  0.
          5    1    3    3  501    0  0.45061532591E+01  0.38933789582E+02 -0.61707818909E+02  0.73253602662E+02  0.47000000000E+01 0. -1.
        -13    1    4    4    0    0  0.23067864708E+02  0.86082294135E+01 -0.32730386197E+02  0.40957370233E+02  0.00000000000E+00 0.  1.
         14    1    4    4    0    0  0.10266838029E+03 -0.80087276065E+02 -0.15732681699E+02  0.13115748310E+03  0.00000000000E+00 0. -1.
         -5    1    5    5    0  502 -0.13409824983E+03  0.21302207574E+02 -0.35025794431E+02  0.14030331760E+03  0.47000000000E+01 0.  1.
         13    1    6    6    0    0 -0.36414256037E+01  0.41679824740E+02 -0.15943002782E+02  0.44773285657E+02  0.00000000000E+00 0. -1.
        -14    1    6    6    0    0  0.74972771731E+01 -0.30436775246E+02  0.17043166715E+02  0.35680190359E+02  0.00000000000E+00 0.  1.
</event>
<event>
12    1  0.8113184E-002  0.1853237E+03  0.7818608E-02  0.1163831E+00
         21   -1    0    0  503  502  0.00000000000E+00  0.00000000000E+00  0.25720169826E+03  0.25720169826E+03  0.00000000000E+00 0.  1.
         21   -1    0    0  501  503 -0.00000000000E+00 -0.00000000000E+00 -0.14834036592E+03  0.14834036592E+03  0.00000000000E+00 0.  1.
          6    2    1    2  501    0 -0.28945651362E+02 -0.47003343638E+02 -0.16981261644E+02  0.18153037394E+03  0.17209807776E+03 0.  0.
         24    2    3    3    0    0 -0.39617159163E+02 -0.85564716820E+02  0.30211050272E+02  0.11948148286E+03  0.66875085968E+02 0.  0.
         -6    2    1    2    0  502  0.28945651362E+02  0.47003343638E+02  0.12584259398E+03  0.22401169025E+03  0.17691159900E+03 0.  0.
        -24    2    5    5    0    0  0.31108608805E+02  0.43143241479E+02 -0.11985688952E+02  0.86032328201E+02  0.66549379628E+02 0.  0.
          5    1    3    3  501    0  0.10671507801E+02  0.38561373181E+02 -0.47192311916E+02  0.62048891081E+02  0.47000000000E+01 0. -1.
        -13    1    4    4    0    0 -0.19042794194E+02 -0.17369062072E+02 -0.19753604322E+02  0.32473330776E+02  0.00000000000E+00 0.  1.
         14    1    4    4    0    0 -0.20574364969E+02 -0.68195654748E+02  0.49964654594E+02  0.87008152084E+02  0.00000000000E+00 0. -1.
         -5    1    5    5    0  502 -0.21629574432E+01  0.38601021597E+01  0.13782828294E+03  0.13797936205E+03  0.47000000000E+01 0.  1.
         13    1    6    6    0    0  0.36524399004E+02  0.50502921964E+02  0.91608478239E+01  0.62996015607E+02  0.00000000000E+00 0. -1.
        -14    1    6    6    0    0 -0.54157901984E+01 -0.73596804852E+01 -0.21146536776E+02  0.23036312594E+02  0.00000000000E+00 0.  1.
</event>
<event>
12    1  0.8113184E-002  0.1907927E+03  0.7818608E-02  0.1158040E+00
         21   -1    0    0  501  502  0.00000000000E+00  0.00000000000E+00  0.14466486587E+03  0.14466486587E+03  0.00000000000E+00 0. -1.
         21   -1    0    0  502  503 -0.00000000000E+00 -0.00000000000E+00 -0.32508281097E+03  0.32508281097E+03  0.00000000000E+00 0. -1.
         -6    2    1    2    0  503  0.81791157829E+02 -0.19151031574E+01  0.22964421806E+02  0.19088169229E+03  0.17092394409E+03 0.  0.
        -24    2    3    3    0    0  0.55474523592E+01 -0.32441492123E+02  0.54093084894E+02  0.10292689303E+03  0.81145910786E+02 0.  0.
          6    2    1    2  501    0 -0.81791157829E+02  0.19151031574E+01 -0.20338236691E+03  0.27886598456E+03  0.17236121679E+03 0.  0.
         24    2    5    5    0    0 -0.50235506989E+02  0.18410763978E+02 -0.24628874392E+02  0.96539993506E+02  0.76490695510E+02 0.  0.
          5    1    5    5  501    0 -0.31555650840E+02 -0.16495660820E+02 -0.17875349251E+03  0.18232599105E+03  0.47000000000E+01 0. -1.
        -13    1    6    6    0    0 -0.65880640240E-01 -0.11215945132E+02  0.20146491327E+02  0.23058249679E+02  0.00000000000E+00 0.  1.
         14    1    6    6    0    0 -0.50169626348E+02  0.29626709110E+02 -0.44775365719E+02  0.73481743827E+02  0.00000000000E+00 0. -1.
         -5    1    3    3    0  503  0.76243705470E+02  0.30526388966E+02 -0.31128663087E+02  0.87954799259E+02  0.47000000000E+01 0.  1.
         11    1    4    4    0    0  0.90613395898E+01 -0.58640828769E+02  0.46609780993E+02  0.75454134136E+02  0.00000000000E+00 0. -1.
        -12    1    4    4    0    0 -0.35138872306E+01  0.26199336646E+02  0.74833039003E+01  0.27472758898E+02  0.00000000000E+00 0.  1.
</event>
<event>
12    1  0.8113184E-002  0.1849322E+03  0.7818608E-02  0.1163126E+00
         21   -1    0    0  501  502  0.00000000000E+00  0.00000000000E+00  0.26295297901E+03  0.26295297901E+03  0.00000000000E+00 0. -1.
         21   -1    0    0  502  503 -0.00000000000E+00 -0.00000000000E+00 -0.15625728098E+03  0.15625728098E+03  0.00000000000E+00 0. -1.
         -6    2    1    2    0  503 -0.46911975291E+01 -0.66796858988E+02 -0.32531598099E+02  0.18777173679E+03  0.17238356232E+03 0.  0.
        -24    2    3    3    0    0  0.19579746834E+01  0.24283842318E+02  0.15421191845E+02  0.84517363011E+02  0.79447044185E+02 0.  0.
          6    2    1    2  501    0  0.46911975291E+01  0.66796858988E+02  0.13922729612E+03  0.23143852320E+03  0.17232446817E+03 0.  0.
         24    2    5    5    0    0 -0.23626671756E+02  0.26637191602E+02  0.45047049320E+01  0.87956931411E+02  0.80301742335E+02 0.  0.
          5    1    5    5  501    0  0.28317869285E+02  0.40159667386E+02  0.13472259119E+03  0.14348159179E+03  0.47000000000E+01 0. -1.
        -11    1    6    6    0    0 -0.10886371804E+02  0.53667128355E+02 -0.84125010910E+01  0.55402562500E+02  0.00000000000E+00 0.  1.
         12    1    6    6    0    0 -0.12740299952E+02 -0.27029936753E+02  0.12917206023E+02  0.32554368911E+02  0.00000000000E+00 0. -1.
         -5    1    3    3    0  503 -0.66491722126E+01 -0.91080701307E+02 -0.47952789944E+02  0.10325437378E+03  0.47000000000E+01 0.  1.
         11    1    4    4    0    0  0.36035167030E+02  0.11900497812E+02 -0.11164269749E+02  0.39557502829E+02  0.00000000000E+00 0. -1.
        -12    1    4    4    0    0 -0.34077192346E+02  0.12383344507E+02  0.26585461594E+02  0.44959860182E+02  0.00000000000E+00 0.  1.
</event>
<event>
12    1  0.8113184E-002  0.3863587E+03  0.7818608E-02  0.1048846E+00
         21   -1    0    0  503  502  0.00000000000E+00  0.00000000000E+00  0.31922328185E+03  0.31922328185E+03  0.00000000000E+00 0. -1.
         21   -1    0    0  501  503 -0.00000000000E+00 -0.00000000000E+00 -0.62224084628E+03  0.62224084628E+03  0.00000000000E+00 0. -1.
          6    2    1    2  501    0 -0.45382349304E+02 -0.34263553193E+03 -0.38816955202E+03  0.54583309189E+03  0.16673181376E+03 0.  0.
         24    2    3    3    0    0  0.80126267355E+01 -0.88022309587E+02 -0.79241648694E+02  0.14193031162E+03  0.77800034041E+02 0.  0.
         -6    2    1    2    0  502  0.45382349304E+02  0.34263553193E+03  0.85151987585E+02  0.39563103625E+03  0.17266844091E+03 0.  0.
        -24    2    5    5    0    0  0.62575680974E+02  0.35142226874E+03  0.86269312277E+02  0.37572737296E+03  0.79469099245E+02 0.  0.
          5    1    3    3  501    0 -0.53394976039E+02 -0.25461322234E+03 -0.30892790332E+03  0.40390278027E+03  0.47000000000E+01 0. -1.
        -13    1    4    4    0    0 -0.21372481277E+02 -0.26158893840E+02  0.41341659563E+01  0.34031779428E+02  0.00000000000E+00 0.  1.
         14    1    4    4    0    0  0.29385108013E+02 -0.61863415748E+02 -0.83375814650E+02  0.10789853219E+03  0.00000000000E+00 0. -1.
         -5    1    5    5    0  502 -0.17193331670E+02 -0.87867368158E+01 -0.11173246923E+01  0.19903663287E+02  0.47000000000E+01 0.  1.
         11    1    6    6    0    0  0.33909390165E+02  0.25743798243E+03  0.96331344173E+02  0.27695467032E+03  0.00000000000E+00 0. -1.
        -12    1    6    6    0    0  0.28666290809E+02  0.93984286310E+02 -0.10062031896E+02  0.98772702645E+02  0.00000000000E+00 0.  1.
</event>
<event>
12    1  0.8113184E-002  0.1796159E+03  0.7818608E-02  0.1168546E+00
         21   -1    0    0  503  502  0.00000000000E+00  0.00000000000E+00  0.10566461338E+03  0.10566461338E+03  0.00000000000E+00 0. -1.
         21   -1    0    0  501  503 -0.00000000000E+00 -0.00000000000E+00 -0.30736470214E+03  0.30736470214E+03  0.00000000000E+00 0. -1.
          6    2    1    2  501    0 -0.23709210064E+02  0.18416108984E+02 -0.12574669710E+03  0.21801446667E+03  0.17554713365E+03 0.  0.
         24    2    3    3    0    0 -0.22556310836E+02  0.43130865606E+02 -0.15414260942E+03  0.18005967503E+03  0.79325177640E+02 0.  0.
         -6    2    1    2    0  502  0.23709210064E+02 -0.18416108984E+02 -0.75953391661E+02  0.19501484886E+03  0.17708922570E+03 0.  0.
        -24    2    5    5    0    0  0.32135558661E+02 -0.77011677142E+02 -0.67053238385E+02  0.13496697890E+03  0.82197664617E+02 0.  0.
          5    1    3    3  501    0 -0.11528992277E+01 -0.24714756622E+02  0.28395912320E+02  0.37954791634E+02  0.47000000000E+01 0. -1.
        -13    1    4    4    0    0  0.99325343841E+01  0.72878027124E+01 -0.12051710741E+03  0.12114512160E+03  0.00000000000E+00 0.  1.
         14    1    4    4    0    0 -0.32488845220E+02  0.35843062894E+02 -0.33625502009E+02  0.58914553437E+02  0.00000000000E+00 0. -1.
         -5    1    5    5    0  502 -0.84263485976E+01  0.58595568158E+02 -0.89001532766E+01  0.60047869960E+02  0.47000000000E+01 0.  1.
         13    1    6    6    0    0  0.40221272832E+01 -0.55125145181E+02 -0.79847302374E+02  0.97111023244E+02  0.00000000000E+00 0. -1.
        -14    1    6    6    0    0  0.28113431378E+02 -0.21886531961E+02  0.12794063990E+02  0.37855955655E+02  0.00000000000E+00 0.  1.
</event>
<event>
12    1  0.8113184E-002  0.2095888E+03  0.7818608E-02  0.1142215E+00
         21   -1    0    0  503  502  0.00000000000E+00  0.00000000000E+00  0.16257113546E+03  0.16257113546E+03  0.00000000000E+00 0.  1.
         21   -1    0    0  501  503 -0.00000000000E+00 -0.00000000000E+00 -0.64349402323E+03  0.64349402323E+03  0.00000000000E+00 0.  1.
          6    2    1    2  501    0 -0.16004705559E+02 -0.11621143795E+03 -0.54789374744E+03  0.58603659792E+03  0.17172677924E+03 0.  0.
         24    2    3    3    0    0 -0.28075024322E+02 -0.14973520747E+03 -0.49867484722E+03  0.52509296940E+03  0.61945007232E+02 0.  0.
         -6    2    1    2    0  502  0.16004705559E+02  0.11621143795E+03  0.66970859673E+02  0.22002856077E+03  0.17368426123E+03 0.  0.
        -24    2    5    5    0    0  0.42897450371E+02  0.13837389085E+03  0.78402075753E+02  0.18305347803E+03  0.79838370600E+02 0.  0.
          5    1    3    3  501    0  0.12070318763E+02  0.33523769521E+02 -0.49218900227E+02  0.60943628523E+02  0.47000000000E+01 0. -1.
        -11    1    4    4    0    0 -0.18927430906E+02 -0.12317450623E+03 -0.30634887051E+03  0.33072622679E+03  0.00000000000E+00 0.  1.
         12    1    4    4    0    0 -0.91475934164E+01 -0.26560701236E+02 -0.19232597671E+03  0.19436674261E+03  0.00000000000E+00 0. -1.
         -5    1    5    5    0  502 -0.26892744812E+02 -0.22162452903E+02 -0.11431216081E+02  0.36975082735E+02  0.47000000000E+01 0.  1.
         13    1    6    6    0    0  0.40347370756E+02  0.42633184878E+02  0.62896498490E+02  0.86031786580E+02  0.00000000000E+00 0. -1.
        -14    1    6    6    0    0  0.25500796148E+01  0.95740705972E+02  0.15505577263E+02  0.97021691453E+02  0.00000000000E+00 0.  1.
</event>
<event>
12    1  0.8113184E-002  0.2539514E+03  0.7818608E-02  0.1113557E+00
         21   -1    0    0  503  502  0.00000000000E+00  0.00000000000E+00  0.40323910410E+03  0.40323910410E+03  0.00000000000E+00 0.  1.
         21   -1    0    0  501  503 -0.00000000000E+00 -0.00000000000E+00 -0.17102839397E+03  0.17102839397E+03  0.00000000000E+00 0.  1.
          6    2    1    2  501    0  0.14627837051E+03  0.74989815361E+02  0.10621232241E+02  0.23723161272E+03  0.17071963395E+03 0.  0.
         24    2    3    3    0    0  0.87844980422E+02  0.10656620855E+03 -0.26710682610E+02  0.16089491414E+03  0.78106436624E+02 0.  0.
         -6    2    1    2    0  502 -0.14627837051E+03 -0.74989815361E+02  0.22158947789E+03  0.33703588535E+03  0.19357287314E+03 0.  0.
        -24    2    5    5    0    0 -0.11939875727E+03  0.11528924140E+02  0.70712452800E+02  0.16098483425E+03  0.80789148709E+02 0.  0.
          5    1    3    3  501    0  0.58433390085E+02 -0.31576393188E+02  0.37331914852E+02  0.76336698580E+02  0.47000000000E+01 0. -1.
        -13    1    4    4    0    0  0.97250165155E+02  0.68212054306E+02 -0.15167584779E+02  0.11975197119E+03  0.00000000000E+00 0.  1.
         14    1    4    4    0    0 -0.94051847336E+01  0.38354154242E+02 -0.11543097831E+02  0.41142942956E+02  0.00000000000E+00 0. -1.
         -5    1    5    5    0  502 -0.26879613239E+02 -0.86518739501E+02  0.15087702509E+03  0.17605105110E+03  0.47000000000E+01 0.  1.
         13    1    6    6    0    0 -0.23923475084E+02  0.25934859784E+02  0.51671792521E+02  0.62569351559E+02  0.00000000000E+00 0. -1.
        -14    1    6    6    0    0 -0.95475282183E+02 -0.14405935644E+02  0.19040660279E+02  0.98415482693E+02  0.00000000000E+00 0.  1.
</event>
<event>
12    1  0.8113184E-002  0.1794130E+03  0.7818608E-02  0.1170080E+00
         21   -1    0    0  501  502  0.00000000000E+00  0.00000000000E+00  0.42679235557E+03  0.42679235557E+03  0.00000000000E+00 0. -1.
         21   -1    0    0  502  503 -0.00000000000E+00 -0.00000000000E+00 -0.93272019044E+02  0.93272019044E+02  0.00000000000E+00 0. -1.
         -6    2    1    2    0  503  0.23077146040E+02 -0.42278733955E+02  0.46767673929E+02  0.18540829213E+03  0.17282642579E+03 0.  0.
        -24    2    3    3    0    0 -0.33513504020E+02 -0.69655564976E+02  0.77434293718E+01  0.11126670991E+03  0.79657186440E+02 0.  0.
          6    2    1    2  501    0 -0.23077146040E+02  0.42278733955E+02  0.28675266259E+03  0.33465608248E+03  0.16567304555E+03 0.  0.
         24    2    5    5    0    0  0.22139129496E+02 -0.22570726060E+02  0.97687192843E+02  0.12967362984E+03  0.79201539767E+02 0.  0.
          5    1    5    5  501    0 -0.45216275536E+02  0.64849460016E+02  0.18906546975E+03  0.20498245264E+03  0.47000000000E+01 0. -1.
        -11    1    6    6    0    0  0.17373672813E+02 -0.30351276950E+02  0.10938431503E+03  0.11483889975E+03  0.00000000000E+00 0.  1.
         12    1    6    6    0    0  0.47654566831E+01  0.77805508893E+01 -0.11697122190E+02  0.14834730098E+02  0.00000000000E+00 0. -1.
         -5    1    3    3    0  503  0.56590650060E+02  0.27376831020E+02  0.39024244557E+02  0.74141582221E+02  0.47000000000E+01 0.  1.
         13    1    4    4    0    0  0.87582155585E+01 -0.49209159068E+02 -0.23124465581E+02  0.55072575610E+02  0.00000000000E+00 0. -1.
        -14    1    4    4    0    0 -0.42271719579E+02 -0.20446405908E+02  0.30867894952E+02  0.56194134298E+02  0.00000000000E+00 0.  1.
</event>
<event>
12    1  0.8113184E-002  0.1936071E+03  0.7818608E-02  0.1155268E+00
         21   -1    0    0  503  502  0.00000000000E+00  0.00000000000E+00  0.12958079478E+03  0.12958079478E+03  0.00000000000E+00 0. -1.
         21   -1    0    0  501  503 -0.00000000000E+00 -0.00000000000E+00 -0.34469526727E+03  0.34469526727E+03  0.00000000000E+00 0.  1.
          6    2    1    2  501    0  0.67924056003E+01 -0.88329420784E+02 -0.12371101823E+02  0.19400192483E+03  0.17214958417E+03 0.  0.
         24    2    3    3    0    0  0.30607970180E+02 -0.82744845974E+02  0.49200350778E+02  0.12758278326E+03  0.77930319475E+02 0.  0.
         -6    2    1    2    0  502 -0.67924056003E+01  0.88329420784E+02 -0.20274337067E+03  0.28027413721E+03  0.17204794184E+03 0.  0.
        -24    2    5    5    0    0 -0.13471341301E+02  0.11000010703E+03 -0.87044812300E+02  0.16228060675E+03  0.80477918683E+02 0.  0.
          5    1    3    3  501    0 -0.23815564580E+02 -0.55845748102E+01 -0.61571452601E+02  0.66419141574E+02  0.47000000000E+01 0. -1.
        -11    1    4    4    0    0  0.31650997670E+02  0.31405594890E+01  0.12356427186E+02  0.34122280994E+02  0.00000000000E+00 0.  1.
         12    1    4    4    0    0 -0.10430274901E+01 -0.85885405463E+02  0.36843923592E+02  0.93460502264E+02  0.00000000000E+00 0. -1.
         -5    1    5    5    0  502  0.66789357008E+01 -0.21670686242E+02 -0.11569855837E+03  0.11799353047E+03  0.47000000000E+01 0.  1.
         13    1    6    6    0    0  0.83100390273E+01  0.88238865133E+02 -0.23534755071E+02  0.91700811146E+02  0.00000000000E+00 0. -1.
        -14    1    6    6    0    0 -0.21781380328E+02  0.21761241892E+02 -0.63510057229E+02  0.70579795600E+02  0.00000000000E+00 0.  1.
</event>
<event>
12    1  0.8113184E-002  0.2231328E+03  0.7818608E-02  0.1131724E+00
         21   -1    0    0  501  502  0.00000000000E+00  0.00000000000E+00  0.17103955681E+03  0.17103955681E+03  0.00000000000E+00 0. -1.
         21   -1    0    0  502  503 -0.00000000000E+00 -0.00000000000E+00 -0.61412370370E+03  0.61412370370E+03  0.00000000000E+00 0.  1.
         -6    2    1    2    0  503 -0.12764676502E+03  0.61043898134E+02 -0.50655317674E+03  0.55317932363E+03  0.17143858697E+03 0.  0.
        -24    2    3    3    0    0 -0.88629713133E+01  0.99276768619E+01 -0.10620401688E+03  0.13243712522E+03  0.77994794091E+02 0.  0.
          6    2    1    2  501    0  0.12764676502E+03 -0.61043898134E+02  0.63469029855E+02  0.23198393688E+03  0.17253456205E+03 0.  0.
         24    2    5    5    0    0  0.13645615719E+02 -0.14435104732E+02 -0.58196825178E+00  0.93083749615E+02  0.90937729674E+02 0.  0.
          5    1    5    5  501    0  0.11400114931E+03 -0.46608793401E+02  0.64050998107E+02  0.13890018727E+03  0.47000000000E+01 0. -1.
        -11    1    6    6    0    0 -0.13997048836E+02 -0.30090385968E+02 -0.33626842451E+02  0.47245245656E+02  0.00000000000E+00 0.  1.
         12    1    6    6    0    0  0.27642664555E+02  0.15655281236E+02  0.33044874199E+02  0.45838503959E+02  0.00000000000E+00 0. -1.
         -5    1    3    3    0  503 -0.11878379371E+03  0.51116221272E+02 -0.40034915985E+03  0.42074219841E+03  0.47000000000E+01 0.  1.
         11    1    4    4    0    0  0.26469698037E+02  0.18279037432E+02 -0.83831183091E+02  0.89791065157E+02  0.00000000000E+00 0. -1.
        -12    1    4    4    0    0 -0.35332669350E+02 -0.83513605702E+01 -0.22372833793E+02  0.42646060061E+02  0.00000000000E+00 0.  1.
</event>
<event>
12    1  0.8113184E-002  0.1788300E+03  0.7818608E-02  0.1169250E+00
         21   -1    0    0  501  502  0.00000000000E+00  0.00000000000E+00  0.23949986310E+03  0.23949986310E+03  0.00000000000E+00 0.  1.
         21   -1    0    0  502  503 -0.00000000000E+00 -0.00000000000E+00 -0.26353570258E+03  0.26353570258E+03  0.00000000000E+00 0.  1.
         -6    2    1    2    0  503  0.38985173971E+02  0.13641187504E+02 -0.18929350757E+03  0.25953961504E+03  0.17269294710E+03 0.  0.
        -24    2    3    3    0    0  0.68496616801E+02  0.57210256083E+02 -0.10000305258E+03  0.15578960614E+03  0.79403973076E+02 0.  0.
          6    2    1    2  501    0 -0.38985173971E+02 -0.13641187504E+02  0.16525766810E+03  0.24349595064E+03  0.17399498650E+03 0.  0.
         24    2    5    5    0    0  0.39235606305E+02 -0.24048590265E+02  0.12346167090E+03  0.15407671400E+03  0.79869156258E+02 0.  0.
          5    1    5    5  501    0 -0.78220780277E+02  0.10407402761E+02  0.41795997202E+02  0.89419236641E+02  0.47000000000E+01 0. -1.
        -13    1    6    6    0    0  0.48536052692E+01  0.14878307735E+02  0.92068955231E+02  0.93389582088E+02  0.00000000000E+00 0.  1.
         14    1    6    6    0    0  0.34382001036E+02 -0.38926898000E+02  0.31392715664E+02  0.60687131914E+02  0.00000000000E+00 0. -1.
         -5    1    3    3    0  503 -0.29511442830E+02 -0.43569068579E+02 -0.89290454987E+02  0.10375000890E+03  0.47000000000E+01 0.  1.
         13    1    4    4    0    0  0.39010990988E+02 -0.54226747651E+01 -0.72447530929E+01  0.40046838413E+02  0.00000000000E+00 0. -1.
        -14    1    4    4    0    0  0.29485625813E+02  0.62632930848E+02 -0.92758299492E+02  0.11574276773E+03  0.00000000000E+00 0.  1.
</event>
<event>
12    1  0.8113184E-002  0.1910955E+03  0.7818608E-02  0.1158284E+00
         21   -1    0    0  503  502  0.00000000000E+00  0.00000000000E+00  0.63073257907E+02  0.63073257907E+02  0.00000000000E+00 0.  1.
         21   -1    0    0  501  503 -0.00000000000E+00 -0.00000000000E+00 -0.89663797451E+03  0.89663797451E+03  0.00000000000E+00 0.  1.
          6    2    1    2  501    0  0.71441106587E+02 -0.23729917633E+02 -0.70470236086E+03  0.72922693049E+03  0.17175435378E+03 0.  0.
         24    2    3    3    0    0 -0.21459912027E+02 -0.14086549063E+02 -0.45050728059E+03  0.45837489957E+03  0.80571583100E+02 0.  0.
         -6    2    1    2    0  502 -0.71441106587E+02  0.23729917633E+02 -0.12886235574E+03  0.23048430193E+03  0.17564329195E+03 0.  0.
        -24    2    5    5    0    0 -0.10782089036E+03 -0.17269908745E+02 -0.95549369737E+02  0.16617007748E+03  0.80989002004E+02 0.  0.
          5    1    3    3  501    0  0.92901018614E+02 -0.96433685704E+01 -0.25419508028E+03  0.27085203092E+03  0.47000000000E+01 0. -1.
        -11    1    4    4    0    0  0.27099767588E+02 -0.22514440605E+02 -0.18051728878E+03  0.18392332366E+03  0.00000000000E+00 0.  1.
         12    1    4    4    0    0 -0.48559679615E+02  0.84278915424E+01 -0.26998999181E+03  0.27445157591E+03  0.00000000000E+00 0. -1.
         -5    1    5    5    0  502  0.36379783772E+02  0.40999826379E+02 -0.33312986003E+02  0.64314224452E+02  0.47000000000E+01 0.  1.
         13    1    6    6    0    0 -0.74712327086E+02 -0.29174658336E+01 -0.10496868530E+03  0.12887539843E+03  0.00000000000E+00 0. -1.
        -14    1    6    6    0    0 -0.33108563273E+02 -0.14352442912E+02  0.94193155676E+01  0.37294679049E+02  0.00000000000E+00 0.  1.
</event>
<event>
12    1  0.8113184E-002  0.2759071E+03  0.7818608E-02  0.1097965E+00
         21   -1    0    0  501  502  0.00000000000E+00  0.00000000000E+00  0.15351888518E+04  0.15351888518E+04  0.00000000000E+00 0. -1.
         21   -1    0    0  502  503 -0.00000000000E+00 -0.00000000000E+00 -0.90104731196E+02  0.90104731196E+02  0.00000000000E+00 0.  1.
         -6    2    1    2    0  503 -0.16861321736E+03  0.13457564095E+03  0.17732956472E+03  0.32786291461E+03  0.17177687867E+03 0.  0.
        -24    2    3    3    0    0 -0.22754329369E+02  0.61035866627E+02  0.26972982730E+02  0.10579962327E+03  0.78885245554E+02 0.  0.
          6    2    1    2  501    0  0.16861321736E+03 -0.13457564095E+03  0.12677545559E+04  0.12974306684E+04  0.17199914274E+03 0.  0.
         24    2    5    5    0    0  0.39152673846E+02 -0.86160539758E+02  0.80456868508E+03  0.81403921701E+03  0.79827985963E+02 0.  0.
          5    1    5    5  501    0  0.12946054351E+03 -0.48415101195E+02  0.46318587080E+03  0.48339145137E+03  0.47000000000E+01 0. -1.
        -11    1    6    6    0    0  0.32424189869E+02 -0.68252719864E+02  0.30912630318E+03  0.31822764364E+03  0.00000000000E+00 0.  1.
         12    1    6    6    0    0  0.67284839770E+01 -0.17907819894E+02  0.49544238190E+03  0.49581157337E+03  0.00000000000E+00 0. -1.
         -5    1    3    3    0  503 -0.14585888799E+03  0.73539774326E+02  0.15035658199E+03  0.22206329134E+03  0.47000000000E+01 0.  1.
         13    1    4    4    0    0 -0.41485610692E+02  0.13240592643E+02 -0.71892518127E+01  0.44136770721E+02  0.00000000000E+00 0. -1.
        -14    1    4    4    0    0  0.18731281323E+02  0.47795273984E+02  0.34162234543E+02  0.61662852546E+02  0.00000000000E+00 0.  1.
</event>
<event>
12    1  0.8113184E-002  0.3046871E+03  0.7818608E-02  0.1082957E+00
         21   -1    0    0  503  502  0.00000000000E+00  0.00000000000E+00  0.62500422484E+03  0.62500422484E+03  0.00000000000E+00 0. -1.
         21   -1    0    0  501  503 -0.00000000000E+00 -0.00000000000E+00 -0.14883063325E+03  0.14883063325E+03  0.00000000000E+00 0.  1.
          6    2    1    2  501    0 -0.12410144985E+03  0.21885943948E+03  0.25927460531E+03  0.40007194736E+03  0.17185347829E+03 0.  0.
         24    2    3    3    0    0 -0.12526390037E+03  0.19713592041E+03  0.15138490521E+03  0.28991052054E+03  0.81099349798E+02 0.  0.
         -6    2    1    2    0  502  0.12410144985E+03 -0.21885943948E+03  0.21689898628E+03  0.37376291073E+03  0.17132693626E+03 0.  0.
        -24    2    5    5    0    0  0.12473318410E+03 -0.87505634629E+02  0.11746599914E+03  0.20895019864E+03  0.81524973165E+02 0.  0.
          5    1    3    3  501    0  0.11624505256E+01  0.21723519067E+02  0.10788970010E+03  0.11016142682E+03  0.47000000000E+01 0. -1.
        -13    1    4    4    0    0 -0.20444591710E+02 -0.31631381649E+01  0.18021706316E+02  0.27436630110E+02  0.00000000000E+00 0.  1.
         14    1    4    4    0    0 -0.10481930866E+03  0.20029905858E+03  0.13336319890E+03  0.26247389043E+03  0.00000000000E+00 0. -1.
         -5    1    5    5    0  502 -0.63173425279E+00 -0.13135380485E+03  0.99432987140E+02  0.16481271210E+03  0.47000000000E+01 0.  1.
         13    1    6    6    0    0  0.48550496329E+02  0.38604775656E+01  0.58676069189E+02  0.76255721597E+02  0.00000000000E+00 0. -1.
        -14    1    6    6    0    0  0.76182687771E+02 -0.91366112194E+02  0.58789929949E+02  0.13269447704E+03  0.00000000000E+00 0.  1.
</event>
<event>
12    1  0.8113184E-002  0.4036782E+03  0.7818608E-02  0.1042799E+00
         21   -1    0    0  503  502  0.00000000000E+00  0.00000000000E+00  0.30358207085E+03  0.30358207085E+03  0.00000000000E+00 0. -1.
         21   -1    0    0  501  503 -0.00000000000E+00 -0.00000000000E+00 -0.93388470867E+03  0.93388470867E+03  0.00000000000E+00 0.  1.
          6    2    1    2  501    0  0.12772397021E+03  0.33804479899E+03 -0.72159128350E+03  0.82683131953E+03  0.17991206698E+03 0.  0.
         24    2    3    3    0    0  0.10844224787E+03  0.31689788681E+03 -0.71978183519E+03  0.79777377638E+03  0.78569181143E+02 0.  0.
         -6    2    1    2    0  502 -0.12772397021E+03 -0.33804479899E+03  0.91288645680E+02  0.41063545998E+03  0.17233735949E+03 0.  0.
        -24    2    5    5    0    0 -0.48215778665E+02 -0.65412478617E+02  0.45108451632E+02  0.12287751490E+03  0.80377593823E+02 0.  0.
          5    1    3    3  501    0  0.19281722337E+02  0.21146912178E+02 -0.18094483165E+01  0.29057543154E+02  0.47000000000E+01 0. -1.
        -13    1    4    4    0    0  0.27147526164E+02  0.19478556218E+03 -0.38754491739E+03  0.43459114856E+03  0.00000000000E+00 0.  1.
         14    1    4    4    0    0  0.81294721706E+02  0.12211232463E+03 -0.33223691779E+03  0.36318262782E+03  0.00000000000E+00 0. -1.
         -5    1    5    5    0  502 -0.79508191542E+02 -0.27263232037E+03  0.46180194047E+02  0.28775794508E+03  0.47000000000E+01 0.  1.
         13    1    6    6    0    0 -0.14616884729E+02 -0.77243777257E+02  0.29149364437E+02  0.83844736813E+02  0.00000000000E+00 0. -1.
        -14    1    6    6    0    0 -0.33598893936E+02  0.11831298640E+02  0.15959087195E+02  0.39032778089E+02  0.00000000000E+00 0.  1.
</event>
<event>
12    1  0.8113184E-002  0.2198133E+03  0.7818608E-02  0.1134309E+00
         21   -1    0    0  503  502  0.00000000000E+00  0.00000000000E+00  0.72588967370E+03  0.72588967370E+03  0.00000000000E+00 0.  1.
         21   -1    0    0  501  503 -0.00000000000E+00 -0.00000000000E+00 -0.74993754557E+02  0.74993754557E+02  0.00000000000E+00 0. -1.
          6    2    1    2  501    0 -0.21136426183E+02  0.13377301838E+03  0.18855449204E+03  0.28960434365E+03  0.17313552621E+03 0.  0.
         24    2    3    3    0    0 -0.51166121645E+02  0.14427920864E+03  0.11065076049E+03  0.20532359833E+03  0.80496752630E+02 0.  0.
         -6    2    1    2    0  502  0.21136426183E+02 -0.13377301838E+03  0.46234142710E+03  0.51127908460E+03  0.17118626750E+03 0.  0.
        -24    2    5    5    0    0  0.76832466270E+02 -0.90551419955E+02  0.25307941240E+03  0.29041071600E+03  0.78653718656E+02 0.  0.
          5    1    3    3  501    0  0.30029695462E+02 -0.10506190257E+02  0.77903731548E+02  0.84280745324E+02  0.47000000000E+01 0. -1.
        -13    1    4    4    0    0  0.16367353310E+02  0.24921889269E+02  0.43212635463E+02  0.52500692212E+02  0.00000000000E+00 0.  1.
         14    1    4    4    0    0 -0.67533474956E+02  0.11935731937E+03  0.67438125026E+02  0.15282290611E+03  0.00000000000E+00 0. -1.
         -5    1    5    5    0  502 -0.55696040087E+02 -0.43221598425E+02  0.20926201470E+03  0.22086836860E+03  0.47000000000E+01 0.  1.
         13    1    6    6    0    0  0.30763859436E+02 -0.67476633186E+02  0.76819251269E+02  0.10677410004E+03  0.00000000000E+00 0. -1.
        -14    1    6    6    0    0  0.46068606834E+02 -0.23074786768E+02  0.17626016113E+03  0.18363661596E+03  0.00000000000E+00 0.  1.
</event>
<event>
12    1  0.8113184E-002  0.1993573E+03  0.7818608E-02  0.1150290E+00
         21   -1    0    0  503  502  0.00000000000E+00  0.00000000000E+00  0.33261743795E+03  0.33261743795E+03  0.00000000000E+00 0.  1.
         21   -1    0    0  501  503 -0.00000000000E+00 -0.00000000000E+00 -0.44627385978E+03  0.44627385978E+03  0.00000000000E+00 0. -1.
          6    2    1    2  501    0  0.18160492790E+02 -0.98299681144E+02 -0.39009719882E+03  0.43808579073E+03  0.17248392593E+03 0.  0.
         24    2    3    3    0    0  0.79106748585E+02 -0.65831988641E+02 -0.25463621817E+03  0.28596621793E+03  0.79657678803E+02 0.  0.
         -6    2    1    2    0  502 -0.18160492790E+02  0.98299681144E+02  0.27644077699E+03  0.34080550700E+03  0.17244204710E+03 0.  0.
        -24    2    5    5    0    0 -0.67281351045E+02  0.88347815010E+02  0.14085408104E+03  0.19617584036E+03  0.79454210577E+02 0.  0.
          5    1    3    3  501    0 -0.60946255795E+02 -0.32467692503E+02 -0.13546098064E+03  0.15211957280E+03  0.47000000000E+01 0. -1.
        -11    1    4    4    0    0 -0.13532050838E+01 -0.27944875887E+02 -0.12924541033E+03  0.13223888741E+03  0.00000000000E+00 0.  1.
         12    1    4    4    0    0  0.80459953669E+02 -0.37887112755E+02 -0.12539080784E+03  0.15372733052E+03  0.00000000000E+00 0. -1.
         -5    1    5    5    0  502  0.49120858255E+02  0.99518661341E+01  0.13558669594E+03  0.14462966664E+03  0.47000000000E+01 0.  1.
         11    1    6    6    0    0 -0.67949586604E+02  0.23880954430E+02  0.77043906077E+02  0.10546662869E+03  0.00000000000E+00 0. -1.
        -12    1    6    6    0    0  0.66823555923E+00  0.64466860580E+02  0.63810174966E+02  0.90709211666E+02  0.00000000000E+00 0.  1.
</event>
<event>
12    1  0.8113184E-002  0.2116949E+03  0.7818608E-02  0.1140452E+00
         21   -1    0    0  503  502  0.00000000000E+00  0.00000000000E+00  0.26645133583E+03  0.26645133583E+03  0.00000000000E+00 0.  1.
         21   -1    0    0  501  503 -0.00000000000E+00 -0.00000000000E+00 -0.21390531137E+03  0.21390531137E+03  0.00000000000E+00 0. -1.
          6    2    1    2  501    0  0.52185712495E+02 -0.11069118987E+03 -0.85894208035E+02  0.22741315741E+03  0.17135647372E+03 0.  0.
         24    2    3    3    0    0  0.93726246947E+02 -0.60685037087E+02 -0.30198549004E+02  0.14167910493E+03  0.81815238921E+02 0.  0.
         -6    2    1    2    0  502 -0.52185712495E+02  0.11069118987E+03  0.13844023249E+03  0.25294348980E+03  0.17273917609E+03 0.  0.
        -24    2    5    5    0    0  0.13271895167E+02  0.30521919774E+02  0.11269465465E+02  0.88912077397E+02  0.81673899546E+02 0.  0.
          5    1    3    3  501    0 -0.41540534452E+02 -0.50006152780E+02 -0.55695659031E+02  0.85734052472E+02  0.47000000000E+01 0. -1.
        -11    1    4    4    0    0  0.70979927775E+02  0.74618209317E+00 -0.27474223089E+02  0.76115306404E+02  0.00000000000E+00 0.  1.
         12    1    4    4    0    0  0.22746319172E+02 -0.61431219180E+02 -0.27243259155E+01  0.65563798529E+02  0.00000000000E+00 0. -1.
         -5    1    5    5    0  502 -0.65457607662E+02  0.80169270093E+02  0.12717076703E+03  0.16403141240E+03  0.47000000000E+01 0.  1.
         11    1    6    6    0    0 -0.22215755946E+02 -0.15866209703E+02 -0.61105285357E+01  0.27975256596E+02  0.00000000000E+00 0. -1.
        -12    1    6    6    0    0  0.35487651113E+02  0.46388129477E+02  0.17379994001E+02  0.60936820801E+02  0.00000000000E+00 0.  1.
</event>
<event>
12    1  0.8113184E-002  0.2057198E+03  0.7818608E-02  0.1145012E+00
         21   -1    0    0  503  502  0.00000000000E+00  0.00000000000E+00  0.80205404552E+02  0.80205404552E+02  0.00000000000E+00 0. -1.
         21   -1    0    0  501  503 -0.00000000000E+00 -0.00000000000E+00 -0.57524154497E+03  0.57524154497E+03  0.00000000000E+00 0. -1.
          6    2    1    2  501    0 -0.11217877890E+03 -0.16478589084E+02 -0.15309334415E+03  0.25639116269E+03  0.17159030843E+03 0.  0.
         24    2    3    3    0    0 -0.53892826497E+02  0.56022381457E+02 -0.71650654686E+02  0.13266305495E+03  0.80141910762E+02 0.  0.
         -6    2    1    2    0  502  0.11217877890E+03  0.16478589084E+02 -0.34194279627E+03  0.39905578683E+03  0.17165378746E+03 0.  0.
        -24    2    5    5    0    0  0.41897568562E+02  0.72763738554E+02 -0.19257817783E+03  0.22458703370E+03  0.79391518625E+02 0.  0.
          5    1    3    3  501    0 -0.58285952407E+02 -0.72500970542E+02 -0.81442689463E+02  0.12372810774E+03  0.47000000000E+01 0. -1.
        -13    1    4    4    0    0  0.20499892643E+02  0.21204205956E+02 -0.17864749702E+02  0.34482071146E+02  0.00000000000E+00 0.  1.
         14    1    4    4    0    0 -0.74392719140E+02  0.34818175501E+02 -0.53785904984E+02  0.98180983807E+02  0.00000000000E+00 0. -1.
         -5    1    5    5    0  502  0.70281210341E+02 -0.56285149470E+02 -0.14936461844E+03  0.17446875313E+03  0.47000000000E+01 0.  1.
         11    1    6    6    0    0  0.19378486377E+02 -0.32594013628E+01 -0.40489996115E+01  0.20063494944E+02  0.00000000000E+00 0. -1.
        -12    1    6    6    0    0  0.22519082186E+02  0.76023139917E+02 -0.18852917822E+03  0.20452353875E+03  0.00000000000E+00 0.  1.
</event>
<event>
12    1  0.8113184E-002  0.2137741E+03  0.7818608E-02  0.1138658E+00
         21   -1    0    0  503  502  0.00000000000E+00  0.00000000000E+00  0.19737994096E+03  0.19737994096E+03  0.00000000000E+00 0.  1.
         21   -1    0    0  501  503 -0.00000000000E+00 -0.00000000000E+00 -0.24304743245E+03  0.24304743245E+03  0.00000000000E+00 0. -1.
          6    2    1    2  501    0  0.73796962794E+02 -0.10329909965E+03 -0.71318528373E+02  0.22535684565E+03  0.17199616183E+03 0.  0.
         24    2    3    3    0    0 -0.10871624152E+02 -0.57636118285E+01 -0.11383216447E+02  0.82891858318E+02  0.81179253050E+02 0.  0.
         -6    2    1    2    0  502 -0.73796962794E+02  0.10329909965E+03  0.25651036884E+02  0.21507052776E+03  0.17169933172E+03 0.  0.
        -24    2    5    5    0    0 -0.72783206118E+02  0.95854037755E+02 -0.40146217161E+02  0.14867907282E+03  0.77513587810E+02 0.  0.
          5    1    3    3  501    0  0.84668586946E+02 -0.97535487817E+02 -0.59935311926E+02  0.14246498733E+03  0.47000000000E+01 0. -1.
        -13    1    4    4    0    0 -0.54015357506E+01 -0.43301153283E+02 -0.13687408288E+01  0.43658217045E+02  0.00000000000E+00 0.  1.
         14    1    4    4    0    0 -0.54700884011E+01  0.37537541455E+02 -0.10014475618E+02  0.39233641272E+02  0.00000000000E+00 0. -1.
         -5    1    5    5    0  502 -0.10137566761E+01  0.74450618906E+01  0.65797254045E+02  0.66391454940E+02  0.47000000000E+01 0.  1.
         13    1    6    6    0    0  0.10559731734E+01  0.90196386406E+01 -0.33270392528E+02  0.34487504687E+02  0.00000000000E+00 0. -1.
        -14    1    6    6    0    0 -0.73839179291E+02  0.86834399115E+02 -0.68758246328E+01  0.11419156813E+03  0.00000000000E+00 0.  1.
</event>
<event>
12    1  0.8113184E-002  0.1763842E+03  0.7818608E-02  0.1171731E+00
         21   -1    0    0  501  502  0.00000000000E+00  0.00000000000E+00  0.16220435599E+03  0.16220435599E+03  0.00000000000E+00 0.  1.
         21   -1    0    0  502  503 -0.00000000000E+00 -0.00000000000E+00 -0.22016861804E+03  0.22016861804E+03  0.00000000000E+00 0.  1.
         -6    2    1    2    0  503 -0.34363197177E+02  0.75558576884E+01 -0.99692894996E+02  0.20260813067E+03  0.17283940810E+03 0.  0.
        -24    2    3    3    0    0  0.35240138195E+02 -0.18697739391E+02 -0.14466035770E+02  0.89384532472E+02  0.78669280256E+02 0.  0.
          6    2    1    2  501    0  0.34363197177E+02 -0.75558576884E+01  0.41728632946E+02  0.17976484336E+03  0.17127813577E+03 0.  0.
         24    2    5    5    0    0  0.10862081984E+02  0.46844055073E+02 -0.19299280932E+02  0.94570071239E+02  0.79111856311E+02 0.  0.
          5    1    5    5  501    0  0.23501115193E+02 -0.54399912761E+02  0.61027913877E+02  0.85194772116E+02  0.47000000000E+01 0. -1.
        -13    1    6    6    0    0 -0.33679938917E+02  0.27002320448E+02 -0.34853556991E+01  0.43308328291E+02  0.00000000000E+00 0.  1.
         14    1    6    6    0    0  0.44542020900E+02  0.19841734625E+02 -0.15813925233E+02  0.51261742948E+02  0.00000000000E+00 0. -1.
         -5    1    3    3    0  503 -0.69603335372E+02  0.26253597079E+02 -0.85226859226E+02  0.11322359819E+03  0.47000000000E+01 0.  1.
         11    1    4    4    0    0  0.11437566064E+02  0.30215219229E+02  0.24971995753E+01  0.32403910200E+02  0.00000000000E+00 0. -1.
        -12    1    4    4    0    0  0.23802572131E+02 -0.48912958620E+02 -0.16963235345E+02  0.56980622271E+02  0.00000000000E+00 0.  1.
</event>
<event>
12    1  0.8113184E-002  0.1753974E+03  0.7818608E-02  0.1172942E+00
         21   -1    0    0  503  502  0.00000000000E+00  0.00000000000E+00  0.20287018233E+03  0.20287018233E+03  0.00000000000E+00 0. -1.
         21   -1    0    0  501  503 -0.00000000000E+00 -0.00000000000E+00 -0.15328721141E+03  0.15328721141E+03  0.00000000000E+00 0. -1.
          6    2    1    2  501    0  0.12718753427E+02 -0.24440342303E+02 -0.27898931607E+01  0.17541961151E+03  0.17321997453E+03 0.  0.
         24    2    3    3    0    0  0.12848049824E+02 -0.83186526973E+02  0.33560762276E+01  0.11616597136E+03  0.79988742960E+02 0.  0.
         -6    2    1    2    0  502 -0.12718753427E+02  0.24440342303E+02  0.52372864083E+02  0.18073778223E+03  0.17077509190E+03 0.  0.
        -24    2    5    5    0    0 -0.34404863830E+02  0.65294834133E+02  0.73760498267E+02  0.12956261459E+03  0.76803320083E+02 0.  0.
          5    1    3    3  501    0 -0.12929639687E+00  0.58746184670E+02 -0.61459693883E+01  0.59253640146E+02  0.47000000000E+01 0. -1.
        -13    1    4    4    0    0 -0.29572303348E+02 -0.36189517647E+02 -0.16895133021E+02  0.49695551437E+02  0.00000000000E+00 0.  1.
         14    1    4    4    0    0  0.42420353172E+02 -0.46997009326E+02  0.20251209248E+02  0.66470419924E+02  0.00000000000E+00 0. -1.
         -5    1    5    5    0  502  0.21686110403E+02 -0.40854491830E+02 -0.21387634184E+02  0.51175167641E+02  0.47000000000E+01 0.  1.
         11    1    6    6    0    0 -0.32776792300E+02  0.58379198370E+01 -0.18703749429E+01  0.33345130438E+02  0.00000000000E+00 0. -1.
        -12    1    6    6    0    0 -0.16280715298E+01  0.59456914296E+02  0.75630873210E+02  0.96217484154E+02  0.00000000000E+00 0.  1.
</event>
<event>
12    1  0.8113184E-002  0.2029047E+03  0.7818608E-02  0.1147367E+00
         21   -1    0    0  503  502  0.00000000000E+00  0.00000000000E+00  0.75609898914E+03  0.75609898914E+03  0.00000000000E+00 0. -1.
         21   -1    0    0  501  503 -0.00000000000E+00 -0.00000000000E+00 -0.54765576519E+02  0.54765576519E+02  0.00000000000E+00 0.  1.
          6    2    1    2  501    0  0.36276650662E+02  0.10101020519E+03  0.31680352355E+03  0.37621111738E+03  0.17219545688E+03 0.  0.
         24    2    3    3    0    0 -0.26186347187E+02  0.32873102238E+01  0.94879323428E+02  0.12576385566E+03  0.78217198810E+02 0.  0.
         -6    2    1    2    0  502 -0.36276650662E+02 -0.10101020519E+03  0.38452988907E+03  0.43465344828E+03  0.17187590749E+03 0.  0.
        -24    2    5    5    0    0 -0.52177807277E+02  0.16136238384E+01  0.22672439157E+03  0.24568476805E+03  0.78942562440E+02 0.  0.
          5    1    3    3  501    0  0.62462997849E+02  0.97722894967E+02  0.22192420012E+03  0.25044726171E+03  0.47000000000E+01 0. -1.
        -13    1    4    4    0    0  0.13973464931E+01 -0.61065574032E+01 -0.12778926628E+02  0.14231780855E+02  0.00000000000E+00 0.  1.
         14    1    4    4    0    0 -0.27583693680E+02  0.93938676270E+01  0.10765825006E+03  0.11153207481E+03  0.00000000000E+00 0. -1.
         -5    1    5    5    0  502  0.15901156615E+02 -0.10262382903E+03  0.15780549750E+03  0.18896868023E+03  0.47000000000E+01 0.  1.
         11    1    6    6    0    0 -0.42023473156E+02 -0.36117748784E+02  0.13984588629E+03  0.15042385444E+03  0.00000000000E+00 0. -1.
        -12    1    6    6    0    0 -0.10154334120E+02  0.37731372622E+02  0.86878505280E+02  0.95260913607E+02  0.00000000000E+00 0.  1.
</event>
<event>
12    1  0.8113184E-002  0.2214846E+03  0.7818608E-02  0.1132885E+00
         21   -1    0    0  503  502  0.00000000000E+00  0.00000000000E+00  0.13001291496E+03  0.13001291496E+03  0.00000000000E+00 0.  1.
         21   -1    0    0  501  503 -0.00000000000E+00 -0.00000000000E+00 -0.48330045255E+03  0.48330045255E+03  0.00000000000E+00 0. -1.
          6    2    1    2  501    0  0.10980930406E+03 -0.87638056850E+02 -0.32107341558E+03  0.39005585343E+03  0.17122183955E+03 0.  0.
         24    2    3    3    0    0  0.73865699640E+01 -0.15119157019E+02 -0.69486380577E+02  0.10886635599E+03  0.82099793270E+02 0.  0.
         -6    2    1    2    0  502 -0.10980930406E+03  0.87638056850E+02 -0.32214122009E+02  0.22325751408E+03  0.17049239182E+03 0.  0.
        -24    2    5    5    0    0  0.58082239180E+01  0.63007993289E+02 -0.17383302072E+02  0.10402624290E+03  0.80718878445E+02 0.  0.
          5    1    3    3  501    0  0.10242273410E+03 -0.72518899832E+02 -0.25158703500E+03  0.28118949745E+03  0.47000000000E+01 0. -1.
        -11    1    4    4    0    0  0.17714253514E+01  0.33539499921E+02 -0.37620550470E+02  0.50431555800E+02  0.00000000000E+00 0.  1.
         12    1    4    4    0    0  0.56151446126E+01 -0.48658656940E+02 -0.31865830106E+02  0.58434800185E+02  0.00000000000E+00 0. -1.
         -5    1    5    5    0  502 -0.11561752798E+03  0.24630063561E+02 -0.14830819937E+02  0.11923127118E+03  0.47000000000E+01 0.  1.
         13    1    6    6    0    0  0.24329381778E+02  0.73712941777E+01 -0.34579296059E+02  0.42918323726E+02  0.00000000000E+00 0. -1.
        -14    1    6    6    0    0 -0.18521157860E+02  0.55636699112E+02  0.17195993987E+02  0.61107919174E+02  0.00000000000E+00 0.  1.
</event>
<event>
12    1  0.8113184E-002  0.1894547E+03  0.7818608E-02  0.1159035E+00
         21   -1    0    0  503  502  0.00000000000E+00  0.00000000000E+00  0.12670855347E+04  0.12670855347E+04  0.00000000000E+00 0. -1.
         21   -1    0    0  501  503 -0.00000000000E+00 -0.00000000000E+00 -0.40314694216E+02  0.40314694216E+02  0.00000000000E+00 0. -1.
          6    2    1    2  501    0  0.78039876471E+02 -0.12982411272E+02  0.25654129104E+03  0.31891459864E+03  0.17214622243E+03 0.  0.
         24    2    3    3    0    0 -0.99603875566E+01  0.15001571078E+00  0.17412380436E+03  0.19754228212E+03  0.92761102596E+02 0.  0.
         -6    2    1    2    0  502 -0.78039876471E+02  0.12982411272E+02  0.97022954940E+03  0.98848563023E+03  0.17175475923E+03 0.  0.
        -24    2    5    5    0    0 -0.53219013915E+02 -0.41069557552E+02  0.82282021566E+03  0.82945955619E+03  0.80318590932E+02 0.  0.
          5    1    3    3  501    0  0.88000264027E+02 -0.13132426982E+02  0.82417486671E+02  0.12137231652E+03  0.47000000000E+01 0. -1.
        -11    1    4    4    0    0  0.96176621550E+01  0.40467558607E+02  0.47069949163E+02  0.62814829771E+02  0.00000000000E+00 0.  1.
         12    1    4    4    0    0 -0.19578049712E+02 -0.40317542896E+02  0.12705385520E+03  0.13472745235E+03  0.00000000000E+00 0. -1.
         -5    1    5    5    0  502 -0.24820862555E+02  0.54051968824E+02  0.14740933374E+03  0.15902607404E+03  0.47000000000E+01 0.  1.
         11    1    6    6    0    0 -0.65334152904E+02 -0.32686814315E+02  0.41553326617E+03  0.42190623918E+03  0.00000000000E+00 0. -1.
        -12    1    6    6    0    0  0.12115138989E+02 -0.83827432372E+01  0.40728694949E+03  0.40755331701E+03  0.00000000000E+00 0.  1.
</event>
<event>
12    1  0.8113184E-002  0.1810807E+03  0.7818608E-02  0.1166883E+00
         21   -1    0    0  501  502  0.00000000000E+00  0.00000000000E+00  0.84642491387E+03  0.84642491387E+03  0.00000000000E+00 0.  1.
         21   -1    0    0  502  503 -0.00000000000E+00 -0.00000000000E+00 -0.38655884967E+02  0.38655884967E+02  0.00000000000E+00 0.  1.
         -6    2    1    2    0  503  0.53403093119E+02 -0.13518894018E+02  0.39227954114E+03  0.43184604530E+03  0.17196836219E+03 0.  0.
        -24    2    3    3    0    0  0.21644377721E+00  0.27506456535E+02  0.91467760027E+02  0.12359011800E+03  0.78431588947E+02 0.  0.
          6    2    1    2  501    0 -0.53403093119E+02  0.13518894018E+02  0.41548948777E+03  0.45323475354E+03  0.17249804788E+03 0.  0.
         24    2    5    5    0    0 -0.93261002049E+02 -0.15572710426E+02  0.34219964972E+03  0.36475614192E+03  0.83703757312E+02 0.  0.
          5    1    5    5  501    0  0.39857908930E+02  0.29091604444E+02  0.73289838048E+02  0.88478611622E+02  0.47000000000E+01 0. -1.
        -11    1    6    6    0    0 -0.65440401008E+02 -0.17090296089E+01  0.31982839317E+03  0.32645913672E+03  0.00000000000E+00 0.  1.
         12    1    6    6    0    0 -0.27820601041E+02 -0.13863680817E+02  0.22371256544E+02  0.38297005202E+02  0.00000000000E+00 0. -1.
         -5    1    3    3    0  503  0.53186649342E+02 -0.41025350553E+02  0.30081178111E+03  0.30825592729E+03  0.47000000000E+01 0.  1.
         11    1    4    4    0    0 -0.18840020843E+02 -0.22204456482E+02  0.24621473877E+02  0.38133990729E+02  0.00000000000E+00 0. -1.
        -12    1    4    4    0    0  0.19056464621E+02  0.49710913016E+02  0.66846286151E+02  0.85456127275E+02  0.00000000000E+00 0.  1.
</event>
<event>
12    1  0.8113184E-002  0.2181869E+03  0.7818608E-02  0.1135245E+00
         21   -1    0    0  503  502  0.00000000000E+00  0.00000000000E+00  0.15559664149E+03  0.15559664149E+03  0.00000000000E+00 0.  1.
         21   -1    0    0  501  503 -0.00000000000E+00 -0.00000000000E+00 -0.30756414701E+03  0.30756414701E+03  0.00000000000E+00 0. -1.
          6    2    1    2  501    0 -0.12726637597E+03 -0.42918694624E+02 -0.59107271469E+02  0.22603518839E+03  0.17192874120E+03 0.  0.
         24    2    3    3    0    0 -0.19988109949E+02 -0.35716423526E+02  0.22378000876E+02  0.91044675104E+02  0.78186766737E+02 0.  0.
         -6    2    1    2    0  502  0.12726637597E+03  0.42918694624E+02 -0.92860234049E+02  0.23712560011E+03  0.17194994144E+03 0.  0.
        -24    2    5    5    0    0  0.69736426916E+02 -0.53860607340E+01 -0.12080563761E+03  0.15683811660E+03  0.71498348580E+02 0.  0.
          5    1    3    3  501    0 -0.10727826602E+03 -0.72022710976E+01 -0.81485272345E+02  0.13499051329E+03  0.47000000000E+01 0. -1.
        -11    1    4    4    0    0 -0.16088035036E+01  0.18528133817E+02 -0.13926335981E+02  0.23234087572E+02  0.00000000000E+00 0.  1.
         12    1    4    4    0    0 -0.18379306445E+02 -0.54244557343E+02  0.36304336857E+02  0.67810587532E+02  0.00000000000E+00 0. -1.
         -5    1    5    5    0  502  0.57529949050E+02  0.48304755358E+02  0.27945403565E+02  0.80287483509E+02  0.47000000000E+01 0.  1.
         11    1    6    6    0    0  0.46198524361E+02  0.15408808334E+02 -0.22518374140E+02  0.53654563658E+02  0.00000000000E+00 0. -1.
        -12    1    6    6    0    0  0.23537902555E+02 -0.20794869068E+02 -0.98287263475E+02  0.10318355294E+03  0.00000000000E+00 0.  1.
</event>
<event>
12    1  0.8113184E-002  0.2304216E+03  0.7818608E-02  0.1126393E+00
         21   -1    0    0  501  502  0.00000000000E+00  0.00000000000E+00  0.11453498610E+03  0.11453498610E+03  0.00000000000E+00 0. -1.
         21   -1    0    0  502  503 -0.00000000000E+00 -0.00000000000E+00 -0.46872773313E+03  0.46872773313E+03  0.00000000000E+00 0.  1.
         -6    2    1    2    0  503  0.26435334073E+02 -0.14862490083E+03 -0.20945283449E+03  0.31139141339E+03  0.17408599721E+03 0.  0.
        -24    2    3    3    0    0  0.30035469126E+02 -0.28157346287E+02 -0.31066389716E+02  0.96056310940E+02  0.81035354913E+02 0.  0.
          6    2    1    2  501    0 -0.26435334073E+02  0.14862490083E+03 -0.14473991254E+03  0.27187130584E+03  0.17371291438E+03 0.  0.
         24    2    5    5    0    0 -0.16829413466E+02  0.51087590665E+02 -0.14451419560E+03  0.17374923119E+03  0.80070416082E+02 0.  0.
          5    1    5    5  501    0 -0.96059206064E+01  0.97537310168E+02 -0.22571693615E+00  0.98122074650E+02  0.47000000000E+01 0. -1.
        -11    1    6    6    0    0 -0.13940871320E+02  0.72931262078E+02 -0.11568787985E+03  0.13746636835E+03  0.00000000000E+00 0.  1.
         12    1    6    6    0    0 -0.28885421459E+01 -0.21843671413E+02 -0.28826315748E+02  0.36282862844E+02  0.00000000000E+00 0. -1.
         -5    1    3    3    0  503 -0.36001350535E+01 -0.12046755455E+03 -0.17838644477E+03  0.21533510245E+03  0.47000000000E+01 0.  1.
         11    1    4    4    0    0 -0.78149035540E+01 -0.33851575102E+02  0.13532465169E+02  0.37284440025E+02  0.00000000000E+00 0. -1.
        -12    1    4    4    0    0  0.37850372680E+02  0.56942288150E+01 -0.44598854885E+02  0.58771870915E+02  0.00000000000E+00 0.  1.
</event>
<event>
12    1  0.8113184E-002  0.2481326E+03  0.7818608E-02  0.1114515E+00
         21   -1    0    0  501  502  0.00000000000E+00  0.00000000000E+00  0.29447608620E+03  0.29447608620E+03  0.00000000000E+00 0.  1.
         21   -1    0    0  502  503 -0.00000000000E+00 -0.00000000000E+00 -0.23122721350E+03  0.23122721350E+03  0.00000000000E+00 0.  1.
         -6    2    1    2    0  503  0.17364234579E+03  0.41295674268E+02 -0.49959365743E+02  0.25296549528E+03  0.17215866697E+03 0.  0.
        -24    2    3    3    0    0  0.69864771609E+02  0.30798488899E+02  0.37717983049E+02  0.11662260660E+03  0.79677806789E+02 0.  0.
          6    2    1    2  501    0 -0.17364234579E+03 -0.41295674268E+02  0.11320823845E+03  0.27273780442E+03  0.17237403443E+03 0.  0.
         24    2    5    5    0    0 -0.99066602258E+02 -0.28205729048E+01 -0.60104707006E+01  0.12687120249E+03  0.78981193640E+02 0.  0.
          5    1    5    5  501    0 -0.74575743529E+02 -0.38475101363E+02  0.11921870915E+03  0.14586660193E+03  0.47000000000E+01 0. -1.
        -11    1    6    6    0    0 -0.64449818054E+02 -0.31865969581E+02  0.20136272863E+02  0.74663836959E+02  0.00000000000E+00 0.  1.
         12    1    6    6    0    0 -0.34616784204E+02  0.29045396677E+02 -0.26146743564E+02  0.52207365531E+02  0.00000000000E+00 0. -1.
         -5    1    3    3    0  503  0.10377757418E+03  0.10497185369E+02 -0.87677348792E+02  0.13634288868E+03  0.47000000000E+01 0.  1.
         13    1    4    4    0    0  0.38664138841E+02  0.38278353092E+02 -0.13617352981E+02  0.56085472717E+02  0.00000000000E+00 0. -1.
        -14    1    4    4    0    0  0.31200632769E+02 -0.74798641932E+01  0.51335336030E+02  0.60537133884E+02  0.00000000000E+00 0.  1.
</event>
<event>
12    1  0.8113184E-002  0.1953591E+03  0.7818608E-02  0.1156875E+00
         21   -1    0    0  501  502  0.00000000000E+00  0.00000000000E+00  0.69161891630E+02  0.69161891630E+02  0.00000000000E+00 0.  1.
         21   -1    0    0  502  503 -0.00000000000E+00 -0.00000000000E+00 -0.56687681126E+03  0.56687681126E+03  0.00000000000E+00 0.  1.
         -6    2    1    2    0  503  0.56676866403E+02 -0.20144584553E+02 -0.33842046551E+03  0.38396750140E+03  0.17112731864E+03 0.  0.
        -24    2    3    3    0    0  0.74279940322E+02  0.35708313522E+01 -0.11423977339E+03  0.15780083303E+03  0.79499161693E+02 0.  0.
          6    2    1    2  501    0 -0.56676866403E+02  0.20144584553E+02 -0.15929445412E+03  0.25207120149E+03  0.18586849124E+03 0.  0.
         24    2    5    5    0    0 -0.36512246856E+02 -0.61489759235E+02 -0.66454295978E+02  0.12672303465E+03  0.80798634855E+02 0.  0.
          5    1    5    5  501    0 -0.20164619547E+02  0.81634343788E+02 -0.92840158144E+02  0.12534816685E+03  0.47000000000E+01 0. -1.
        -11    1    6    6    0    0  0.23434080035E+02 -0.34510280437E+02 -0.20235767072E+02  0.46363798722E+02  0.00000000000E+00 0.  1.
         12    1    6    6    0    0 -0.59946326891E+02 -0.26979478798E+02 -0.46218528907E+02  0.80359235924E+02  0.00000000000E+00 0. -1.
         -5    1    3    3    0  503 -0.17603073918E+02 -0.23715415905E+02 -0.22418069211E+03  0.22616666837E+03  0.47000000000E+01 0.  1.
         11    1    4    4    0    0  0.19653022470E+02 -0.36264388399E+02 -0.42693535379E+02  0.59364005266E+02  0.00000000000E+00 0. -1.
        -12    1    4    4    0    0  0.54626917851E+02  0.39835219751E+02 -0.71546238014E+02  0.98436827765E+02  0.00000000000E+00 0.  1.
</event>
<event>
12    1  0.8113184E-002  0.2090515E+03  0.7818608E-02  0.1143290E+00
         21   -1    0    0  503  502  0.00000000000E+00  0.00000000000E+00  0.12463052871E+03  0.12463052871E+03  0.00000000000E+00 0.  1.
         21   -1    0    0  501  503 -0.00000000000E+00 -0.00000000000E+00 -0.36332430355E+03  0.36332430355E+03  0.00000000000E+00 0. -1.
          6    2    1    2  501    0 -0.47132427630E+02 -0.97485865243E+02 -0.62430709949E+02  0.21817448168E+03  0.17882268104E+03 0.  0.
         24    2    3    3    0    0  0.44503602474E+02 -0.55592709506E+02 -0.20792691499E+02  0.10905063877E+03  0.79928629491E+02 0.  0.
         -6    2    1    2    0  502  0.47132427630E+02  0.97485865243E+02 -0.17626306489E+03  0.26978035058E+03  0.17316988728E+03 0.  0.
        -24    2    5    5    0    0  0.54631054758E+02  0.81754325507E+02 -0.20339351980E+03  0.23719412136E+03  0.72275897984E+02 0.  0.
          5    1    3    3  501    0 -0.91636030104E+02 -0.41893155737E+02 -0.41638018450E+02  0.10912384291E+03  0.47000000000E+01 0. -1.
        -11    1    4    4    0    0  0.23522388110E+02 -0.13823002912E+02 -0.47820391079E+02  0.55056043763E+02  0.00000000000E+00 0.  1.
         12    1    4    4    0    0  0.20981214364E+02 -0.41769706594E+02  0.27027699579E+02  0.53994595004E+02  0.00000000000E+00 0. -1.
         -5    1    5    5    0  502 -0.74986271287E+01  0.15731539736E+02  0.27130454908E+02  0.32586229220E+02  0.47000000000E+01 0.  1.
         13    1    6    6    0    0  0.14815816395E+01 -0.10757032536E+02 -0.50496056379E+01  0.11975280799E+02  0.00000000000E+00 0. -1.
        -14    1    6    6    0    0  0.53149473119E+02  0.92511358043E+02 -0.19834391416E+03  0.22521884056E+03  0.00000000000E+00 0.  1.
</event>
<event>
12    1  0.8113184E-002  0.1780808E+03  0.7818608E-02  0.1169727E+00
         21   -1    0    0  503  502  0.00000000000E+00  0.00000000000E+00  0.13859800632E+03  0.13859800632E+03  0.00000000000E+00 0.  1.
         21   -1    0    0  501  503 -0.00000000000E+00 -0.00000000000E+00 -0.27740115046E+03  0.27740115046E+03  0.00000000000E+00 0.  1.
          6    2    1    2  501    0 -0.10407923640E+02  0.43326473784E+02 -0.15674205032E+03  0.23723585736E+03  0.17241598962E+03 0.  0.
         24    2    3    3    0    0 -0.30151479300E+02  0.73204926693E+02 -0.47420694682E+02  0.12210211454E+03  0.79950804220E+02 0.  0.
         -6    2    1    2    0  502  0.10407923640E+02 -0.43326473784E+02  0.17938906173E+02  0.17876329941E+03  0.17218886334E+03 0.  0.
        -24    2    5    5    0    0 -0.46555783648E+02 -0.11181082392E+01 -0.26776186133E+02  0.94811291993E+02  0.78125065046E+02 0.  0.
          5    1    3    3  501    0  0.19743555660E+02 -0.29878452908E+02 -0.10932135563E+03  0.11513374282E+03  0.47000000000E+01 0. -1.
        -11    1    4    4    0    0  0.20455718188E+02  0.50789099206E+02 -0.36166860336E+02  0.65620201092E+02  0.00000000000E+00 0.  1.
         12    1    4    4    0    0 -0.50607197488E+02  0.22415827487E+02 -0.11253834346E+02  0.56481913450E+02  0.00000000000E+00 0. -1.
         -5    1    5    5    0  502  0.56963707288E+02 -0.42208365545E+02  0.44715092306E+02  0.83952007421E+02  0.47000000000E+01 0.  1.
         11    1    6    6    0    0  0.96395895016E+01  0.18723371204E+02 -0.28204125625E+02  0.35198849658E+02  0.00000000000E+00 0. -1.
        -12    1    6    6    0    0 -0.56195373150E+02 -0.19841479443E+02  0.14279394924E+01  0.59612442335E+02  0.00000000000E+00 0.  1.
</event>
<event>
12    1  0.8113184E-002  0.1908474E+03  0.7818608E-02  0.1158134E+00
         21   -1    0    0  503  502  0.00000000000E+00  0.00000000000E+00  0.19512198809E+03  0.19512198809E+03  0.00000000000E+00 0. -1.
         21   -1    0    0  501  503 -0.00000000000E+00 -0.00000000000E+00 -0.93061198606E+03  0.93061198606E+03  0.00000000000E+00 0. -1.
          6    2    1    2  501    0 -0.31136796022E+02 -0.72291247540E+02 -0.87200917664E+03  0.89264928208E+03  0.17385974843E+03 0.  0.
         24    2    3    3    0    0 -0.65691594592E+02 -0.10174918989E+03 -0.62489184195E+03  0.64135091047E+03  0.78567760456E+02 0.  0.
         -6    2    1    2    0  502  0.31136796022E+02  0.72291247540E+02  0.13651917867E+03  0.23308469206E+03  0.17174243212E+03 0.  0.
        -24    2    5    5    0    0 -0.21243153802E+02  0.98640448515E+02  0.81894562341E+02  0.15281092147E+03  0.80394332591E+02 0.  0.
          5    1    3    3  501    0  0.34554798570E+02  0.29457942348E+02 -0.24711733469E+03  0.25129837161E+03  0.47000000000E+01 0. -1.
        -13    1    4    4    0    0 -0.22617285084E+02 -0.47261216184E+01 -0.34704419080E+02  0.41692619417E+02  0.00000000000E+00 0.  1.
         14    1    4    4    0    0 -0.43074309507E+02 -0.97023068270E+02 -0.59018742287E+03  0.59965829106E+03  0.00000000000E+00 0. -1.
         -5    1    5    5    0  502  0.52379949824E+02 -0.26349200975E+02  0.54624616332E+02  0.80273770592E+02  0.47000000000E+01 0.  1.
         11    1    6    6    0    0 -0.38090098204E+02  0.10875154662E+02  0.26769268706E+02  0.47809186535E+02  0.00000000000E+00 0. -1.
        -12    1    6    6    0    0  0.16846944402E+02  0.87765293854E+02  0.55125293635E+02  0.10500173493E+03  0.00000000000E+00 0.  1.
</event>
<event>
12    1  0.8113184E-002  0.1997085E+03  0.7818608E-02  0.1150152E+00
         21   -1    0    0  501  502  0.00000000000E+00  0.00000000000E+00  0.10193231105E+04  0.10193231105E+04  0.00000000000E+00 0.  1.
         21   -1    0    0  502  503 -0.00000000000E+00 -0.00000000000E+00 -0.40349486941E+02  0.40349486941E+02  0.00000000000E+00 0. -1.
         -6    2    1    2    0  503 -0.98216701351E+02  0.23913346187E+02  0.39071445923E+03  0.43843806206E+03  0.17132360333E+03 0.  0.
        -24    2    3    3    0    0 -0.22975153663E+02 -0.28423377925E+01  0.72223436715E+02  0.11005447759E+03  0.79748521348E+02 0.  0.
          6    2    1    2  501    0  0.98216701351E+02 -0.23913346187E+02  0.58825916436E+03  0.62123453542E+03  0.17223569603E+03 0.  0.
         24    2    5    5    0    0  0.81626273597E+02  0.44698763752E+02  0.44809506650E+03  0.46422839460E+03  0.77833063110E+02 0.  0.
          5    1    5    5  501    0  0.16590427754E+02 -0.68612109938E+02  0.14016409787E+03  0.15700614082E+03  0.47000000000E+01 0. -1.
        -11    1    6    6    0    0 -0.10671124597E+02  0.22087646862E+02  0.12785014943E+03  0.13018217141E+03  0.00000000000E+00 0.  1.
         12    1    6    6    0    0  0.92297398194E+02  0.22611116890E+02  0.32024491707E+03  0.33404622319E+03  0.00000000000E+00 0. -1.
         -5    1    3    3    0  503 -0.75241547687E+02  0.26755683979E+02  0.31849102251E+03  0.32838358446E+03  0.47000000000E+01 0.  1.
         11    1    4    4    0    0 -0.23537280983E+01  0.34755384556E+02  0.13541720007E+02  0.37374523038E+02  0.00000000000E+00 0. -1.
        -12    1    4    4    0    0 -0.20621425565E+02 -0.37597722348E+02  0.58681716709E+02  0.72679954554E+02  0.00000000000E+00 0.  1.
</event>
<event>
12    1  0.8113184E-002  0.1866940E+03  0.7818608E-02  0.1162553E+00
         21   -1    0    0  501  502  0.00000000000E+00  0.00000000000E+00  0.24700449775E+03  0.24700449775E+03  0.00000000000E+00 0. -1.
         21   -1    0    0  502  503 -0.00000000000E+00 -0.00000000000E+00 -0.14180962377E+03  0.14180962377E+03  0.00000000000E+00 0.  1.
         -6    2    1    2    0  503 -0.71977253937E+02 -0.58976541745E+01  0.85238787954E+02  0.20105658768E+03  0.16716038127E+03 0.  0.
        -24    2    3    3    0    0  0.16932406198E+02  0.10285249223E+02  0.72079429633E+02  0.10961221804E+03  0.80167957659E+02 0.  0.
          6    2    1    2  501    0  0.71977253937E+02  0.58976541745E+01  0.19956086017E+02  0.18775753384E+03  0.17216021241E+03 0.  0.
         24    2    5    5    0    0 -0.16682903535E+02 -0.29123119132E+02 -0.88272432559E+01  0.88069780683E+02  0.80943750270E+02 0.  0.
          5    1    5    5  501    0  0.88660157472E+02  0.35020773306E+02  0.28783329273E+02  0.99687753159E+02  0.47000000000E+01 0. -1.
        -11    1    6    6    0    0  0.14876314412E+02 -0.47952665297E+02 -0.10454606074E+02  0.51284126469E+02  0.00000000000E+00 0.  1.
         12    1    6    6    0    0 -0.31559217947E+02  0.18829546165E+02  0.16273628185E+01  0.36785654214E+02  0.00000000000E+00 0. -1.
         -5    1    3    3    0  503 -0.88909660135E+02 -0.16182903398E+02  0.13159358321E+02  0.91444369642E+02  0.47000000000E+01 0.  1.
         11    1    4    4    0    0 -0.24313287788E+02  0.63785303970E+01  0.62103914175E+02  0.66997893765E+02  0.00000000000E+00 0. -1.
        -12    1    4    4    0    0  0.41245693986E+02  0.39067188261E+01  0.99755154580E+01  0.42614324271E+02  0.00000000000E+00 0.  1.
</event>
<event>
12    1  0.8113184E-002  0.1766704E+03  0.7818608E-02  0.1172569E+00
         21   -1    0    0  503  502  0.00000000000E+00  0.00000000000E+00  0.13535622428E+04  0.13535622428E+04  0.00000000000E+00 0. -1.
         21   -1    0    0  501  503 -0.00000000000E+00 -0.00000000000E+00 -0.55199637133E+02  0.55199637133E+02  0.00000000000E+00 0. -1.
          6    2    1    2  501    0  0.23804228795E+02 -0.32427702081E+02  0.10981896273E+03  0.20802077044E+03  0.17202976251E+03 0.  0.
         24    2    3    3    0    0  0.66459604426E+02 -0.50951753326E+02  0.35954373848E+02  0.12060973546E+03  0.79000196850E+02 0.  0.
         -6    2    1    2    0  502 -0.23804228795E+02  0.32427702081E+02  0.11885436430E+04  0.12007411095E+04  0.16590667163E+03 0.  0.
        -24    2    5    5    0    0 -0.67976598127E+02  0.20357227113E+02  0.10359250883E+04  0.10413315496E+04  0.78710691498E+02 0.  0.
          5    1    3    3  501    0 -0.42655375631E+02  0.18524051246E+02  0.73864588879E+02  0.87411034972E+02  0.47000000000E+01 0. -1.
        -13    1    4    4    0    0  0.14554258085E+02 -0.89834636105E+01  0.49611867827E+02  0.52477294863E+02  0.00000000000E+00 0.  1.
         14    1    4    4    0    0  0.51905346340E+02 -0.41968289716E+02 -0.13657493979E+02  0.68132440600E+02  0.00000000000E+00 0. -1.
         -5    1    5    5    0  502  0.44172369332E+02  0.12070474968E+02  0.15261855466E+03  0.15940955995E+03  0.47000000000E+01 0.  1.
         11    1    6    6    0    0 -0.33859895055E+02  0.20386910432E+02  0.16239342518E+03  0.16713390784E+03  0.00000000000E+00 0. -1.
        -12    1    6    6    0    0 -0.34116703071E+02 -0.29683319423E-01  0.87353166313E+03  0.87419764172E+03  0.00000000000E+00 0.  1.
</event>
<event>
12    1  0.8113184E-002  0.1987128E+03  0.7818608E-02  0.1151269E+00
         21   -1    0    0  501  502  0.00000000000E+00  0.00000000000E+00  0.19809965929E+04  0.19809965929E+04  0.00000000000E+00 0.  1.
         21   -1    0    0  502  503 -0.00000000000E+00 -0.00000000000E+00 -0.29377197502E+02  0.29377197502E+02  0.00000000000E+00 0.  1.
         -6    2    1    2    0  503  0.88362744796E+02 -0.46446772801E+02  0.39629956062E+03  0.44241123988E+03  0.16943755797E+03 0.  0.
        -24    2    3    3    0    0  0.16612734336E+02 -0.23629298677E+02  0.33377024489E+03  0.34442804514E+03  0.79961085551E+02 0.  0.
          6    2    1    2  501    0 -0.88362744796E+02  0.46446772801E+02  0.15553198348E+04  0.15679625505E+04  0.17181820049E+03 0.  0.
         24    2    5    5    0    0  0.22537874632E+02  0.16401634061E+02  0.71898392812E+03  0.72375789730E+03  0.78170554707E+02 0.  0.
          5    1    5    5  501    0 -0.11090061943E+03  0.30045138740E+02  0.83633590666E+03  0.84420465322E+03  0.47000000000E+01 0. -1.
        -13    1    6    6    0    0  0.50931966388E+01 -0.11694907588E+02  0.60342308123E+03  0.60355788991E+03  0.00000000000E+00 0.  1.
         14    1    6    6    0    0  0.17444677994E+02  0.28096541649E+02  0.11556084689E+03  0.12020000739E+03  0.00000000000E+00 0. -1.
         -5    1    3    3    0  503  0.71750010460E+02 -0.22817474124E+02  0.62529315728E+02  0.97983194742E+02  0.47000000000E+01 0.  1.
         11    1    4    4    0    0  0.42148398147E+02 -0.11548962591E+02  0.28276744488E+03  0.28612461252E+03  0.00000000000E+00 0. -1.
        -12    1    4    4    0    0 -0.25535663811E+02 -0.12080336085E+02  0.51002800014E+02  0.58303432621E+02  0.00000000000E+00 0.  1.
</event>
<event>
12    1  0.8113184E-002  0.1766764E+03  0.7818608E-02  0.1172427E+00
         21   -1    0    0  503  502  0.00000000000E+00  0.00000000000E+00  0.18708175361E+03  0.18708175361E+03  0.00000000000E+00 0. -1.
         21   -1    0    0  501  503 -0.00000000000E+00 -0.00000000000E+00 -0.27651927627E+03  0.27651927627E+03  0.00000000000E+00 0. -1.
          6    2    1    2  501    0 -0.28340188260E+02 -0.21728615038E+02 -0.19362736252E+03  0.25849110849E+03  0.16748372658E+03 0.  0.
         24    2    3    3    0    0 -0.45133039067E+02 -0.16674073839E+01 -0.20890369931E+03  0.22783318364E+03  0.78914083136E+02 0.  0.
         -6    2    1    2    0  502  0.28340188260E+02  0.21728615038E+02  0.10418983986E+03  0.20510992138E+03  0.17302964526E+03 0.  0.
        -24    2    5    5    0    0 -0.34960141898E+02 -0.76916972488E+01  0.10502601522E+03  0.13514367408E+03  0.77149044337E+02 0.  0.
          5    1    3    3  501    0  0.16792850807E+02 -0.20061207654E+02  0.15276336787E+02  0.30657924855E+02  0.47000000000E+01 0. -1.
        -13    1    4    4    0    0 -0.38771410195E+02  0.12738761581E+02 -0.20810053026E+03  0.21206444536E+03  0.00000000000E+00 0.  1.
         14    1    4    4    0    0 -0.63616288718E+01 -0.14406168965E+02 -0.80316905606E+00  0.15768738272E+02  0.00000000000E+00 0. -1.
         -5    1    5    5    0  502  0.63300330158E+02  0.29420312287E+02 -0.83617535613E+00  0.69966247308E+02  0.47000000000E+01 0.  1.
         13    1    6    6    0    0 -0.20305963870E+02  0.31614233353E+02  0.73916140786E+02  0.82917958175E+02  0.00000000000E+00 0. -1.
        -14    1    6    6    0    0 -0.14654178028E+02 -0.39305930602E+02  0.31109874430E+02  0.52225715900E+02  0.00000000000E+00 0.  1.
</event>
<event>
12    1  0.8113184E-002  0.2123636E+03  0.7818608E-02  0.1139854E+00
         21   -1    0    0  503  502  0.00000000000E+00  0.00000000000E+00  0.18657823980E+03  0.18657823980E+03  0.00000000000E+00 0.  1.
         21   -1    0    0  501  503 -0.00000000000E+00 -0.00000000000E+00 -0.24535620859E+03  0.24535620859E+03  0.00000000000E+00 0. -1.
          6    2    1    2  501    0 -0.64600409263E+02  0.10527544296E+03 -0.58574356462E+02  0.21957070410E+03  0.17182609550E+03 0.  0.
         24    2    3    3    0    0  0.29824617898E+02  0.66605167172E+02 -0.16640760031E+02  0.10915334815E+03  0.79446726751E+02 0.  0.
         -6    2    1    2    0  502  0.64600409263E+02 -0.10527544296E+03 -0.20361233239E+00  0.21236374429E+03  0.17274891219E+03 0.  0.
        -24    2    5    5    0    0 -0.30916728921E+02 -0.67207414796E+02  0.89942102771E+01  0.10902261794E+03  0.79576093600E+02 0.  0.
          5    1    3    3  501    0 -0.94425027161E+02  0.38670275792E+02 -0.41933596431E+02  0.11041735594E+03  0.47000000000E+01 0. -1.
        -13    1    4    4    0    0  0.21253195984E+02  0.46180089963E+02  0.28924943014E+02  0.58488899604E+02  0.00000000000E+00 0.  1.
         14    1    4    4    0    0  0.85714219135E+01  0.20425077209E+02 -0.45565703045E+02  0.50664448548E+02  0.00000000000E+00 0. -1.
         -5    1    5    5    0  502  0.95517138185E+02 -0.38068028168E+02 -0.91978226095E+01  0.10334112636E+03  0.47000000000E+01 0.  1.
         13    1    6    6    0    0  0.10264276517E+02  0.11129326923E+02 -0.10467981015E+02  0.18406409663E+02  0.00000000000E+00 0. -1.
        -14    1    6    6    0    0 -0.41181005438E+02 -0.78336741719E+02  0.19462191292E+02  0.90616208274E+02  0.00000000000E+00 0.  1.
</event>
<event>
12    1  0.8113184E-002  0.1972840E+03  0.7818608E-02  0.1152094E+00
         21   -1    0    0  503  502  0.00000000000E+00  0.00000000000E+00  0.99854028088E+02  0.99854028088E+02  0.00000000000E+00 0. -1.
         21   -1    0    0  501  503 -0.00000000000E+00 -0.00000000000E+00 -0.58330796851E+03  0.58330796851E+03  0.00000000000E+00 0.  1.
          6    2    1    2  501    0  0.20222733693E+01 -0.96137193023E+02 -0.43859817532E+03  0.48084289274E+03  0.17203220232E+03 0.  0.
         24    2    3    3    0    0 -0.42883830470E+02 -0.61401596330E+02 -0.39281717238E+03  0.40775999413E+03  0.79710118226E+02 0.  0.
         -6    2    1    2    0  502 -0.20222733693E+01  0.96137193023E+02 -0.44855765107E+02  0.20231910386E+03  0.17226296947E+03 0.  0.
        -24    2    5    5    0    0  0.58454186474E+01  0.53988620091E+02  0.42875681842E+02  0.10455766176E+03  0.78390308843E+02 0.  0.
          5    1    3    3  501    0  0.44906103839E+02 -0.34735596693E+02 -0.45781002938E+02  0.73082898613E+02  0.47000000000E+01 0. -1.
        -11    1    4    4    0    0  0.26053264542E+01 -0.63724320252E+02 -0.23514448409E+03  0.24364011392E+03  0.00000000000E+00 0.  1.
         12    1    4    4    0    0 -0.45489156924E+02  0.23227239217E+01 -0.15767268830E+03  0.16411988021E+03  0.00000000000E+00 0. -1.
         -5    1    5    5    0  502 -0.78676920167E+01  0.42148572932E+02 -0.87731446948E+02  0.97761442100E+02  0.47000000000E+01 0.  1.
         13    1    6    6    0    0 -0.57649591668E+01  0.72919447395E+02  0.33453327361E+02  0.80433859003E+02  0.00000000000E+00 0. -1.
        -14    1    6    6    0    0  0.11610377814E+02 -0.18930827304E+02  0.94223544812E+01  0.24123802755E+02  0.00000000000E+00 0.  1.
</event>
<event>
12    1  0.8113184E-002  0.1758468E+03  0.7818608E-02  0.1172360E+00
         21   -1    0    0  501  502  0.00000000000E+00  0.00000000000E+00  0.36066644872E+02  0.36066644872E+02  0.00000000000E+00 0. -1.
         21   -1    0    0  502  503 -0.00000000000E+00 -0.00000000000E+00 -0.84933720423E+03  0.84933720423E+03  0.00000000000E+00 0. -1.
         -6    2    1    2    0  503 -0.28541264873E+02 -0.18660527582E+02 -0.42551224371E+03  0.46041584487E+03  0.17250872898E+03 0.  0.
        -24    2    3    3    0    0 -0.53687457461E+02  0.43271495351E+02 -0.30232692087E+03  0.32018524825E+03  0.79763780727E+02 0.  0.
          6    2    1    2  501    0  0.28541264873E+02  0.18660527582E+02 -0.38775831565E+03  0.42498800423E+03  0.17057395257E+03 0.  0.
         24    2    5    5    0    0 -0.14564599993E+02  0.51140686525E+02 -0.13166654157E+03  0.16322826122E+03  0.80497762081E+02 0.  0.
          5    1    5    5  501    0  0.43105864866E+02 -0.32480158943E+02 -0.25609177408E+03  0.26175974301E+03  0.47000000000E+01 0. -1.
        -11    1    6    6    0    0  0.15128150567E+02 -0.16474181484E+02 -0.35871873983E+02  0.42273525263E+02  0.00000000000E+00 0.  1.
         12    1    6    6    0    0 -0.29692750560E+02  0.67614868009E+02 -0.95794667591E+02  0.12095473596E+03  0.00000000000E+00 0. -1.
         -5    1    3    3    0  503  0.25146192588E+02 -0.61932022932E+02 -0.12318532284E+03  0.14023059662E+03  0.47000000000E+01 0.  1.
         11    1    4    4    0    0 -0.25209085895E+02 -0.20638104451E+02 -0.13383819913E+03  0.13774648058E+03  0.00000000000E+00 0. -1.
        -12    1    4    4    0    0 -0.28478371565E+02  0.63909599802E+02 -0.16848872174E+03  0.18243876767E+03  0.00000000000E+00 0.  1.
</event>
<event>
12    1  0.8113184E-002  0.2861580E+03  0.7818608E-02  0.1092394E+00
         21   -1    0    0  501  502  0.00000000000E+00  0.00000000000E+00  0.25766743065E+03  0.25766743065E+03  0.00000000000E+00 0.  1.
         21   -1    0    0  502  503 -0.00000000000E+00 -0.00000000000E+00 -0.32070951780E+03  0.32070951780E+03  0.00000000000E+00 0.  1.
         -6    2    1    2    0  503  0.21678969199E+02 -0.22699990455E+03 -0.31525091208E+01  0.28617539753E+03  0.17287997416E+03 0.  0.
        -24    2    3    3    0    0  0.36822397580E+02 -0.11076363650E+03  0.56477489828E+02  0.15457744842E+03  0.84142786794E+02 0.  0.
          6    2    1    2  501    0 -0.21678969199E+02  0.22699990455E+03 -0.59889578025E+02  0.29220155092E+03  0.17261532502E+03 0.  0.
         24    2    5    5    0    0  0.39572449760E+02  0.67599413086E+02 -0.44605765976E+02  0.12069079932E+03  0.80255437520E+02 0.  0.
          5    1    5    5  501    0 -0.61251418960E+02  0.15940049147E+03 -0.15283812049E+02  0.17151075160E+03  0.47000000000E+01 0. -1.
        -11    1    6    6    0    0 -0.46461497445E+01  0.37116013015E+02  0.15140018637E+02  0.40353504109E+02  0.00000000000E+00 0.  1.
         12    1    6    6    0    0  0.44218599505E+02  0.30483400071E+02 -0.59745784612E+02  0.80337295206E+02  0.00000000000E+00 0. -1.
         -5    1    3    3    0  503 -0.15143428380E+02 -0.11623626806E+03 -0.59629998949E+02  0.13159794911E+03  0.47000000000E+01 0.  1.
         11    1    4    4    0    0  0.22583747899E+02 -0.10474922612E+02  0.46561390374E+02  0.52798794933E+02  0.00000000000E+00 0. -1.
        -12    1    4    4    0    0  0.14238649680E+02 -0.10028871388E+03  0.99160994546E+01  0.10177865349E+03  0.00000000000E+00 0.  1.
</event>
<event>
12    1  0.8113184E-002  0.2345587E+03  0.7818608E-02  0.1123914E+00
         21   -1    0    0  503  502  0.00000000000E+00  0.00000000000E+00  0.15089046097E+03  0.15089046097E+03  0.00000000000E+00 0. -1.
         21   -1    0    0  501  503 -0.00000000000E+00 -0.00000000000E+00 -0.60941045932E+03  0.60941045932E+03  0.00000000000E+00 0.  1.
          6    2    1    2  501    0  0.10409933400E+03  0.11600583364E+03 -0.47139327350E+03  0.52538926102E+03  0.17183780876E+03 0.  0.
         24    2    3    3    0    0  0.99251143395E+02  0.20964573809E+02 -0.33446069830E+03  0.35856909985E+03  0.80109536515E+02 0.  0.
         -6    2    1    2    0  502 -0.10409933400E+03 -0.11600583364E+03  0.12873275154E+02  0.23491165927E+03  0.17528189202E+03 0.  0.
        -24    2    5    5    0    0 -0.92600837633E+02 -0.75615092085E+01  0.25205834749E+02  0.12506372371E+03  0.79834261635E+02 0.  0.
          5    1    3    3  501    0  0.48481906086E+01  0.95041259833E+02 -0.13693257519E+03  0.16682016117E+03  0.47000000000E+01 0. -1.
        -13    1    4    4    0    0  0.70068081855E+02  0.51306049524E+02 -0.23674823033E+03  0.25217369287E+03  0.00000000000E+00 0.  1.
         14    1    4    4    0    0  0.29183061540E+02 -0.30341475715E+02 -0.97712467978E+02  0.10639540699E+03  0.00000000000E+00 0. -1.
         -5    1    5    5    0  502 -0.11498496371E+02 -0.10844432443E+03 -0.12332559595E+02  0.10984793556E+03  0.47000000000E+01 0.  1.
         11    1    6    6    0    0 -0.91553052253E+02 -0.25453307440E+02  0.38726052276E+02  0.10261354375E+03  0.00000000000E+00 0. -1.
        -12    1    6    6    0    0 -0.10477853800E+01  0.17891798231E+02 -0.13520217527E+02  0.22450179957E+02  0.00000000000E+00 0.  1.
</event>
<event>
12    1  0.8113184E-002  0.2060017E+03  0.7818608E-02  0.1145306E+00
         21   -1    0    0  503  502  0.00000000000E+00  0.00000000000E+00  0.24579336622E+03  0.24579336622E+03  0.00000000000E+00 0. -1.
         21   -1    0    0  501  503 -0.00000000000E+00 -0.00000000000E+00 -0.18133634644E+03  0.18133634644E+03  0.00000000000E+00 0. -1.
          6    2    1    2  501    0 -0.53188405741E+01 -0.11057997218E+03 -0.20243935438E+02  0.20439457554E+03  0.17061976813E+03 0.  0.
         24    2    3    3    0    0  0.75052548135E+00 -0.12882361638E+03 -0.56900855367E+02  0.16273539244E+03  0.81541481386E+02 0.  0.
         -6    2    1    2    0  502  0.53188405741E+01  0.11057997218E+03  0.84700955222E+02  0.22273513712E+03  0.17372526926E+03 0.  0.
        -24    2    5    5    0    0 -0.62558009976E+02  0.82024164475E+02  0.41570303744E+02  0.13726558645E+03  0.80450499697E+02 0.  0.
          5    1    3    3  501    0 -0.60693660555E+01  0.18243644197E+02  0.36656919930E+02  0.41659183101E+02  0.47000000000E+01 0. -1.
        -11    1    4    4    0    0 -0.35253881186E+02 -0.28231428501E+02 -0.11216997106E+02  0.46536767378E+02  0.00000000000E+00 0.  1.
         12    1    4    4    0    0  0.36004406667E+02 -0.10059218788E+03 -0.45683858261E+02  0.11619862506E+03  0.00000000000E+00 0. -1.
         -5    1    5    5    0  502  0.67876850550E+02  0.28555807705E+02  0.43130651478E+02  0.85469550667E+02  0.47000000000E+01 0.  1.
         13    1    6    6    0    0 -0.55720834077E+01  0.53126895094E+02  0.49567707130E+02  0.72872990099E+02  0.00000000000E+00 0. -1.
        -14    1    6    6    0    0 -0.56985926568E+02  0.28897269381E+02 -0.79974033866E+01  0.64392596356E+02  0.00000000000E+00 0.  1.
</event>
<event>
12    1  0.8113184E-002  0.1925915E+03  0.7818608E-02  0.1156267E+00
         21   -1    0    0  503  502  0.00000000000E+00  0.00000000000E+00  0.38949069299E+03  0.38949069299E+03  0.00000000000E+00 0.  1.
         21   -1    0    0  501  503 -0.00000000000E+00 -0.00000000000E+00 -0.12852346115E+03  0.12852346115E+03  0.00000000000E+00 0.  1.
          6    2    1    2  501    0  0.19431573242E+02 -0.85676527623E+02 -0.20184539927E+01  0.19204949750E+03  0.17076557589E+03 0.  0.
         24    2    3    3    0    0 -0.88738805348E+00 -0.12727150583E+03  0.28144584131E+00  0.14546213934E+03  0.70429618167E+02 0.  0.
         -6    2    1    2    0  502 -0.19431573242E+02  0.85676527623E+02  0.26298568584E+03  0.32596465664E+03  0.17138679353E+03 0.  0.
        -24    2    5    5    0    0 -0.52874072843E+02  0.51298460869E+02  0.69365099514E+02  0.12643703023E+03  0.75812966670E+02 0.  0.
          5    1    3    3  501    0  0.20318961295E+02  0.41594978212E+02 -0.22998998341E+01  0.46587358154E+02  0.47000000000E+01 0. -1.
        -13    1    4    4    0    0 -0.27394060127E+02 -0.68716554770E+02  0.22715071121E+02  0.77384584290E+02  0.00000000000E+00 0.  1.
         14    1    4    4    0    0  0.26506672074E+02 -0.58554951064E+02 -0.22433625280E+02  0.68077555051E+02  0.00000000000E+00 0. -1.
         -5    1    5    5    0  502  0.33442499601E+02  0.34378066755E+02  0.19362058633E+03  0.19952762641E+03  0.47000000000E+01 0.  1.
         13    1    6    6    0    0 -0.30373991375E+02  0.64001490138E+02  0.25054337554E+02  0.75143129574E+02  0.00000000000E+00 0. -1.
        -14    1    6    6    0    0 -0.22500081469E+02 -0.12703029269E+02  0.44310761959E+02  0.51293900652E+02  0.00000000000E+00 0.  1.
</event>
<event>
12    1  0.8113184E-002  0.1952730E+03  0.7818608E-02  0.1158845E+00
         21   -1    0    0  501  502  0.00000000000E+00  0.00000000000E+00  0.64863492482E+03  0.64863492482E+03  0.00000000000E+00 0.  1.
         21   -1    0    0  502  503 -0.00000000000E+00 -0.00000000000E+00 -0.92532229345E+02  0.92532229345E+02  0.00000000000E+00 0.  1.
         -6    2    1    2    0  503  0.98288727562E+01 -0.21473759365E+02  0.43565676588E+02  0.20007381179E+03  0.19383970931E+03 0.  0.
        -24    2    3    3    0    0  0.82604727650E+02 -0.33555339646E+02  0.23443087014E+02  0.12346246635E+03  0.82121254378E+02 0.  0.
          6    2    1    2  501    0 -0.98288727562E+01  0.21473759365E+02  0.51253701889E+03  0.54109334238E+03  0.17184318536E+03 0.  0.
         24    2    5    5    0    0  0.39579167671E+02  0.55417910015E+02  0.40249234978E+03  0.41569286781E+03  0.78503588809E+02 0.  0.
          5    1    5    5  501    0 -0.49408040428E+02 -0.33944150650E+02  0.11004466911E+03  0.12540047456E+03  0.47000000000E+01 0. -1.
        -11    1    6    6    0    0  0.22910412079E+02  0.19977770060E+02  0.34375239299E+03  0.34509376402E+03  0.00000000000E+00 0.  1.
         12    1    6    6    0    0  0.16668755592E+02  0.35440139955E+02  0.58739956791E+02  0.70599103796E+02  0.00000000000E+00 0. -1.
         -5    1    3    3    0  503 -0.72775854894E+02  0.12081580280E+02  0.20122589574E+02  0.76611345431E+02  0.47000000000E+01 0.  1.
         11    1    4    4    0    0  0.30096139708E+02  0.39612437262E+01  0.45988421941E+02  0.55103575472E+02  0.00000000000E+00 0. -1.
        -12    1    4    4    0    0  0.52508587942E+02 -0.37516583372E+02 -0.22545334927E+02  0.68358890882E+02  0.00000000000E+00 0.  1.
</event>
<event>
12    1  0.8113184E-002  0.1929120E+03  0.7818608E-02  0.1156561E+00
         21   -1    0    0  501  502  0.00000000000E+00  0.00000000000E+00  0.10253534923E+04  0.10253534923E+04  0.00000000000E+00 0.  1.
         21   -1    0    0  502  503 -0.00000000000E+00 -0.00000000000E+00 -0.37746970911E+02  0.37746970911E+02  0.00000000000E+00 0.  1.
         -6    2    1    2    0  503  0.99701283967E+01 -0.79935383538E+02  0.36637770256E+03  0.41260812502E+03  0.17182483783E+03 0.  0.
        -24    2    3    3    0    0  0.58055354242E+01 -0.10153121590E+03  0.15481927341E+03  0.19985760738E+03  0.75045078220E+02 0.  0.
          6    2    1    2  501    0 -0.99701283967E+01  0.79935383538E+02  0.62122881887E+03  0.65049233824E+03  0.17528824178E+03 0.  0.
         24    2    5    5    0    0 -0.34191357639E+01  0.36304431344E+02  0.13546239585E+03  0.16270377417E+03  0.82418172854E+02 0.  0.
          5    1    5    5  501    0 -0.65509926328E+01  0.43630952194E+02  0.48576642303E+03  0.48778856407E+03  0.47000000000E+01 0. -1.
        -11    1    6    6    0    0  0.34237828764E+02  0.38994479116E+02  0.86578172749E+02  0.10093848779E+03  0.00000000000E+00 0.  1.
         12    1    6    6    0    0 -0.37656964528E+02 -0.26900477719E+01  0.48884223098E+02  0.61765286386E+02  0.00000000000E+00 0. -1.
         -5    1    3    3    0  503  0.41645929725E+01  0.21595832364E+02  0.21155842915E+03  0.21275051763E+03  0.47000000000E+01 0.  1.
         13    1    4    4    0    0  0.34908701014E+02 -0.48191337333E+02  0.45962258023E+02  0.75190102826E+02  0.00000000000E+00 0. -1.
        -14    1    4    4    0    0 -0.29103165590E+02 -0.53339878570E+02  0.10885701539E+03  0.12466750456E+03  0.00000000000E+00 0.  1.
</event>
<event>
12    1  0.8113184E-002  0.2044114E+03  0.7818608E-02  0.1148678E+00
         21   -1    0    0  501  502  0.00000000000E+00  0.00000000000E+00  0.23036958896E+03  0.23036958896E+03  0.00000000000E+00 0. -1.
         21   -1    0    0  502  503 -0.00000000000E+00 -0.00000000000E+00 -0.17062614405E+03  0.17062614405E+03  0.00000000000E+00 0.  1.
         -6    2    1    2    0  503  0.79699385617E+02 -0.25199128419E+02  0.28254917561E+02  0.19417320183E+03  0.17296792708E+03 0.  0.
        -24    2    3    3    0    0  0.71107790335E+02 -0.64407679993E+01  0.83450835300E+02  0.13505999746E+03  0.78608903205E+02 0.  0.
          6    2    1    2  501    0 -0.79699385617E+02  0.25199128419E+02  0.31488527349E+02  0.20682253118E+03  0.18653965774E+03 0.  0.
         24    2    5    5    0    0 -0.12608565850E+03  0.10088262780E+02  0.19238469035E+01  0.14958456387E+03  0.79827778599E+02 0.  0.
          5    1    5    5  501    0  0.46386272883E+02  0.15110865639E+02  0.29564680446E+02  0.57237967313E+02  0.47000000000E+01 0. -1.
        -11    1    6    6    0    0 -0.62660713345E+02 -0.83255174731E+01 -0.36683023595E+02  0.73084358505E+02  0.00000000000E+00 0.  1.
         12    1    6    6    0    0 -0.63424945155E+02  0.18413780253E+02  0.38606870499E+02  0.76500205364E+02  0.00000000000E+00 0. -1.
         -5    1    3    3    0  503  0.85915952815E+01 -0.18758360420E+02 -0.55195917739E+02  0.59113204364E+02  0.47000000000E+01 0.  1.
         11    1    4    4    0    0  0.25684356788E+02  0.13568142306E+02  0.80222988024E+02  0.85320035611E+02  0.00000000000E+00 0. -1.
        -12    1    4    4    0    0  0.45423433547E+02 -0.20008910305E+02  0.32278472763E+01  0.49739961850E+02  0.00000000000E+00 0.  1.
</event>
<event>
12    1  0.8113184E-002  0.2954217E+03  0.7818608E-02  0.1087622E+00
         21   -1    0    0  501  502  0.00000000000E+00  0.00000000000E+00  0.18262977292E+03  0.18262977292E+03  0.00000000000E+00 0.  1.
         21   -1    0    0  502  503 -0.00000000000E+00 -0.00000000000E+00 -0.48358715695E+03  0.48358715695E+03  0.00000000000E+00 0. -1.
         -6    2    1    2    0  503 -0.23455294918E+03  0.43298322011E+02 -0.18953576083E+03  0.35099544712E+03  0.17431055221E+03 0.  0.
        -24    2    3    3    0    0 -0.15908368311E+03 -0.26464111412E+02 -0.70152035196E+02  0.19339794973E+03  0.80458010752E+02 0.  0.
          6    2    1    2  501    0  0.23455294918E+03 -0.43298322011E+02 -0.11142162320E+03  0.31522148275E+03  0.17337812552E+03 0.  0.
         24    2    5    5    0    0  0.95116863753E+02 -0.13525437465E+02 -0.11882242849E+03  0.17237293185E+03  0.79771566947E+02 0.  0.
          5    1    5    5  501    0  0.13943608543E+03 -0.29772884546E+02  0.74008052947E+01  0.14284855089E+03  0.47000000000E+01 0. -1.
        -11    1    6    6    0    0  0.45956935359E+01 -0.15259734340E+02  0.69635035557E+01  0.17391672518E+02  0.00000000000E+00 0.  1.
         12    1    6    6    0    0  0.90521170217E+02  0.17342968747E+01 -0.12578593205E+03  0.15498125933E+03  0.00000000000E+00 0. -1.
         -5    1    3    3    0  503 -0.75469266071E+02  0.69762433423E+02 -0.11938372563E+03  0.15759749739E+03  0.47000000000E+01 0.  1.
         13    1    4    4    0    0 -0.51542935194E+02 -0.42488749919E+02 -0.48465912581E+02  0.82528254074E+02  0.00000000000E+00 0. -1.
        -14    1    4    4    0    0 -0.10754074791E+03  0.16024638507E+02 -0.21686122615E+02  0.11086969566E+03  0.00000000000E+00 0.  1.
</event>
<event>
12    1  0.8113184E-002  0.2214404E+03  0.7818608E-02  0.1132914E+00
         21   -1    0    0  501  502  0.00000000000E+00  0.00000000000E+00  0.24202256981E+04  0.24202256981E+04  0.00000000000E+00 0. -1.
         21   -1    0    0  502  503 -0.00000000000E+00 -0.00000000000E+00 -0.75729269943E+02  0.75729269943E+02  0.00000000000E+00 0.  1.
         -6    2    1    2    0  503  0.85836717053E+02 -0.10878010404E+03  0.10408918158E+03  0.24468427467E+03  0.17272748340E+03 0.  0.
        -24    2    3    3    0    0  0.11048224395E+03 -0.31635406721E+02  0.71194382353E+02  0.15714648776E+03  0.80120243070E+02 0.  0.
          6    2    1    2  501    0 -0.85836717053E+02  0.10878010404E+03  0.22404072465E+04  0.22512706933E+04  0.17202921635E+03 0.  0.
         24    2    5    5    0    0  0.84326757480E+01  0.47608432031E+02  0.61623882809E+03  0.62321239174E+03  0.79408558472E+02 0.  0.
          5    1    5    5  501    0 -0.94269392801E+02  0.61171672010E+02  0.16241684185E+04  0.16280583016E+04  0.47000000000E+01 0. -1.
        -13    1    6    6    0    0 -0.25947872636E+02  0.49349694925E+02  0.30295357166E+03  0.30804147620E+03  0.00000000000E+00 0.  1.
         14    1    6    6    0    0  0.34380548384E+02 -0.17412628934E+01  0.31328525643E+03  0.31517091554E+03  0.00000000000E+00 0. -1.
         -5    1    3    3    0  503 -0.24645526902E+02 -0.77144697321E+02  0.32894799224E+02  0.87537786909E+02  0.47000000000E+01 0.  1.
         13    1    4    4    0    0  0.61162481853E+02 -0.25062718331E+02  0.82906757262E+02  0.10603074760E+03  0.00000000000E+00 0. -1.
        -14    1    4    4    0    0  0.49319762102E+02 -0.65726883899E+01 -0.11712374909E+02  0.51115740163E+02  0.00000000000E+00 0.  1.
</event>
<event>
12    1  0.8113184E-002  0.3068101E+03  0.7818608E-02  0.1081896E+00
         21   -1    0    0  501  502  0.00000000000E+00  0.00000000000E+00  0.11154957027E+04  0.11154957027E+04  0.00000000000E+00 0. -1.
         21   -1    0    0  502  503 -0.00000000000E+00 -0.00000000000E+00 -0.87200190591E+02  0.87200190591E+02  0.00000000000E+00 0. -1.
         -6    2    1    2    0  503 -0.25174614054E+03 -0.26941435811E+02  0.40556681140E+03  0.50848879883E+03  0.17313133681E+03 0.  0.
        -24    2    3    3    0    0 -0.38665499790E+02  0.15926620831E+02  0.10474484303E+03  0.13733252932E+03  0.78358556286E+02 0.  0.
          6    2    1    2  501    0  0.25174614054E+03  0.26941435811E+02  0.62272870073E+03  0.69420709448E+03  0.17329309009E+03 0.  0.
         24    2    5    5    0    0  0.87907383777E+02  0.19752541091E+02  0.13995785140E+03  0.18432024292E+03  0.79169948728E+02 0.  0.
          5    1    5    5  501    0  0.16383875677E+03  0.71888947200E+01  0.48277084933E+03  0.50988685155E+03  0.47000000000E+01 0. -1.
        -13    1    6    6    0    0  0.86214729052E+02  0.42694450365E+02  0.12046765288E+03  0.15416955273E+03  0.00000000000E+00 0.  1.
         14    1    6    6    0    0  0.16926547256E+01 -0.22941909273E+02  0.19490198518E+02  0.30150690198E+02  0.00000000000E+00 0. -1.
         -5    1    3    3    0  503 -0.21308064075E+03 -0.42868056642E+02  0.30082196837E+03  0.37115626951E+03  0.47000000000E+01 0.  1.
         11    1    4    4    0    0 -0.29610733667E+02 -0.29133046449E+02  0.61578009369E+02  0.74279076337E+02  0.00000000000E+00 0. -1.
        -12    1    4    4    0    0 -0.90547661235E+01  0.45059667279E+02  0.43166833663E+02  0.63053452985E+02  0.00000000000E+00 0.  1.
</event>
<event>
12    1  0.8113184E-002  0.1798501E+03  0.7818608E-02  0.1168192E+00
         21   -1    0    0  501  502  0.00000000000E+00  0.00000000000E+00  0.73106828558E+02  0.73106828558E+02  0.00000000000E+00 0.  1.
         21   -1    0    0  502  503 -0.00000000000E+00 -0.00000000000E+00 -0.47056324495E+03  0.47056324495E+03  0.00000000000E+00 0.  1.
         -6    2    1    2    0  503  0.10469073454E+01  0.52751833000E+02 -0.26854624134E+03  0.32320760254E+03  0.17193667063E+03 0.  0.
        -24    2    3    3    0    0 -0.28440454589E+02  0.44822574877E+02 -0.59764693905E+02  0.11215262820E+03  0.78666833534E+02 0.  0.
          6    2    1    2  501    0 -0.10469073454E+01 -0.52751833000E+02 -0.12891017506E+03  0.22046247097E+03  0.17088597359E+03 0.  0.
         24    2    5    5    0    0  0.25319704048E+02 -0.48392108672E+02 -0.79073785022E+01  0.96454518936E+02  0.79107926237E+02 0.  0.
          5    1    5    5  501    0 -0.26366611394E+02 -0.43597243275E+01 -0.12100279656E+03  0.12400795203E+03  0.47000000000E+01 0. -1.
        -13    1    6    6    0    0  0.30903228618E+02 -0.84652582070E+01  0.27935626397E+02  0.42509638410E+02  0.00000000000E+00 0.  1.
         14    1    6    6    0    0 -0.55835245703E+01 -0.39926850465E+02 -0.35843004900E+02  0.53944880526E+02  0.00000000000E+00 0. -1.
         -5    1    3    3    0  503  0.29487361935E+02  0.79292581225E+01 -0.20878154743E+03  0.21105497435E+03  0.47000000000E+01 0.  1.
         13    1    4    4    0    0 -0.17351698701E+02 -0.75611110141E+01  0.12151481677E+02  0.22492451056E+02  0.00000000000E+00 0. -1.
        -14    1    4    4    0    0 -0.11088755888E+02  0.52383685891E+02 -0.71916175582E+02  0.89660177141E+02  0.00000000000E+00 0.  1.
</event>
<event>
12    1  0.8113184E-002  0.1877007E+03  0.7818608E-02  0.1160699E+00
         21   -1    0    0  503  502  0.00000000000E+00  0.00000000000E+00  0.12324130610E+03  0.12324130610E+03  0.00000000000E+00 0. -1.
         21   -1    0    0  501  503 -0.00000000000E+00 -0.00000000000E+00 -0.28551189575E+03  0.28551189575E+03  0.00000000000E+00 0. -1.
          6    2    1    2  501    0  0.10329544901E+02  0.73216056019E+02 -0.90758190315E+02  0.20849125958E+03  0.17252323280E+03 0.  0.
         24    2    3    3    0    0 -0.31678152661E+02 -0.10136830573E+02 -0.27496811200E+02  0.95635411502E+02  0.85345161649E+02 0.  0.
         -6    2    1    2    0  502 -0.10329544901E+02 -0.73216056019E+02 -0.71512399329E+02  0.20026194227E+03  0.17182413075E+03 0.  0.
        -24    2    5    5    0    0  0.54633195258E+02 -0.12783410434E+02 -0.33434766494E+02  0.10359623799E+03  0.80412034607E+02 0.  0.
          5    1    3    3  501    0  0.42007697562E+02  0.83352886592E+02 -0.63261379115E+02  0.11285584808E+03  0.47000000000E+01 0. -1.
        -11    1    4    4    0    0 -0.20142914667E+02 -0.13548982590E+02 -0.57984119271E+02  0.62860719278E+02  0.00000000000E+00 0.  1.
         12    1    4    4    0    0 -0.11535237994E+02  0.34121520176E+01  0.30487308071E+02  0.32774692224E+02  0.00000000000E+00 0. -1.
         -5    1    5    5    0  502 -0.64962740159E+02 -0.60432645585E+02 -0.38077632835E+02  0.96665704279E+02  0.47000000000E+01 0.  1.
         13    1    6    6    0    0 -0.35564239617E+01 -0.29154983769E+01 -0.43483937644E+02  0.43726434970E+02  0.00000000000E+00 0. -1.
        -14    1    6    6    0    0  0.58189619219E+02 -0.98679120570E+01  0.10049171150E+02  0.59869803023E+02  0.00000000000E+00 0.  1.
</event>
<event>
12    1  0.8113184E-002  0.2248793E+03  0.7818608E-02  0.1130385E+00
         21   -1    0    0  503  502  0.00000000000E+00  0.00000000000E+00  0.19806958956E+03  0.19806958956E+03  0.00000000000E+00 0. -1.
         21   -1    0    0  501  503 -0.00000000000E+00 -0.00000000000E+00 -0.68212877872E+03  0.68212877872E+03  0.00000000000E+00 0. -1.
          6    2    1    2  501    0 -0.71363357506E+02 -0.12681232509E+03 -0.59047604787E+03  0.63184861128E+03  0.17145439590E+03 0.  0.
         24    2    3    3    0    0 -0.17743313577E+02 -0.12004242808E+03 -0.53578619588E+03  0.55481608226E+03  0.77646813982E+02 0.  0.
         -6    2    1    2    0  502  0.71363357506E+02  0.12681232509E+03  0.10641685872E+03  0.24834975700E+03  0.17081849839E+03 0.  0.
        -24    2    5    5    0    0  0.65647681895E+02  0.57757211504E+01  0.42722519505E+02  0.11137681336E+03  0.78972170969E+02 0.  0.
          5    1    3    3  501    0 -0.53620043929E+02 -0.67698970144E+01 -0.54689851996E+02  0.77032529025E+02  0.47000000000E+01 0. -1.
        -13    1    4    4    0    0  0.20331705279E+02 -0.78904404030E+02 -0.39429286438E+03  0.40262407543E+03  0.00000000000E+00 0.  1.
         14    1    4    4    0    0 -0.38075018856E+02 -0.41138024051E+02 -0.14149333150E+03  0.15219200682E+03  0.00000000000E+00 0. -1.
         -5    1    5    5    0  502  0.57156756111E+01  0.12103660394E+03  0.63694339216E+02  0.13697294364E+03  0.47000000000E+01 0.  1.
         13    1    6    6    0    0 -0.13443663720E+02  0.12388262393E+02 -0.47594625161E+01  0.18890569679E+02  0.00000000000E+00 0. -1.
        -14    1    6    6    0    0  0.79091345615E+02 -0.66125412424E+01  0.47481982021E+02  0.92486243678E+02  0.00000000000E+00 0.  1.
</event>
<event>
12    1  0.8113184E-002  0.2085083E+03  0.7818608E-02  0.1142783E+00
         21   -1    0    0  501  502  0.00000000000E+00  0.00000000000E+00  0.60945547325E+03  0.60945547325E+03  0.00000000000E+00 0. -1.
         21   -1    0    0  502  503 -0.00000000000E+00 -0.00000000000E+00 -0.10345630598E+03  0.10345630598E+03  0.00000000000E+00 0. -1.
         -6    2    1    2    0  503  0.49752682559E+02  0.10709246760E+03  0.54154571685E+02  0.21527812904E+03  0.17166196192E+03 0.  0.
        -24    2    3    3    0    0  0.61198726611E+02  0.12440264605E+03  0.80245417977E+02  0.18161098685E+03  0.85568223985E+02 0.  0.
          6    2    1    2  501    0 -0.49752682559E+02 -0.10709246760E+03  0.45184459558E+03  0.49763365019E+03  0.17184756386E+03 0.  0.
         24    2    5    5    0    0  0.14832061037E+02 -0.45259203395E+02  0.34880127804E+03  0.36112520006E+03  0.80502751674E+02 0.  0.
          5    1    5    5  501    0 -0.64584743596E+02 -0.61833264200E+02  0.10304331754E+03  0.13650845013E+03  0.47000000000E+01 0. -1.
        -13    1    6    6    0    0 -0.22960211953E+02  0.24544644264E+01  0.38364738546E+02  0.44777772301E+02  0.00000000000E+00 0.  1.
         14    1    6    6    0    0  0.37792272990E+02 -0.47713667822E+02  0.31043653949E+03  0.31634742775E+03  0.00000000000E+00 0. -1.
         -5    1    3    3    0  503 -0.11446044052E+02 -0.17310178456E+02 -0.26090846291E+02  0.33667142184E+02  0.47000000000E+01 0.  1.
         11    1    4    4    0    0 -0.19777967551E+02  0.41585945456E+02  0.13771420328E+02  0.48064653102E+02  0.00000000000E+00 0. -1.
        -12    1    4    4    0    0  0.80976694162E+02  0.82816700594E+02  0.66473997648E+02  0.13354633375E+03  0.00000000000E+00 0.  1.
</event>
<event>
12    1  0.8113184E-002  0.2110956E+03  0.7818608E-02  0.1143064E+00
         21   -1    0    0  503  502  0.00000000000E+00  0.00000000000E+00  0.42215770956E+03  0.42215770956E+03  0.00000000000E+00 0. -1.
         21   -1    0    0  501  503 -0.00000000000E+00 -0.00000000000E+00 -0.10065806578E+03  0.10065806578E+03  0.00000000000E+00 0. -1.
          6    2    1    2  501    0 -0.10416025598E+03 -0.13142511028E+02  0.14125227328E+03  0.25399520729E+03  0.18313731488E+03 0.  0.
         24    2    3    3    0    0 -0.49461588525E+00 -0.40589734823E+01  0.12567158208E+03  0.14866751137E+03  0.79321891578E+02 0.  0.
         -6    2    1    2    0  502  0.10416025598E+03  0.13142511028E+02  0.18024737050E+03  0.26882056805E+03  0.16956797667E+03 0.  0.
        -24    2    5    5    0    0  0.99628021424E+02 -0.18818707157E+02  0.19442949235E+03  0.23324974857E+03  0.79515604276E+02 0.  0.
          5    1    3    3  501    0 -0.10366564009E+03 -0.90835375453E+01  0.15580691193E+02  0.10532769592E+03  0.47000000000E+01 0. -1.
        -13    1    4    4    0    0 -0.21679612000E+01 -0.41665292592E+02  0.68992793197E+02  0.80626932074E+02  0.00000000000E+00 0.  1.
         14    1    4    4    0    0  0.16733453147E+01  0.37606319110E+02  0.56678788886E+02  0.68040579297E+02  0.00000000000E+00 0. -1.
         -5    1    5    5    0  502  0.45322345547E+01  0.31961218185E+02 -0.14182121850E+02  0.35570819474E+02  0.47000000000E+01 0.  1.
         13    1    6    6    0    0  0.62920151851E+02 -0.30231497850E+02  0.17845383901E+03  0.19162114087E+03  0.00000000000E+00 0. -1.
        -14    1    6    6    0    0  0.36707869573E+02  0.11412790693E+02  0.15975653342E+02  0.41628607707E+02  0.00000000000E+00 0.  1.
</event>
<event>
12    1  0.8113184E-002  0.1874020E+03  0.7818608E-02  0.1161736E+00
         21   -1    0    0  503  502  0.00000000000E+00  0.00000000000E+00  0.87656632372E+03  0.87656632372E+03  0.00000000000E+00 0.  1.
         21   -1    0    0  501  503 -0.00000000000E+00 -0.00000000000E+00 -0.18236273625E+03  0.18236273625E+03  0.00000000000E+00 0.  1.
          6    2    1    2  501    0 -0.27939857563E+02  0.58249768271E+02 -0.12117222856E+03  0.22316413930E+03  0.17591433413E+03 0.  0.
         24    2    3    3    0    0  0.26301254258E+02 -0.11643414672E+02 -0.18619599186E+02  0.87641864286E+02  0.80666485115E+02 0.  0.
         -6    2    1    2    0  502  0.27939857563E+02 -0.58249768271E+02  0.81537581603E+03  0.83576492068E+03  0.17173121478E+03 0.  0.
        -24    2    5    5    0    0 -0.29479424865E+02 -0.78485925067E+02  0.44927548348E+03  0.46460724593E+03  0.83560492982E+02 0.  0.
          5    1    3    3  501    0 -0.54241111821E+02  0.69893182943E+02 -0.10255262937E+03  0.13552227501E+03  0.47000000000E+01 0. -1.
        -11    1    4    4    0    0 -0.53108509969E+01 -0.16865713196E+01 -0.44961574007E+02  0.45305549310E+02  0.00000000000E+00 0.  1.
         12    1    4    4    0    0  0.31612105255E+02 -0.99568433519E+01  0.26341974821E+02  0.42336314975E+02  0.00000000000E+00 0. -1.
         -5    1    5    5    0  502  0.57419282428E+02  0.20236156796E+02  0.36610033255E+03  0.37115767475E+03  0.47000000000E+01 0.  1.
         13    1    6    6    0    0 -0.79949835021E+01 -0.32419153125E+02  0.39635328990E+02  0.51825481712E+02  0.00000000000E+00 0. -1.
        -14    1    6    6    0    0 -0.21484441363E+02 -0.46066771942E+02  0.40964015449E+03  0.41278176421E+03  0.00000000000E+00 0.  1.
</event>
<event>
12    1  0.8113184E-002  0.2568222E+03  0.7818608E-02  0.1109203E+00
         21   -1    0    0  503  502  0.00000000000E+00  0.00000000000E+00  0.12179968774E+03  0.12179968774E+03  0.00000000000E+00 0. -1.
         21   -1    0    0  501  503 -0.00000000000E+00 -0.00000000000E+00 -0.88800334139E+03  0.88800334139E+03  0.00000000000E+00 0.  1.
          6    2    1    2  501    0 -0.75170797038E+02 -0.17364199242E+03 -0.69973318681E+03  0.74537520740E+03  0.17365332369E+03 0.  0.
         24    2    3    3    0    0 -0.87008555134E+02 -0.14566119310E+03 -0.68674285125E+03  0.71200011991E+03  0.80874935338E+02 0.  0.
         -6    2    1    2    0  502  0.75170797038E+02  0.17364199242E+03 -0.66470466834E+02  0.26442782173E+03  0.17234140444E+03 0.  0.
        -24    2    5    5    0    0  0.60489142379E+02  0.25201550274E+02 -0.46005327267E+02  0.11379240828E+03  0.80858936196E+02 0.  0.
          5    1    3    3  501    0  0.11837758096E+02 -0.27980799318E+02 -0.12990335561E+02  0.33375087494E+02  0.47000000000E+01 0. -1.
        -13    1    4    4    0    0  0.54583311583E+01 -0.51281694056E+02 -0.26763465158E+03  0.27255808968E+03  0.00000000000E+00 0.  1.
         14    1    4    4    0    0 -0.92466886292E+02 -0.94379499046E+02 -0.41910819967E+03  0.43944203023E+03  0.00000000000E+00 0. -1.
         -5    1    5    5    0  502  0.14681654659E+02  0.14844044215E+03 -0.20465139567E+02  0.15063541345E+03  0.47000000000E+01 0.  1.
         13    1    6    6    0    0  0.52914078927E+02  0.40317142867E+02 -0.18924437311E+01  0.66550380171E+02  0.00000000000E+00 0. -1.
        -14    1    6    6    0    0  0.75750634520E+01 -0.15115592593E+02 -0.44112883536E+02  0.47242028106E+02  0.00000000000E+00 0.  1.
</event>
<event>
12    1  0.8113184E-002  0.3108695E+03  0.7818608E-02  0.1080324E+00
         21   -1    0    0  501  502  0.00000000000E+00  0.00000000000E+00  0.23295129016E+03  0.23295129016E+03  0.00000000000E+00 0. -1.
         21   -1    0    0  502  503 -0.00000000000E+00 -0.00000000000E+00 -0.43434099491E+03  0.43434099491E+03  0.00000000000E+00 0.  1.
         -6    2    1    2    0  503  0.11556633044E+03  0.22899846896E+03 -0.21998989254E+02  0.30837603010E+03  0.16975259909E+03 0.  0.
        -24    2    3    3    0    0  0.18341911922E+02  0.33964880437E+02  0.64198713453E+01  0.88556991243E+02  0.79442350884E+02 0.  0.
          6    2    1    2  501    0 -0.11556633044E+03 -0.22899846896E+03 -0.17939071550E+03  0.35891625497E+03  0.17562452493E+03 0.  0.
         24    2    5    5    0    0  0.31548233159E+01 -0.49740053517E+02 -0.40529158805E+02  0.10292228281E+03  0.80413666441E+02 0.  0.
          5    1    5    5  501    0 -0.11872115376E+03 -0.17925841544E+03 -0.13886155670E+03  0.25599397216E+03  0.47000000000E+01 0. -1.
        -11    1    6    6    0    0 -0.14634911275E+02 -0.29835308163E+01 -0.49846015496E+02  0.52035635338E+02  0.00000000000E+00 0.  1.
         12    1    6    6    0    0  0.17789734591E+02 -0.46756522701E+02  0.93168566917E+01  0.50886647468E+02  0.00000000000E+00 0. -1.
         -5    1    3    3    0  503  0.97224418520E+02  0.19503358852E+03 -0.28418860600E+02  0.21981903886E+03  0.47000000000E+01 0.  1.
         11    1    4    4    0    0  0.10106565698E+02  0.60086407309E+02  0.48459744357E+01  0.61122847461E+02  0.00000000000E+00 0. -1.
        -12    1    4    4    0    0  0.82353462240E+01 -0.26121526872E+02  0.15738969096E+01  0.27434143782E+02  0.00000000000E+00 0.  1.
</event>
<event>
12    1  0.8113184E-002  0.2098296E+03  0.7818608E-02  0.1141852E+00
         21   -1    0    0  503  502  0.00000000000E+00  0.00000000000E+00  0.11161395195E+03  0.11161395195E+03  0.00000000000E+00 0.  1.
         21   -1    0    0  501  503 -0.00000000000E+00 -0.00000000000E+00 -0.58402085041E+03  0.58402085041E+03  0.00000000000E+00 0.  1.
          6    2    1    2  501    0  0.36815807842E+02  0.11330573506E+03 -0.37594300211E+02  0.21317082331E+03  0.17272774877E+03 0.  0.
         24    2    3    3    0    0  0.45057910857E+02  0.12196426760E+03  0.19633339675E+02  0.15451935090E+03  0.81149638785E+02 0.  0.
         -6    2    1    2    0  502 -0.36815807842E+02 -0.11330573506E+03 -0.43481259825E+03  0.48246397906E+03  0.17180192718E+03 0.  0.
        -24    2    5    5    0    0 -0.50070936484E+02  0.62250320937E+00 -0.21865809369E+03  0.23771880188E+03  0.78685326707E+02 0.  0.
          5    1    3    3  501    0 -0.82421030142E+01 -0.86585325416E+01 -0.57227639887E+02  0.58651472402E+02  0.47000000000E+01 0. -1.
        -11    1    4    4    0    0  0.56928715733E+02  0.42102707206E+02  0.20711415815E+02  0.73773161611E+02  0.00000000000E+00 0.  1.
         12    1    4    4    0    0 -0.11870804877E+02  0.79861560394E+02 -0.10780761398E+01  0.80746189292E+02  0.00000000000E+00 0. -1.
         -5    1    5    5    0  502  0.13255128642E+02 -0.11392823827E+03 -0.21615450456E+03  0.24474517717E+03  0.47000000000E+01 0.  1.
         13    1    6    6    0    0 -0.27882704989E+02 -0.31166220518E+02 -0.52610810968E+02  0.67206219724E+02  0.00000000000E+00 0. -1.
        -14    1    6    6    0    0 -0.22188231495E+02  0.31788723727E+02 -0.16604728273E+03  0.17051258216E+03  0.00000000000E+00 0.  1.
</event>
<event>
12    1  0.8113184E-002  0.1756676E+03  0.7818608E-02  0.1172464E+00
         21   -1    0    0  501  502  0.00000000000E+00  0.00000000000E+00  0.18494519678E+04  0.18494519678E+04  0.00000000000E+00 0. -1.
         21   -1    0    0  502  503 -0.00000000000E+00 -0.00000000000E+00 -0.16534569473E+02  0.16534569473E+02  0.00000000000E+00 0. -1.
         -6    2    1    2    0  503 -0.18932588803E+02  0.20556235976E+02  0.91626003939E+03  0.93264853517E+03  0.17181335401E+03 0.  0.
        -24    2    3    3    0    0  0.38004931124E+02 -0.30314831511E+02  0.59789472396E+03  0.60522173304E+03  0.80323604310E+02 0.  0.
          6    2    1    2  501    0  0.18932588803E+02 -0.20556235976E+02  0.91665735891E+03  0.93333800208E+03  0.17343042039E+03 0.  0.
         24    2    5    5    0    0  0.22879269784E+01  0.44138908744E+02  0.33946744186E+03  0.35227621804E+03  0.83107832612E+02 0.  0.
          5    1    5    5  501    0  0.16644661824E+02 -0.64695144720E+02  0.57718991705E+03  0.58106178403E+03  0.47000000000E+01 0. -1.
        -13    1    6    6    0    0 -0.13294369597E+02  0.16367376402E+02  0.14127319573E+02  0.25381340224E+02  0.00000000000E+00 0.  1.
         14    1    6    6    0    0  0.15582296575E+02  0.27771532342E+02  0.32534012229E+03  0.32689487782E+03  0.00000000000E+00 0. -1.
         -5    1    3    3    0  503 -0.56937519927E+02  0.50871067487E+02  0.31836531543E+03  0.32742680213E+03  0.47000000000E+01 0.  1.
         13    1    4    4    0    0 -0.12556227406E+02 -0.22291363613E+02  0.64697018703E+02  0.69572034377E+02  0.00000000000E+00 0. -1.
        -14    1    4    4    0    0  0.50561158530E+02 -0.80234678978E+01  0.53319770526E+03  0.53564969866E+03  0.00000000000E+00 0.  1.
</event>
<event>
12    1  0.8113184E-002  0.2014723E+03  0.7818608E-02  0.1148969E+00
         21   -1    0    0  503  502  0.00000000000E+00  0.00000000000E+00  0.11685341729E+04  0.11685341729E+04  0.00000000000E+00 0. -1.
         21   -1    0    0  501  503 -0.00000000000E+00 -0.00000000000E+00 -0.43273554287E+02  0.43273554287E+02  0.00000000000E+00 0. -1.
          6    2    1    2  501    0  0.10044317933E+03 -0.73608840559E+01  0.28509558604E+03  0.34782370637E+03  0.17192679444E+03 0.  0.
         24    2    3    3    0    0  0.60267688005E+01 -0.43012783211E+02  0.18510479035E+03  0.20567672007E+03  0.78439201348E+02 0.  0.
         -6    2    1    2    0  502 -0.10044317933E+03  0.73608840559E+01  0.84016503255E+03  0.86398402079E+03  0.17449381474E+03 0.  0.
        -24    2    5    5    0    0 -0.96057331076E+02 -0.16315065852E+02  0.82625633207E+03  0.83578245669E+03  0.79621582507E+02 0.  0.
          5    1    3    3  501    0  0.94416410527E+02  0.35651899155E+02  0.99990795687E+02  0.14214698629E+03  0.47000000000E+01 0. -1.
        -13    1    4    4    0    0 -0.17937395495E+02 -0.12936354728E+02  0.66041868372E+01  0.23080613393E+02  0.00000000000E+00 0.  1.
         14    1    4    4    0    0  0.23964164296E+02 -0.30076428482E+02  0.17850060351E+03  0.18259610668E+03  0.00000000000E+00 0. -1.
         -5    1    5    5    0  502 -0.43858482516E+01  0.23675949908E+02  0.13908700484E+02  0.28201564107E+02  0.47000000000E+01 0.  1.
         11    1    6    6    0    0 -0.37610013469E+02  0.22828762176E+02  0.50509736143E+03  0.50700987171E+03  0.00000000000E+00 0. -1.
        -12    1    6    6    0    0 -0.58447317607E+02 -0.39143828028E+02  0.32115897064E+03  0.32877258497E+03  0.00000000000E+00 0.  1.
</event>
<event>
12    1  0.8113184E-002  0.1903970E+03  0.7818608E-02  0.1158905E+00
         21   -1    0    0  503  502  0.00000000000E+00  0.00000000000E+00  0.30297605829E+03  0.30297605829E+03  0.00000000000E+00 0. -1.
         21   -1    0    0  501  503 -0.00000000000E+00 -0.00000000000E+00 -0.23885626085E+03  0.23885626085E+03  0.00000000000E+00 0. -1.
          6    2    1    2  501    0 -0.61927773487E+02 -0.38563602326E+02 -0.16123598255E+03  0.24681328567E+03  0.17203940060E+03 0.  0.
         24    2    3    3    0    0 -0.17243624880E+02 -0.41369215134E+02 -0.17707269864E+03  0.19909079436E+03  0.79206371170E+02 0.  0.
         -6    2    1    2    0  502  0.61927773487E+02  0.38563602326E+02  0.22535577998E+03  0.29501903347E+03  0.17586586362E+03 0.  0.
        -24    2    5    5    0    0 -0.44815389155E+00 -0.35297629410E+02  0.15053467882E+03  0.17268128358E+03  0.76889613654E+02 0.  0.
          5    1    3    3  501    0 -0.44684148607E+02  0.28056128073E+01  0.15836716095E+02  0.47722491308E+02  0.47000000000E+01 0. -1.
        -13    1    4    4    0    0  0.24031110585E+02 -0.57362396051E+01 -0.10954340429E+03  0.11229495155E+03  0.00000000000E+00 0.  1.
         14    1    4    4    0    0 -0.41274735465E+02 -0.35632975528E+02 -0.67529294357E+02  0.86795842810E+02  0.00000000000E+00 0. -1.
         -5    1    5    5    0  502  0.62375927378E+02  0.73861231736E+02  0.74821101162E+02  0.12233774989E+03  0.47000000000E+01 0.  1.
         13    1    6    6    0    0 -0.28060553842E+02 -0.11209734305E+02  0.12350593872E+03  0.12714861275E+03  0.00000000000E+00 0. -1.
        -14    1    6    6    0    0  0.27612399951E+02 -0.24087895105E+02  0.27028740100E+02  0.45532670831E+02  0.00000000000E+00 0.  1.
</event>
<event>
12    1  0.8113184E-002  0.1831787E+03  0.7818608E-02  0.1166417E+00
         21   -1    0    0  503  502  0.00000000000E+00  0.00000000000E+00  0.98572873156E+02  0.98572873156E+02  0.00000000000E+00 0.  1.
         21   -1    0    0  501  503 -0.00000000000E+00 -0.00000000000E+00 -0.57471813645E+03  0.57471813645E+03  0.00000000000E+00 0.  1.
          6    2    1    2  501    0  0.15967276265E+02  0.37421732680E+02 -0.46130704760E+03  0.49634526499E+03  0.17860316325E+03 0.  0.
         24    2    3    3    0    0  0.25515441911E+02 -0.28968599164E+02 -0.38337517536E+03  0.39341659871E+03  0.79434737682E+02 0.  0.
         -6    2    1    2    0  502 -0.15967276265E+02 -0.37421732680E+02 -0.14838215700E+02  0.17694574462E+03  0.17156422677E+03 0.  0.
        -24    2    5    5    0    0  0.52695333907E+02 -0.47873559284E+02 -0.71620336801E+01  0.10691140672E+03  0.79436001074E+02 0.  0.
          5    1    3    3  501    0 -0.95481656456E+01  0.66390331844E+02 -0.77931872243E+02  0.10292866627E+03  0.47000000000E+01 0. -1.
        -11    1    4    4    0    0 -0.18747513821E+02 -0.31885222966E+02 -0.25328290432E+03  0.25596946368E+03  0.00000000000E+00 0.  1.
         12    1    4    4    0    0  0.44262955732E+02  0.29166238020E+01 -0.13009227104E+03  0.13744713503E+03  0.00000000000E+00 0. -1.
         -5    1    5    5    0  502 -0.68662610172E+02  0.10451826603E+02 -0.76761820203E+01  0.70034337902E+02  0.47000000000E+01 0.  1.
         11    1    6    6    0    0  0.18236414002E+02 -0.63707717506E+02  0.65417958907E+01  0.66588551260E+02  0.00000000000E+00 0. -1.
        -12    1    6    6    0    0  0.34458919905E+02  0.15834158222E+02 -0.13703829571E+02  0.40322855461E+02  0.00000000000E+00 0.  1.
</event>
<event>
12    1  0.8113184E-002  0.1831208E+03  0.7818608E-02  0.1164956E+00
         21   -1    0    0  501  502  0.00000000000E+00  0.00000000000E+00  0.28047196251E+03  0.28047196251E+03  0.00000000000E+00 0.  1.
         21   -1    0    0  502  503 -0.00000000000E+00 -0.00000000000E+00 -0.16248905695E+03  0.16248905695E+03  0.00000000000E+00 0.  1.
         -6    2    1    2    0  503  0.76473432955E+01 -0.63625476007E+02 -0.55426955424E+02  0.19076229558E+03  0.17091349558E+03 0.  0.
        -24    2    3    3    0    0 -0.27927263115E+02 -0.36198285490E+02  0.29261621605E+02  0.94782878617E+02  0.77700088047E+02 0.  0.
          6    2    1    2  501    0 -0.76473432955E+01  0.63625476007E+02  0.17340986097E+03  0.25219872388E+03  0.17154163748E+03 0.  0.
         24    2    5    5    0    0 -0.42300627529E+02  0.37602343999E+02  0.18316535604E+03  0.20752979518E+03  0.79471937621E+02 0.  0.
          5    1    5    5  501    0  0.34653284234E+02  0.26023132007E+02 -0.97554950673E+01  0.44668928705E+02  0.47000000000E+01 0. -1.
        -13    1    6    6    0    0 -0.19255580687E+02 -0.23972625352E+02  0.73405387995E+02  0.79585269621E+02  0.00000000000E+00 0.  1.
         14    1    6    6    0    0 -0.23045046842E+02  0.61574969351E+02  0.10975996805E+03  0.12794452556E+03  0.00000000000E+00 0. -1.
         -5    1    3    3    0  503  0.35574606410E+02 -0.27427190516E+02 -0.84688577029E+02  0.95979416960E+02  0.47000000000E+01 0.  1.
         11    1    4    4    0    0 -0.10478683019E+02  0.22819842950E+02 -0.30117776932E+01  0.25290686723E+02  0.00000000000E+00 0. -1.
        -12    1    4    4    0    0 -0.17448580096E+02 -0.59018128440E+02  0.32273399298E+02  0.69492191894E+02  0.00000000000E+00 0.  1.
</event>
<event>
12    1  0.8113184E-002  0.3325201E+03  0.7818608E-02  0.1070529E+00
         21   -1    0    0  501  502  0.00000000000E+00  0.00000000000E+00  0.79149094690E+03  0.79149094690E+03  0.00000000000E+00 0.  1.
         21   -1    0    0  502  503 -0.00000000000E+00 -0.00000000000E+00 -0.64591020530E+03  0.64591020530E+03  0.00000000000E+00 0. -1.
         -6    2    1    2    0  503 -0.21897320061E+03 -0.18148556444E+03 -0.56454533720E+03  0.65519544049E+03  0.17228857999E+03 0.  0.
        -24    2    3    3    0    0 -0.67762622998E+02 -0.12719742450E+03 -0.23177924262E+03  0.28564543762E+03  0.84265893735E+02 0.  0.
          6    2    1    2  501    0  0.21897320061E+03  0.18148556444E+03  0.71012607880E+03  0.78220571172E+03  0.16334152861E+03 0.  0.
         24    2    5    5    0    0  0.20255336843E+03  0.13053900140E+03  0.45097008431E+03  0.51753783937E+03  0.80019374452E+02 0.  0.
          5    1    5    5  501    0  0.16419832183E+02  0.50946563038E+02  0.25915599449E+03  0.26466787235E+03  0.47000000000E+01 0. -1.
        -11    1    6    6    0    0  0.15700954840E+03  0.10473805476E+03  0.40899158561E+03  0.45043997992E+03  0.00000000000E+00 0.  1.
         12    1    6    6    0    0  0.45543820025E+02  0.25800946643E+02  0.41978498692E+02  0.67097859449E+02  0.00000000000E+00 0. -1.
         -5    1    3    3    0  503 -0.15121057761E+03 -0.54288139939E+02 -0.33276609457E+03  0.36955000287E+03  0.47000000000E+01 0.  1.
         11    1    4    4    0    0 -0.83421391384E+02 -0.92768632265E+02 -0.20236118703E+03  0.23772925291E+03  0.00000000000E+00 0. -1.
        -12    1    4    4    0    0  0.15658768387E+02 -0.34428792236E+02 -0.29418055589E+02  0.47916184706E+02  0.00000000000E+00 0.  1.
</event>
<event>
12    1  0.8113184E-002  0.1756646E+03  0.7818608E-02  0.1172297E+00
         21   -1    0    0  503  502  0.00000000000E+00  0.00000000000E+00  0.24742266766E+02  0.24742266766E+02  0.00000000000E+00 0. -1.
         21   -1    0    0  501  503 -0.00000000000E+00 -0.00000000000E+00 -0.21548002467E+04  0.21548002467E+04  0.00000000000E+00 0. -1.
          6    2    1    2  501    0  0.38827375104E+02 -0.61285621950E+00 -0.17732263511E+04  0.17818153875E+04  0.17037148373E+03 0.  0.
         24    2    3    3    0    0  0.81545146816E+02  0.63369114709E+00 -0.15656515747E+04  0.15698348703E+04  0.80415509179E+02 0.  0.
         -6    2    1    2    0  502 -0.38827375104E+02  0.61285621950E+00 -0.35683162886E+03  0.39772712593E+03  0.17131875173E+03 0.  0.
        -24    2    5    5    0    0 -0.39835476372E+02 -0.80492399553E+00 -0.75448877097E+02  0.11629974745E+03  0.79029014427E+02 0.  0.
          5    1    3    3  501    0 -0.42717771713E+02 -0.12465473666E+01 -0.20757477633E+03  0.21198051719E+03  0.47000000000E+01 0. -1.
        -13    1    4    4    0    0 -0.12875882192E+02  0.98931248646E+01 -0.39970333837E+03  0.40003302485E+03  0.00000000000E+00 0.  1.
         14    1    4    4    0    0  0.94421029009E+02 -0.92594337175E+01 -0.11659482364E+04  0.11698018455E+04  0.00000000000E+00 0. -1.
         -5    1    5    5    0  502  0.10081012681E+01  0.14177802150E+01 -0.28138275176E+03  0.28142737848E+03  0.47000000000E+01 0.  1.
         11    1    6    6    0    0 -0.37601673017E+02  0.10532575137E+02 -0.89771656370E+02  0.97896737638E+02  0.00000000000E+00 0. -1.
        -12    1    6    6    0    0 -0.22338033547E+01 -0.11337499133E+02  0.14322779273E+02  0.18403009812E+02  0.00000000000E+00 0.  1.
</event>
<event>
12    1  0.8113184E-002  0.1937395E+03  0.7818608E-02  0.1156348E+00
         21   -1    0    0  503  502  0.00000000000E+00  0.00000000000E+00  0.57522969926E+03  0.57522969926E+03  0.00000000000E+00 0. -1.
         21   -1    0    0  501  503 -0.00000000000E+00 -0.00000000000E+00 -0.11903624068E+03  0.11903624068E+03  0.00000000000E+00 0. -1.
          6    2    1    2  501    0  0.43692740666E+01 -0.88787169953E+02 -0.10882998181E+02  0.18860260553E+03  0.16598268301E+03 0.  0.
         24    2    3    3    0    0  0.25618247016E+02 -0.22742954165E+02  0.44376182296E+02  0.99782425859E+02  0.82545444519E+02 0.  0.
         -6    2    1    2    0  502 -0.43692740666E+01  0.88787169953E+02  0.46707645676E+03  0.50566333441E+03  0.17214162542E+03 0.  0.
        -24    2    5    5    0    0 -0.47427621324E+02  0.81199235725E+02  0.18601403591E+03  0.22118174901E+03  0.74009792555E+02 0.  0.
          5    1    3    3  501    0 -0.21248972949E+02 -0.66044215788E+02 -0.55259180477E+02  0.88820179675E+02  0.47000000000E+01 0. -1.
        -11    1    4    4    0    0 -0.44407699454E+01 -0.37756292155E+02  0.52876244791E+02  0.65124152955E+02  0.00000000000E+00 0.  1.
         12    1    4    4    0    0  0.30059016961E+02  0.15013337990E+02 -0.85000624947E+01  0.34658272904E+02  0.00000000000E+00 0. -1.
         -5    1    5    5    0  502  0.43058347258E+02  0.75879342279E+01  0.28106242085E+03  0.28448158540E+03  0.47000000000E+01 0.  1.
         11    1    6    6    0    0 -0.10326507883E+02  0.67510243701E+02  0.66612517348E+02  0.95401767474E+02  0.00000000000E+00 0. -1.
        -12    1    6    6    0    0 -0.37101113441E+02  0.13688992024E+02  0.11940151856E+03  0.12577998154E+03  0.00000000000E+00 0.  1.
</event>
<event>
12    1  0.8113184E-002  0.2459371E+03  0.7818608E-02  0.1117489E+00
         21   -1    0    0  501  502  0.00000000000E+00  0.00000000000E+00  0.15498124346E+03  0.15498124346E+03  0.00000000000E+00 0. -1.
         21   -1    0    0  502  503 -0.00000000000E+00 -0.00000000000E+00 -0.67887428848E+03  0.67887428848E+03  0.00000000000E+00 0. -1.
         -6    2    1    2    0  503  0.12046900015E+03  0.10927129914E+03 -0.53790530484E+03  0.58751956253E+03  0.17141797618E+03 0.  0.
        -24    2    3    3    0    0  0.11724145795E+03  0.24318753667E+02 -0.40306496859E+03  0.42804743865E+03  0.80164079184E+02 0.  0.
          6    2    1    2  501    0 -0.12046900015E+03 -0.10927129914E+03  0.14012259817E+02  0.24633596942E+03  0.18447782953E+03 0.  0.
         24    2    5    5    0    0 -0.26383841012E+02 -0.12650054357E+02  0.62932809862E+02  0.10279854457E+03  0.75834499188E+02 0.  0.
          5    1    5    5  501    0 -0.94085159138E+02 -0.96621244788E+02 -0.48920550045E+02  0.14353742484E+03  0.47000000000E+01 0. -1.
        -11    1    6    6    0    0  0.61941413975E+01 -0.23861158626E+02  0.63734659948E+02  0.68336148247E+02  0.00000000000E+00 0.  1.
         12    1    6    6    0    0 -0.32577982410E+02  0.11211104269E+02 -0.80185008598E+00  0.34462396324E+02  0.00000000000E+00 0. -1.
         -5    1    3    3    0  503  0.32275422020E+01  0.84952545478E+02 -0.13484033625E+03  0.15947212387E+03  0.47000000000E+01 0.  1.
         13    1    4    4    0    0  0.79188054323E+01 -0.15184559955E+02 -0.13204955009E+03  0.13315540552E+03  0.00000000000E+00 0. -1.
        -14    1    4    4    0    0  0.10932265252E+03  0.39503313622E+02 -0.27101541850E+03  0.29489203314E+03  0.00000000000E+00 0.  1.
</event>
<event>
12    1  0.8113184E-002  0.2397991E+03  0.7818608E-02  0.1120000E+00
         21   -1    0    0  501  502  0.00000000000E+00  0.00000000000E+00  0.90119272193E+02  0.90119272193E+02  0.00000000000E+00 0.  1.
         21   -1    0    0  502  503 -0.00000000000E+00 -0.00000000000E+00 -0.76447449975E+03  0.76447449975E+03  0.00000000000E+00 0.  1.
         -6    2    1    2    0  503 -0.14685424666E+03 -0.79008859627E+02 -0.16237140235E+03  0.28923455380E+03  0.17170784824E+03 0.  0.
        -24    2    3    3    0    0 -0.59428509041E+02 -0.58400644999E+02 -0.16902699093E+02  0.11820475599E+03  0.82123565924E+02 0.  0.
          6    2    1    2  501    0  0.14685424666E+03  0.79008859627E+02 -0.51198382521E+03  0.56535921815E+03  0.17232248434E+03 0.  0.
         24    2    5    5    0    0  0.96181370054E+02  0.92400061046E+02 -0.47891924287E+03  0.50321083680E+03  0.77903002856E+02 0.  0.
          5    1    5    5  501    0  0.50672876607E+02 -0.13391201418E+02 -0.33064582333E+02  0.62148381346E+02  0.47000000000E+01 0. -1.
        -11    1    6    6    0    0  0.24465932738E+01  0.46119883561E+02 -0.10025160948E+03  0.11037850643E+03  0.00000000000E+00 0.  1.
         12    1    6    6    0    0  0.93734776780E+02  0.46280177485E+02 -0.37866763339E+03  0.39283233037E+03  0.00000000000E+00 0. -1.
         -5    1    3    3    0  503 -0.87425737620E+02 -0.20608214628E+02 -0.14546870326E+03  0.17102979780E+03  0.47000000000E+01 0.  1.
         11    1    4    4    0    0 -0.46526531088E+01 -0.26840884358E+02  0.29221516922E+02  0.39949684671E+02  0.00000000000E+00 0. -1.
        -12    1    4    4    0    0 -0.54775855932E+02 -0.31559760642E+02 -0.46124216016E+02  0.78255071324E+02  0.00000000000E+00 0.  1.
</event>
<event>
12    1  0.8113184E-002  0.2084506E+03  0.7818608E-02  0.1143159E+00
         21   -1    0    0  503  502  0.00000000000E+00  0.00000000000E+00  0.11415397427E+03  0.11415397427E+03  0.00000000000E+00 0.  1.
         21   -1    0    0  501  503 -0.00000000000E+00 -0.00000000000E+00 -0.69603699306E+03  0.69603699306E+03  0.00000000000E+00 0.  1.
          6    2    1    2  501    0 -0.55423663317E+02 -0.10460269022E+03 -0.56435702790E+03  0.60100491651E+03  0.16939465597E+03 0.  0.
         24    2    3    3    0    0 -0.51875569112E+02 -0.84184865395E+02 -0.21006628673E+03  0.24607746501E+03  0.81535929111E+02 0.  0.
         -6    2    1    2    0  502  0.55423663317E+02  0.10460269022E+03 -0.17525990887E+02  0.20918605081E+03  0.17157545932E+03 0.  0.
        -24    2    5    5    0    0  0.14449584059E+02  0.22870680374E+02 -0.65851895332E+02  0.10566561976E+03  0.78082601013E+02 0.  0.
          5    1    3    3  501    0 -0.35480942051E+01 -0.20417824823E+02 -0.35429074118E+03  0.35492745150E+03  0.47000000000E+01 0. -1.
        -13    1    4    4    0    0  0.10281210325E+02 -0.47063444294E+02 -0.12732729730E+03  0.13613563719E+03  0.00000000000E+00 0.  1.
         14    1    4    4    0    0 -0.62156779437E+02 -0.37121421101E+02 -0.82738989428E+02  0.10994182783E+03  0.00000000000E+00 0. -1.
         -5    1    5    5    0  502  0.40974079258E+02  0.81732009844E+02  0.48325904445E+02  0.10352043105E+03  0.47000000000E+01 0.  1.
         11    1    6    6    0    0  0.19086454130E+02  0.50802749259E+02 -0.45042507603E+02  0.70526871153E+02  0.00000000000E+00 0. -1.
        -12    1    6    6    0    0 -0.46368700712E+01 -0.27932068885E+02 -0.20809387729E+02  0.35138748610E+02  0.00000000000E+00 0.  1.
</event>
<event>
12    1  0.8113184E-002  0.1888639E+03  0.7818608E-02  0.1159870E+00
         21   -1    0    0  501  502  0.00000000000E+00  0.00000000000E+00  0.80121765974E+03  0.80121765974E+03  0.00000000000E+00 0.  1.
         21   -1    0    0  502  503 -0.00000000000E+00 -0.00000000000E+00 -0.18724990238E+03  0.18724990238E+03  0.00000000000E+00 0.  1.
         -6    2    1    2    0  503  0.75913814351E+02  0.97115560912E+01 -0.12542670373E+03  0.22533340056E+03  0.17083928667E+03 0.  0.
        -24    2    3    3    0    0  0.12260357929E+02  0.63833153061E+02 -0.57968021346E+02  0.11784538448E+03  0.79386745355E+02 0.  0.
          6    2    1    2  501    0 -0.75913814351E+02 -0.97115560912E+01  0.73939446109E+03  0.76313416156E+03  0.17266255507E+03 0.  0.
         24    2    5    5    0    0 -0.11681845116E+03 -0.18014085203E+02  0.49256726804E+03  0.51275869445E+03  0.79548145130E+02 0.  0.
          5    1    5    5  501    0  0.40904636810E+02  0.83025291114E+01  0.24682719305E+03  0.25037546711E+03  0.47000000000E+01 0. -1.
        -11    1    6    6    0    0 -0.10068484852E+03  0.69380402828E+00  0.46485292955E+03  0.47563238557E+03  0.00000000000E+00 0.  1.
         12    1    6    6    0    0 -0.16133602638E+02 -0.18707889231E+02  0.27714338484E+02  0.37126308882E+02  0.00000000000E+00 0. -1.
         -5    1    3    3    0  503  0.63653456422E+02 -0.54121596970E+02 -0.67458682380E+02  0.10748801608E+03  0.47000000000E+01 0.  1.
         11    1    4    4    0    0  0.25312759335E+02 -0.10228921379E+02 -0.17736391136E+02  0.32556814775E+02  0.00000000000E+00 0. -1.
        -12    1    4    4    0    0 -0.13052401406E+02  0.74062074440E+02 -0.40231630210E+02  0.85288569704E+02  0.00000000000E+00 0.  1.
</event>
<event>
12    1  0.8113184E-002  0.2098924E+03  0.7818608E-02  0.1141685E+00
         21   -1    0    0  503  502  0.00000000000E+00  0.00000000000E+00  0.12229737230E+03  0.12229737230E+03  0.00000000000E+00 0.  1.
         21   -1    0    0  501  503 -0.00000000000E+00 -0.00000000000E+00 -0.36020736072E+03  0.36020736072E+03  0.00000000000E+00 0. -1.
          6    2    1    2  501    0 -0.80837498787E+02  0.87131266500E+02 -0.11223289371E+03  0.23786302053E+03  0.17278899066E+03 0.  0.
         24    2    3    3    0    0 -0.45108348988E+02 -0.21674546769E+02 -0.63859089882E+02  0.11345485342E+03  0.79306186886E+02 0.  0.
         -6    2    1    2    0  502  0.80837498787E+02 -0.87131266500E+02 -0.12567709472E+03  0.24464171248E+03  0.17299790906E+03 0.  0.
        -24    2    5    5    0    0  0.89274615054E+02 -0.12307506557E+03 -0.10091568390E+03  0.19993870265E+03  0.81695048213E+02 0.  0.
          5    1    3    3  501    0 -0.35729149799E+02  0.10880581327E+03 -0.48373803825E+02  0.12440816711E+03  0.47000000000E+01 0. -1.
        -13    1    4    4    0    0  0.16144396060E+02 -0.58951100616E+00 -0.42140129265E+02  0.45130694010E+02  0.00000000000E+00 0.  1.
         14    1    4    4    0    0 -0.61252745048E+02 -0.21085035762E+02 -0.21718960618E+02  0.68324159412E+02  0.00000000000E+00 0. -1.
         -5    1    5    5    0  502 -0.84371162667E+01  0.35943799071E+02 -0.24761410816E+02  0.44703009834E+02  0.47000000000E+01 0.  1.
         11    1    6    6    0    0  0.24796101716E+02  0.75380841659E+01 -0.78284284286E+01  0.27073117014E+02  0.00000000000E+00 0. -1.
        -12    1    6    6    0    0  0.64478513338E+02 -0.13061314974E+03 -0.93087255471E+02  0.17286558564E+03  0.00000000000E+00 0.  1.
</event>
<event>
12    1  0.8113184E-002  0.2151719E+03  0.7818608E-02  0.1137743E+00
         21   -1    0    0  501  502  0.00000000000E+00  0.00000000000E+00  0.16303377761E+04  0.16303377761E+04  0.00000000000E+00 0.  1.
         21   -1    0    0  502  503 -0.00000000000E+00 -0.00000000000E+00 -0.32523824532E+02  0.32523824532E+02  0.00000000000E+00 0.  1.
         -6    2    1    2    0  503 -0.61151009617E+02 -0.11159999382E+03  0.49594699585E+03  0.54018189259E+03  0.17215995411E+03 0.  0.
        -24    2    3    3    0    0 -0.83145901566E+02 -0.12342900619E+03  0.48249145969E+03  0.51142702763E+03  0.81311963475E+02 0.  0.
          6    2    1    2  501    0  0.61151009617E+02  0.11159999382E+03  0.11018669557E+04  0.11226797080E+04  0.17350773509E+03 0.  0.
         24    2    5    5    0    0  0.15031812734E+02  0.12896578207E+03  0.97045248147E+03  0.98225034869E+03  0.78610434305E+02 0.  0.
          5    1    5    5  501    0  0.46119196883E+02 -0.17365788251E+02  0.13141447422E+03  0.14042935932E+03  0.47000000000E+01 0. -1.
        -13    1    6    6    0    0 -0.10090960109E+02  0.33695230020E+02  0.51807256144E+03  0.51926522599E+03  0.00000000000E+00 0.  1.
         14    1    6    6    0    0  0.25122772843E+02  0.95270552047E+02  0.45237992002E+03  0.46298512270E+03  0.00000000000E+00 0. -1.
         -5    1    3    3    0  503  0.21994891950E+02  0.11829012373E+02  0.13455536157E+02  0.28754864960E+02  0.47000000000E+01 0.  1.
         13    1    4    4    0    0 -0.77286069343E+02 -0.70694377507E+02  0.22044966633E+03  0.24406738190E+03  0.00000000000E+00 0. -1.
        -14    1    4    4    0    0 -0.58598322231E+01 -0.52734628683E+02  0.26204179336E+03  0.26735964573E+03  0.00000000000E+00 0.  1.
</event>
<event>
12    1  0.8113184E-002  0.1967691E+03  0.7818608E-02  0.1153522E+00
         21   -1    0    0  503  502  0.00000000000E+00  0.00000000000E+00  0.22481847435E+02  0.22481847435E+02  0.00000000000E+00 0.  1.
         21   -1    0    0  501  503 -0.00000000000E+00 -0.00000000000E+00 -0.17542538575E+04  0.17542538575E+04  0.00000000000E+00 0.  1.
          6    2    1    2  501    0  0.29061510395E+02 -0.81134980975E+02 -0.69466339130E+03  0.72199398103E+03  0.17689156256E+03 0.  0.
         24    2    3    3    0    0  0.52131270626E+02  0.47668898491E+01 -0.48171484028E+03  0.49116824453E+03  0.80353372511E+02 0.  0.
         -6    2    1    2    0  502 -0.29061510395E+02  0.81134980975E+02 -0.10371086188E+04  0.10547417239E+04  0.17163438033E+03 0.  0.
        -24    2    5    5    0    0 -0.79062873177E+02  0.86264826554E+02 -0.75642316136E+03  0.76955254530E+03  0.79640207947E+02 0.  0.
          5    1    3    3  501    0 -0.23069760231E+02 -0.85901870824E+02 -0.21294855102E+03  0.23082573650E+03  0.47000000000E+01 0. -1.
        -13    1    4    4    0    0  0.19529265642E+02 -0.92913426271E+01 -0.24920582828E+02  0.32996313625E+02  0.00000000000E+00 0.  1.
         14    1    4    4    0    0  0.32602004983E+02  0.14058232476E+02 -0.45679425745E+03  0.45817193091E+03  0.00000000000E+00 0. -1.
         -5    1    5    5    0  502  0.50001362782E+02 -0.51298455792E+01 -0.28068545744E+03  0.28518917864E+03  0.47000000000E+01 0.  1.
         11    1    6    6    0    0  0.87006445070E+01  0.41456991161E+02 -0.26246103750E+03  0.26585744213E+03  0.00000000000E+00 0. -1.
        -12    1    6    6    0    0 -0.87763517684E+02  0.44807835393E+02 -0.49396212386E+03  0.50369510317E+03  0.00000000000E+00 0.  1.
</event>
<event>
12    1  0.8113184E-002  0.1881399E+03  0.7818608E-02  0.1160388E+00
         21   -1    0    0  501  502  0.00000000000E+00  0.00000000000E+00  0.29426022164E+03  0.29426022164E+03  0.00000000000E+00 0.  1.
         21   -1    0    0  502  503 -0.00000000000E+00 -0.00000000000E+00 -0.72050475661E+03  0.72050475661E+03  0.00000000000E+00 0. -1.
         -6    2    1    2    0  503  0.36000387182E+01 -0.73146893246E+02 -0.67637491351E+03  0.70177643139E+03  0.17217348159E+03 0.  0.
        -24    2    3    3    0    0 -0.41947332736E+01 -0.79265489297E+02 -0.68087025426E+03  0.68992342432E+03  0.78162745039E+02 0.  0.
          6    2    1    2  501    0 -0.36000387182E+01  0.73146893246E+02  0.25013037854E+03  0.31298854686E+03  0.17330088265E+03 0.  0.
         24    2    5    5    0    0 -0.24372145717E+02  0.68647280769E+02  0.26563036606E+03  0.28626652309E+03  0.77990898351E+02 0.  0.
          5    1    5    5  501    0  0.20772106999E+02  0.44996124772E+01 -0.15499987513E+02  0.26722023773E+02  0.47000000000E+01 0. -1.
        -11    1    6    6    0    0 -0.49201455019E+02  0.38271429985E+02  0.20307593062E+03  0.21242720901E+03  0.00000000000E+00 0.  1.
         12    1    6    6    0    0  0.24829309301E+02  0.30375850784E+02  0.62554435439E+02  0.73839314083E+02  0.00000000000E+00 0. -1.
         -5    1    3    3    0  503  0.77947719917E+01  0.61185960505E+01  0.44953407540E+01  0.11853007067E+02  0.47000000000E+01 0.  1.
         13    1    4    4    0    0  0.33341530386E+02 -0.56054284416E+02 -0.33906623521E+03  0.34528198955E+03  0.00000000000E+00 0. -1.
        -14    1    4    4    0    0 -0.37536263660E+02 -0.23211204881E+02 -0.34180401905E+03  0.34464143477E+03  0.00000000000E+00 0.  1.
</event>
<event>
12    1  0.8113184E-002  0.2212295E+03  0.7818608E-02  0.1135210E+00
         21   -1    0    0  501  502  0.00000000000E+00  0.00000000000E+00  0.13218882828E+03  0.13218882828E+03  0.00000000000E+00 0.  1.
         21   -1    0    0  502  503 -0.00000000000E+00 -0.00000000000E+00 -0.35538740504E+03  0.35538740504E+03  0.00000000000E+00 0. -1.
         -6    2    1    2    0  503 -0.13839865640E+03 -0.21033965762E+02 -0.80987137523E+02  0.22458084901E+03  0.15582370003E+03 0.  0.
        -24    2    3    3    0    0 -0.43090685840E+02 -0.73588671954E+01  0.10755206427E+02  0.91504309958E+02  0.79664321645E+02 0.  0.
          6    2    1    2  501    0  0.13839865640E+03  0.21033965762E+02 -0.14221143925E+03  0.26299538430E+03  0.17130634227E+03 0.  0.
         24    2    5    5    0    0  0.18223799783E+02  0.29443643142E+02 -0.17452204295E+02  0.89502803648E+02  0.80666829776E+02 0.  0.
          5    1    5    5  501    0  0.12017485662E+03 -0.84096773797E+01 -0.12475923495E+03  0.17349258066E+03  0.47000000000E+01 0. -1.
        -13    1    6    6    0    0  0.33378774825E+02 -0.78736315345E+01  0.15335442988E+02  0.37567439279E+02  0.00000000000E+00 0.  1.
         14    1    6    6    0    0 -0.15154975042E+02  0.37317274676E+02 -0.32787647283E+02  0.51935364369E+02  0.00000000000E+00 0. -1.
         -5    1    3    3    0  503 -0.95307970563E+02 -0.13675098567E+02 -0.91742343950E+02  0.13307653906E+03  0.47000000000E+01 0.  1.
         11    1    4    4    0    0  0.21160614792E+02  0.10957954354E+02 -0.21324631494E-01  0.23829579030E+02  0.00000000000E+00 0. -1.
        -12    1    4    4    0    0 -0.64251300632E+02 -0.18316821549E+02  0.10776531059E+02  0.67674730929E+02  0.00000000000E+00 0.  1.
</event>
<event>
12    1  0.8113184E-002  0.1861990E+03  0.7818608E-02  0.1162008E+00
         21   -1    0    0  501  502  0.00000000000E+00  0.00000000000E+00  0.22838993600E+03  0.22838993600E+03  0.00000000000E+00 0.  1.
         21   -1    0    0  502  503 -0.00000000000E+00 -0.00000000000E+00 -0.16711564474E+03  0.16711564474E+03  0.00000000000E+00 0.  1.
         -6    2    1    2    0  503  0.22990824247E+02  0.68203992355E+02  0.91021373774E+02  0.20725577379E+03  0.17172566119E+03 0.  0.
        -24    2    3    3    0    0  0.38237906544E+02  0.18745797892E+01  0.10542690691E+03  0.13753006924E+03  0.79586655268E+02 0.  0.
          6    2    1    2  501    0 -0.22990824247E+02 -0.68203992355E+02 -0.29747082512E+02  0.18824980696E+03  0.17138476691E+03 0.  0.
         24    2    5    5    0    0 -0.77753720539E+02 -0.68161334842E+02 -0.14426131930E+02  0.13119020517E+03  0.79442734245E+02 0.  0.
          5    1    5    5  501    0  0.54762896292E+02 -0.42657512670E-01 -0.15320950582E+02  0.57059601792E+02  0.47000000000E+01 0. -1.
        -13    1    6    6    0    0 -0.79130547861E+02 -0.20653320191E+02 -0.94349030100E+00  0.81786878004E+02  0.00000000000E+00 0.  1.
         14    1    6    6    0    0  0.13768273214E+01 -0.47508014651E+02 -0.13482641629E+02  0.49403327164E+02  0.00000000000E+00 0. -1.
         -5    1    3    3    0  503 -0.15247082297E+02  0.66329412565E+02 -0.14405533138E+02  0.69725704549E+02  0.47000000000E+01 0.  1.
         13    1    4    4    0    0 -0.33949662968E+01  0.33465711068E+02  0.57518081771E+02  0.66631894345E+02  0.00000000000E+00 0. -1.
        -14    1    4    4    0    0  0.41632872841E+02 -0.31591131279E+02  0.47908825142E+02  0.70898174891E+02  0.00000000000E+00 0.  1.
</event>
<event>
12    1  0.8113184E-002  0.2808042E+03  0.7818608E-02  0.1095428E+00
         21   -1    0    0  501  502  0.00000000000E+00  0.00000000000E+00  0.14064638272E+03  0.14064638272E+03  0.00000000000E+00 0.  1.
         21   -1    0    0  502  503 -0.00000000000E+00 -0.00000000000E+00 -0.11913959636E+04  0.11913959636E+04  0.00000000000E+00 0. -1.
         -6    2    1    2    0  503 -0.15494704341E+03  0.15629023794E+03 -0.10104083134E+04  0.10483551242E+04  0.17230287838E+03 0.  0.
        -24    2    3    3    0    0 -0.46975242097E+02  0.13347770292E+03 -0.70246486174E+03  0.72120136669E+03  0.81557089075E+02 0.  0.
          6    2    1    2  501    0  0.15494704341E+03 -0.15629023794E+03 -0.40341267462E+02  0.28368722211E+03  0.17440125398E+03 0.  0.
         24    2    5    5    0    0  0.39390718280E+02 -0.41541734000E+02 -0.73909433673E+02  0.11734602091E+03  0.70923479091E+02 0.  0.
          5    1    5    5  501    0  0.11555632513E+03 -0.11474850394E+03  0.33568166211E+02  0.16634120120E+03  0.47000000000E+01 0. -1.
        -11    1    6    6    0    0  0.29838238953E+01 -0.42493516757E+02 -0.99503439512E+01  0.43744845595E+02  0.00000000000E+00 0.  1.
         12    1    6    6    0    0  0.36406894385E+02  0.95178275732E+00 -0.63959089722E+02  0.73601175311E+02  0.00000000000E+00 0. -1.
         -5    1    3    3    0  503 -0.10797180132E+03  0.22812535019E+02 -0.30794345167E+03  0.32715375752E+03  0.47000000000E+01 0.  1.
         13    1    4    4    0    0 -0.67306245132E+02  0.12332082473E+03 -0.59541775963E+03  0.61176830984E+03  0.00000000000E+00 0. -1.
        -14    1    4    4    0    0  0.20331003035E+02  0.10156878189E+02 -0.10704710211E+03  0.10943305684E+03  0.00000000000E+00 0.  1.
</event>
<event>
12    1  0.8113184E-002  0.1826074E+03  0.7818608E-02  0.1165337E+00
         21   -1    0    0  501  502  0.00000000000E+00  0.00000000000E+00  0.16391794914E+03  0.16391794914E+03  0.00000000000E+00 0.  1.
         21   -1    0    0  502  503 -0.00000000000E+00 -0.00000000000E+00 -0.27321437574E+03  0.27321437574E+03  0.00000000000E+00 0.  1.
         -6    2    1    2    0  503  0.64660552861E+02 -0.23274944126E+02 -0.16522057306E+03  0.24615337285E+03  0.16902939118E+03 0.  0.
        -24    2    3    3    0    0  0.78134501512E+02 -0.19646952234E+02 -0.18725131093E+03  0.21965520257E+03  0.81819016812E+02 0.  0.
          6    2    1    2  501    0 -0.64660552861E+02  0.23274944126E+02  0.55924146465E+02  0.19097895203E+03  0.16918256365E+03 0.  0.
         24    2    5    5    0    0 -0.74159603274E+02 -0.13094806366E+02  0.87265314404E+02  0.14181240327E+03  0.82609938332E+02 0.  0.
          5    1    5    5  501    0  0.94990504133E+01  0.36369750492E+02 -0.31341167940E+02  0.49166548765E+02  0.47000000000E+01 0. -1.
        -13    1    6    6    0    0 -0.46673446955E+02  0.25238306715E+02  0.14343347053E+02  0.54964664842E+02  0.00000000000E+00 0.  1.
         14    1    6    6    0    0 -0.27486156320E+02 -0.38333113080E+02  0.72921967351E+02  0.86847738427E+02  0.00000000000E+00 0. -1.
         -5    1    3    3    0  503 -0.13473948651E+02 -0.36279918921E+01  0.22030737865E+02  0.26498170282E+02  0.47000000000E+01 0.  1.
         13    1    4    4    0    0 -0.26912689609E+01  0.95854963138E+01  0.34038442422E+01  0.10521921109E+02  0.00000000000E+00 0. -1.
        -14    1    4    4    0    0  0.80825770473E+02 -0.29232448548E+02 -0.19065515517E+03  0.20913328146E+03  0.00000000000E+00 0.  1.
</event>
<event>
12    1  0.8113184E-002  0.2142103E+03  0.7818608E-02  0.1139101E+00
         21   -1    0    0  503  502  0.00000000000E+00  0.00000000000E+00  0.21938989769E+03  0.21938989769E+03  0.00000000000E+00 0. -1.
         21   -1    0    0  501  503 -0.00000000000E+00 -0.00000000000E+00 -0.30542796901E+03  0.30542796901E+03  0.00000000000E+00 0. -1.
          6    2    1    2  501    0  0.11881415660E+03  0.16171261102E+02  0.10713147363E+03  0.23950613137E+03  0.17750414313E+03 0.  0.
         24    2    3    3    0    0  0.94050612680E+02 -0.47621830255E+02  0.10758524598E+03  0.17091249084E+03  0.80765945232E+02 0.  0.
         -6    2    1    2    0  502 -0.11881415660E+03 -0.16171261102E+02 -0.19316954495E+03  0.28531173534E+03  0.17236588912E+03 0.  0.
        -24    2    5    5    0    0 -0.15143173329E+03 -0.10709096067E+02 -0.17526846230E+03  0.24741344624E+03  0.86302519755E+02 0.  0.
          5    1    3    3  501    0  0.24763543917E+02  0.63793091357E+02 -0.45377234649E+00  0.68593640533E+02  0.47000000000E+01 0. -1.
        -11    1    4    4    0    0 -0.82868751929E+01 -0.16075477045E+02 -0.13733515326E+01  0.18137788099E+02  0.00000000000E+00 0.  1.
         12    1    4    4    0    0  0.10233748787E+03 -0.31546353211E+02  0.10895859751E+03  0.15277470274E+03  0.00000000000E+00 0. -1.
         -5    1    5    5    0  502  0.32617576698E+02 -0.54621650356E+01 -0.17901082654E+02  0.37898289100E+02  0.47000000000E+01 0.  1.
         13    1    6    6    0    0 -0.76565326324E+02 -0.25693795233E+02 -0.35645709299E+02  0.88278179070E+02  0.00000000000E+00 0. -1.
        -14    1    6    6    0    0 -0.74866406971E+02  0.14984699166E+02 -0.13962275300E+03  0.15913526717E+03  0.00000000000E+00 0.  1.
</event>
<event>
12    1  0.8113184E-002  0.1841701E+03  0.7818608E-02  0.1164427E+00
         21   -1    0    0  503  502  0.00000000000E+00  0.00000000000E+00  0.10218122193E+04  0.10218122193E+04  0.00000000000E+00 0. -1.
         21   -1    0    0  501  503 -0.00000000000E+00 -0.00000000000E+00 -0.37801728372E+02  0.37801728372E+02  0.00000000000E+00 0. -1.
          6    2    1    2  501    0 -0.56068165739E+02 -0.12427704297E+02  0.30107803950E+03  0.35293996267E+03  0.17498726908E+03 0.  0.
         24    2    3    3    0    0 -0.40253418152E+02 -0.51595353651E+01  0.53474954967E+02  0.10468140796E+03  0.80322275149E+02 0.  0.
         -6    2    1    2    0  502  0.56068165739E+02  0.12427704297E+02  0.68293245140E+03  0.70667398496E+03  0.17231744198E+03 0.  0.
        -24    2    5    5    0    0 -0.18321360676E+02  0.47939303840E+02  0.43102593172E+03  0.44158181232E+03  0.81100518160E+02 0.  0.
          5    1    3    3  501    0 -0.15814747587E+02 -0.72681689319E+01  0.24760308453E+03  0.24825855472E+03  0.47000000000E+01 0. -1.
        -11    1    4    4    0    0  0.16987208009E+02  0.20536971222E+02  0.21596157376E+02  0.34303446421E+02  0.00000000000E+00 0.  1.
         12    1    4    4    0    0 -0.57240626161E+02 -0.25696506587E+02  0.31878797590E+02  0.70377961536E+02  0.00000000000E+00 0. -1.
         -5    1    5    5    0  502  0.74389526415E+02 -0.35511599543E+02  0.25190651968E+03  0.26509217265E+03  0.47000000000E+01 0.  1.
         13    1    6    6    0    0  0.13473710545E+02  0.37734775926E+02  0.36872933724E+03  0.37089995731E+03  0.00000000000E+00 0. -1.
        -14    1    6    6    0    0 -0.31795071221E+02  0.10204527914E+02  0.62296594482E+02  0.70681855012E+02  0.00000000000E+00 0.  1.
</event>
<event>
12    1  0.8113184E-002  0.2281542E+03  0.7818608E-02  0.1131069E+00
         21   -1    0    0  501  502  0.00000000000E+00  0.00000000000E+00  0.10420709513E+03  0.10420709513E+03  0.00000000000E+00 0.  1.
         21   -1    0    0  502  503 -0.00000000000E+00 -0.00000000000E+00 -0.46330158063E+03  0.46330158063E+03  0.00000000000E+00 0. -1.
         -6    2    1    2    0  503  0.12361719986E+03 -0.87237039999E+01 -0.18550806210E+03  0.29405366994E+03  0.19156462248E+03 0.  0.
        -24    2    3    3    0    0  0.59022564334E+01 -0.45558561577E+02 -0.13306236926E+03  0.15994082440E+03  0.75927952916E+02 0.  0.
          6    2    1    2  501    0 -0.12361719986E+03  0.87237039999E+01 -0.17358642340E+03  0.27345500583E+03  0.17113760169E+03 0.  0.
         24    2    5    5    0    0 -0.11306057092E+03  0.50872255031E+02 -0.74173976914E+02  0.16486003687E+03  0.79412680830E+02 0.  0.
          5    1    5    5  501    0 -0.10556628948E+02 -0.42148551031E+02 -0.99412446481E+02  0.10859496896E+03  0.47000000000E+01 0. -1.
        -11    1    6    6    0    0  0.54900692889E+01 -0.93208818705E+00  0.93380337965E+01  0.10872374367E+02  0.00000000000E+00 0.  1.
         12    1    6    6    0    0 -0.11855064021E+03  0.51804343218E+02 -0.83512010711E+02  0.15398766250E+03  0.00000000000E+00 0. -1.
         -5    1    3    3    0  503  0.11771494343E+03  0.36834857577E+02 -0.52445692846E+02  0.13411284554E+03  0.47000000000E+01 0.  1.
         11    1    4    4    0    0 -0.17414115589E+02 -0.33431463822E+02 -0.17738484211E+02  0.41660149030E+02  0.00000000000E+00 0. -1.
        -12    1    4    4    0    0  0.23316372023E+02 -0.12127097754E+02 -0.11532388505E+03  0.11828067537E+03  0.00000000000E+00 0.  1.
</event>
<event>
12    1  0.8113184E-002  0.2545631E+03  0.7818608E-02  0.1111028E+00
         21   -1    0    0  501  502  0.00000000000E+00  0.00000000000E+00  0.26126609374E+03  0.26126609374E+03  0.00000000000E+00 0.  1.
         21   -1    0    0  502  503 -0.00000000000E+00 -0.00000000000E+00 -0.27175637086E+03  0.27175637086E+03  0.00000000000E+00 0. -1.
         -6    2    1    2    0  503  0.18842179123E+03  0.95818406054E+01 -0.89685771614E+02  0.26642480901E+03  0.16536038869E+03 0.  0.
        -24    2    3    3    0    0  0.10684191682E+03  0.18546786439E+02 -0.11840147386E+03  0.17934824662E+03  0.79923126029E+02 0.  0.
          6    2    1    2  501    0 -0.18842179123E+03 -0.95818406054E+01  0.79195494493E+02  0.26659765560E+03  0.17090289799E+03 0.  0.
         24    2    5    5    0    0 -0.20931869102E+03  0.11468501843E+02  0.63805174844E+02  0.23285229626E+03  0.78760717299E+02 0.  0.
          5    1    5    5  501    0  0.20896899790E+02 -0.21050342449E+02  0.15390319649E+02  0.33745359339E+02  0.47000000000E+01 0. -1.
        -11    1    6    6    0    0 -0.67001542921E+02  0.40080645634E+02  0.13596657128E+02  0.79249820146E+02  0.00000000000E+00 0.  1.
         12    1    6    6    0    0 -0.14231714810E+03 -0.28612143790E+02  0.50208517716E+02  0.15360247611E+03  0.00000000000E+00 0. -1.
         -5    1    3    3    0  503  0.81579874409E+02 -0.89649458332E+01  0.28715702251E+02  0.87076562393E+02  0.47000000000E+01 0.  1.
         11    1    4    4    0    0  0.77319899413E+02  0.40383397741E+02 -0.47069873679E+02  0.99119920635E+02  0.00000000000E+00 0. -1.
        -12    1    4    4    0    0  0.29522017409E+02 -0.21836611303E+02 -0.71331600186E+02  0.80228325983E+02  0.00000000000E+00 0.  1.
</event>
<event>
12    1  0.8113184E-002  0.2439855E+03  0.7818608E-02  0.1117193E+00
         21   -1    0    0  503  502  0.00000000000E+00  0.00000000000E+00  0.61307783141E+03  0.61307783141E+03  0.00000000000E+00 0. -1.
         21   -1    0    0  501  503 -0.00000000000E+00 -0.00000000000E+00 -0.11817966964E+03  0.11817966964E+03  0.00000000000E+00 0.  1.
          6    2    1    2  501    0 -0.52315327469E+02 -0.16413172371E+03  0.92853140905E+02  0.26105672684E+03  0.17277960712E+03 0.  0.
         24    2    3    3    0    0 -0.70537960523E+02 -0.10882594794E+03  0.26566558249E+00  0.15157922332E+03  0.78469736502E+02 0.  0.
         -6    2    1    2    0  502  0.52315327469E+02  0.16413172371E+03  0.40204502086E+03  0.47020077421E+03  0.17254695897E+03 0.  0.
        -24    2    5    5    0    0  0.94659490160E+02  0.14076693813E+03  0.27371362812E+03  0.33297840839E+03  0.84733230105E+02 0.  0.
          5    1    3    3  501    0  0.18222633054E+02 -0.55305775778E+02  0.92587475323E+02  0.10947750352E+03  0.47000000000E+01 0. -1.
        -13    1    4    4    0    0  0.15418812798E+02 -0.31425878242E+02  0.70648711965E+01  0.35710474884E+02  0.00000000000E+00 0.  1.
         14    1    4    4    0    0 -0.85956773321E+02 -0.77400069694E+02 -0.67992056140E+01  0.11586874844E+03  0.00000000000E+00 0. -1.
         -5    1    5    5    0  502 -0.42344162692E+02  0.23364785583E+02  0.12833139273E+03  0.13722236582E+03  0.47000000000E+01 0.  1.
         13    1    6    6    0    0  0.86582756388E+02  0.10640635213E+03  0.26208253577E+03  0.29581436921E+03  0.00000000000E+00 0. -1.
        -14    1    6    6    0    0  0.80767337728E+01  0.34360585998E+02  0.11631092357E+02  0.37164039178E+02  0.00000000000E+00 0.  1.
</event>
<event>
12    1  0.8113184E-002  0.2616624E+03  0.7818608E-02  0.1106310E+00
         21   -1    0    0  501  502  0.00000000000E+00  0.00000000000E+00  0.63327569061E+03  0.63327569061E+03  0.00000000000E+00 0. -1.
         21   -1    0    0  502  503 -0.00000000000E+00 -0.00000000000E+00 -0.11090048660E+03  0.11090048660E+03  0.00000000000E+00 0.  1.
         -6    2    1    2    0  503  0.17057479680E+03  0.96139157357E+02  0.19715923846E+03  0.32676433925E+03  0.17194379669E+03 0.  0.
        -24    2    3    3    0    0  0.16047134626E+03  0.57252923664E+02  0.21244361950E+03  0.28352175391E+03  0.78888169179E+02 0.  0.
          6    2    1    2  501    0 -0.17057479680E+03 -0.96139157357E+02  0.32521596555E+03  0.41741183795E+03  0.17357626375E+03 0.  0.
         24    2    5    5    0    0 -0.18158412596E+03 -0.67227553348E+02  0.32447815159E+03  0.38611135003E+03  0.79394993762E+02 0.  0.
          5    1    5    5  501    0  0.11009329157E+02 -0.28911604008E+02  0.73781395671E+00  0.31300487924E+02  0.47000000000E+01 0. -1.
        -13    1    6    6    0    0  0.20853728324E+01 -0.10497721851E+02  0.49241733610E+02  0.50391460317E+02  0.00000000000E+00 0.  1.
         14    1    6    6    0    0 -0.18366949879E+03 -0.56729831498E+02  0.27523641798E+03  0.33571988971E+03  0.00000000000E+00 0. -1.
         -5    1    3    3    0  503  0.10103450538E+02  0.38886233692E+02 -0.15284381038E+02  0.43242585344E+02  0.47000000000E+01 0.  1.
         13    1    4    4    0    0  0.47863380580E+02  0.53349350244E+02  0.10968056794E+03  0.13102245363E+03  0.00000000000E+00 0. -1.
        -14    1    4    4    0    0  0.11260796568E+03  0.39035734208E+01  0.10276305156E+03  0.15249930028E+03  0.00000000000E+00 0.  1.
</event>
<event>
12    1  0.8113184E-002  0.2195383E+03  0.7818608E-02  0.1134461E+00
         21   -1    0    0  501  502  0.00000000000E+00  0.00000000000E+00  0.63282275761E+02  0.63282275761E+02  0.00000000000E+00 0.  1.
         21   -1    0    0  502  503 -0.00000000000E+00 -0.00000000000E+00 -0.75839333409E+03  0.75839333409E+03  0.00000000000E+00 0.  1.
         -6    2    1    2    0  503  0.12696822869E+03 -0.47396887699E+02 -0.33300611005E+03  0.39886106752E+03  0.17271272622E+03 0.  0.
        -24    2    3    3    0    0  0.82141365633E+02  0.39182580390E+02 -0.19739007521E+03  0.23177052066E+03  0.80450319471E+02 0.  0.
          6    2    1    2  501    0 -0.12696822869E+03  0.47396887699E+02 -0.36210494829E+03  0.42281454233E+03  0.17112786907E+03 0.  0.
         24    2    5    5    0    0 -0.64159747174E+02  0.62674275248E+02 -0.11160345348E+03  0.16406487021E+03  0.80108756539E+02 0.  0.
          5    1    5    5  501    0 -0.62808481512E+02 -0.15277387549E+02 -0.25050149481E+03  0.25874967212E+03  0.47000000000E+01 0. -1.
        -13    1    6    6    0    0 -0.43808491864E+02  0.48878538706E+02 -0.12107072773E+03  0.13771861391E+03  0.00000000000E+00 0.  1.
         14    1    6    6    0    0 -0.20351255310E+02  0.13795736542E+02  0.94672742469E+01  0.26346256301E+02  0.00000000000E+00 0. -1.
         -5    1    3    3    0  503  0.44826863054E+02 -0.86579468089E+02 -0.13561603484E+03  0.16709054686E+03  0.47000000000E+01 0.  1.
         11    1    4    4    0    0  0.25826014857E+02  0.22851893618E+02 -0.10726822138E+02  0.36114495684E+02  0.00000000000E+00 0. -1.
        -12    1    4    4    0    0  0.56315350775E+02  0.16330686773E+02 -0.18666325307E+03  0.19565602498E+03  0.00000000000E+00 0.  1.
</event>
<event>
12    1  0.8113184E-002  0.1892743E+03  0.7818608E-02  0.1159806E+00
         21   -1    0    0  503  502  0.00000000000E+00  0.00000000000E+00  0.10314107815E+04  0.10314107815E+04  0.00000000000E+00 0.  1.
         21   -1    0    0  501  503 -0.00000000000E+00 -0.00000000000E+00 -0.35326485875E+02  0.35326485875E+02  0.00000000000E+00 0. -1.
          6    2    1    2  501    0 -0.49149220061E+02  0.48735302379E+02  0.59012512179E+03  0.61882254969E+03  0.17292458791E+03 0.  0.
         24    2    3    3    0    0 -0.92938269705E+02  0.51727369719E+02  0.33349091238E+03  0.35841970643E+03  0.77040603352E+02 0.  0.
         -6    2    1    2    0  502  0.49149220061E+02 -0.48735302379E+02  0.40595917378E+03  0.44791471764E+03  0.17616460475E+03 0.  0.
        -24    2    5    5    0    0  0.37983905666E+02  0.11109147378E+02  0.94467130201E+02  0.13049479761E+03  0.80862001402E+02 0.  0.
          5    1    3    3  501    0  0.43789049644E+02 -0.29920673403E+01  0.25663420941E+03  0.26040284325E+03  0.47000000000E+01 0. -1.
        -13    1    4    4    0    0 -0.74171928237E+02  0.22996224017E+01  0.23760717149E+03  0.24892555342E+03  0.00000000000E+00 0.  1.
         14    1    4    4    0    0 -0.18766341468E+02  0.49427747317E+02  0.95883740894E+02  0.10949415302E+03  0.00000000000E+00 0. -1.
         -5    1    5    5    0  502  0.11165314395E+02 -0.59844449757E+02  0.31149204358E+03  0.31741992002E+03  0.47000000000E+01 0.  1.
         13    1    6    6    0    0  0.58228633310E+02 -0.87576233553E+01  0.47617449072E+02  0.75727743662E+02  0.00000000000E+00 0. -1.
        -14    1    6    6    0    0 -0.20244727644E+02  0.19866770734E+02  0.46849681129E+02  0.54767053952E+02  0.00000000000E+00 0.  1.
</event>
<event>
12    1  0.8113184E-002  0.1818477E+03  0.7818608E-02  0.1166153E+00
         21   -1    0    0  501  502  0.00000000000E+00  0.00000000000E+00  0.38006526294E+02  0.38006526294E+02  0.00000000000E+00 0.  1.
         21   -1    0    0  502  503 -0.00000000000E+00 -0.00000000000E+00 -0.16436917934E+04  0.16436917934E+04  0.00000000000E+00 0. -1.
         -6    2    1    2    0  503 -0.56908663555E+01 -0.59658782101E+02 -0.13800276190E+04  0.13918881053E+04  0.17112776558E+03 0.  0.
        -24    2    3    3    0    0 -0.64648852003E+01 -0.23994057429E+02 -0.13187812814E+04  0.13208544826E+04  0.69677731811E+02 0.  0.
          6    2    1    2  501    0  0.56908663555E+01  0.59658782101E+02 -0.22565764806E+03  0.28981021438E+03  0.17168875906E+03 0.  0.
         24    2    5    5    0    0  0.61044129157E+02  0.52933000878E-01 -0.13267096102E+03  0.16617585461E+03  0.79287087531E+02 0.  0.
          5    1    5    5  501    0 -0.55353262801E+02  0.59605849100E+02 -0.92986687036E+02  0.12363435977E+03  0.47000000000E+01 0. -1.
        -13    1    6    6    0    0  0.26003043745E+02 -0.30457470227E+02 -0.10432903501E+03  0.11175134595E+03  0.00000000000E+00 0.  1.
         14    1    6    6    0    0  0.35041085412E+02  0.30510403227E+02 -0.28341926015E+02  0.54424508653E+02  0.00000000000E+00 0. -1.
         -5    1    3    3    0  503  0.77401884488E+00 -0.35664724671E+02 -0.61246337619E+02  0.71033622763E+02  0.47000000000E+01 0.  1.
         13    1    4    4    0    0  0.18512850695E+02 -0.19552726958E+02 -0.11362079376E+04  0.11365269518E+04  0.00000000000E+00 0. -1.
        -14    1    4    4    0    0 -0.24977735895E+02 -0.44413304717E+01 -0.18257334386E+03  0.18432753076E+03  0.00000000000E+00 0.  1.
</event>
<event>
12    1  0.8113184E-002  0.2668429E+03  0.7818608E-02  0.1103675E+00
         21   -1    0    0  503  502  0.00000000000E+00  0.00000000000E+00  0.15640747977E+04  0.15640747977E+04  0.00000000000E+00 0. -1.
         21   -1    0    0  501  503 -0.00000000000E+00 -0.00000000000E+00 -0.76552202932E+02  0.76552202932E+02  0.00000000000E+00 0. -1.
          6    2    1    2  501    0  0.18852220766E+03  0.66069590748E+02  0.12683494388E+04  0.12953126714E+04  0.17093508722E+03 0.  0.
         24    2    3    3    0    0  0.33721613365E+02  0.53733424183E+02  0.36674817734E+03  0.38042342687E+03  0.78697713073E+02 0.  0.
         -6    2    1    2    0  502 -0.18852220766E+03 -0.66069590748E+02  0.21917315596E+03  0.34531432927E+03  0.17691608210E+03 0.  0.
        -24    2    5    5    0    0 -0.17277875399E+03 -0.27651484037E+02  0.92686784773E+02  0.21210509779E+03  0.76030454683E+02 0.  0.
          5    1    3    3  501    0  0.15480059430E+03  0.12336166565E+02  0.90160126150E+03  0.91488924453E+03  0.47000000000E+01 0. -1.
        -11    1    4    4    0    0  0.25291339240E+01 -0.54771139055E+01 -0.14400405973E+01  0.62023392410E+01  0.00000000000E+00 0.  1.
         12    1    4    4    0    0  0.31192479441E+02  0.59210538089E+02  0.36818821794E+03  0.37422108763E+03  0.00000000000E+00 0. -1.
         -5    1    5    5    0  502 -0.15743453678E+02 -0.38418106711E+02  0.12648637118E+03  0.13320923148E+03  0.47000000000E+01 0.  1.
         13    1    6    6    0    0 -0.17902063755E+02 -0.13865908978E+02 -0.11041314192E+02  0.25192418255E+02  0.00000000000E+00 0. -1.
        -14    1    6    6    0    0 -0.15487669023E+03 -0.13785575059E+02  0.10372809897E+03  0.18691267954E+03  0.00000000000E+00 0.  1.
</event>
<event>
12    1  0.8113184E-002  0.1926958E+03  0.7818608E-02  0.1158292E+00
         21   -1    0    0  501  502  0.00000000000E+00  0.00000000000E+00  0.93589154725E+03  0.93589154725E+03  0.00000000000E+00 0.  1.
         21   -1    0    0  502  503 -0.00000000000E+00 -0.00000000000E+00 -0.52322572617E+02  0.52322572617E+02  0.00000000000E+00 0.  1.
         -6    2    1    2    0  503  0.97751903011E+01  0.76912169676E+02  0.17209027308E+03  0.25110245732E+03  0.16560901483E+03 0.  0.
        -24    2    3    3    0    0 -0.19224302053E+00  0.29708724650E+01  0.15617947460E+03  0.17467007761E+03  0.78158458820E+02 0.  0.
          6    2    1    2  501    0 -0.97751903011E+01 -0.76912169676E+02  0.71147870154E+03  0.73711166254E+03  0.17641038551E+03 0.  0.
         24    2    5    5    0    0  0.55328478847E+02 -0.80688057942E+02  0.46197290722E+03  0.47918148503E+03  0.81388729736E+02 0.  0.
          5    1    5    5  501    0 -0.65103669148E+02  0.37758882658E+01  0.24950579433E+03  0.25793017751E+03  0.47000000000E+01 0. -1.
        -11    1    6    6    0    0  0.17441198742E+02 -0.62992482558E+02  0.39393530596E+03  0.39932101567E+03  0.00000000000E+00 0.  1.
         12    1    6    6    0    0  0.37887280105E+02 -0.17695575384E+02  0.68037601252E+02  0.79860469358E+02  0.00000000000E+00 0. -1.
         -5    1    3    3    0  503  0.99674333217E+01  0.73941297211E+02  0.15910798489E+02  0.76432379715E+02  0.47000000000E+01 0.  1.
         13    1    4    4    0    0  0.35474234055E+02 -0.14711226829E+02  0.75988439423E+02  0.85141555086E+02  0.00000000000E+00 0. -1.
        -14    1    4    4    0    0 -0.35666477075E+02  0.17682099294E+02  0.80191035173E+02  0.89528522519E+02  0.00000000000E+00 0.  1.
</event>
<event>
12    1  0.8113184E-002  0.1917664E+03  0.7818608E-02  0.1156910E+00
         21   -1    0    0  503  502  0.00000000000E+00  0.00000000000E+00  0.15295225339E+03  0.15295225339E+03  0.00000000000E+00 0.  1.
         21   -1    0    0  501  503 -0.00000000000E+00 -0.00000000000E+00 -0.31641628755E+03  0.31641628755E+03  0.00000000000E+00 0.  1.
          6    2    1    2  501    0  0.26729862940E+01  0.86728865875E+02  0.33387994428E+02  0.19465123273E+03  0.17101258199E+03 0.  0.
         24    2    3    3    0    0 -0.15272787848E+02  0.62324239881E+02  0.86083494067E+02  0.13368778252E+03  0.79652283821E+02 0.  0.
         -6    2    1    2    0  502 -0.26729862940E+01 -0.86728865875E+02 -0.19685202859E+03  0.27471730821E+03  0.17085033580E+03 0.  0.
        -24    2    5    5    0    0  0.60802411003E+02 -0.61492637779E+02 -0.94099461915E+02  0.15124191298E+03  0.80877251587E+02 0.  0.
          5    1    3    3  501    0  0.17945774142E+02  0.24404625994E+02 -0.52695499640E+02  0.60963450212E+02  0.47000000000E+01 0. -1.
        -11    1    4    4    0    0 -0.42279467440E+02  0.38735139949E+02  0.78205310735E+02  0.96974404154E+02  0.00000000000E+00 0.  1.
         12    1    4    4    0    0  0.27006679592E+02  0.23589099933E+02  0.78781833328E+01  0.36713378363E+02  0.00000000000E+00 0. -1.
         -5    1    5    5    0  502 -0.63475397297E+02 -0.25236228096E+02 -0.10275256667E+03  0.12347539523E+03  0.47000000000E+01 0.  1.
         11    1    6    6    0    0  0.46164902310E+02 -0.70715820806E+01 -0.80819069542E+02  0.93343063374E+02  0.00000000000E+00 0. -1.
        -12    1    6    6    0    0  0.14637508693E+02 -0.54421055698E+02 -0.13280392373E+02  0.57898849605E+02  0.00000000000E+00 0.  1.
</event>
<event>
12    1  0.8113184E-002  0.1746064E+03  0.7818608E-02  0.1173734E+00
         21   -1    0    0  503  502  0.00000000000E+00  0.00000000000E+00  0.21527452669E+02  0.21527452669E+02  0.00000000000E+00 0. -1.
         21   -1    0    0  501  503 -0.00000000000E+00 -0.00000000000E+00 -0.15131779859E+04  0.15131779859E+04  0.00000000000E+00 0. -1.
          6    2    1    2  501    0  0.16231199173E+02 -0.19558199036E+02 -0.96331330289E+03  0.97900965648E+03  0.17274667285E+03 0.  0.
         24    2    3    3    0    0 -0.53792935735E+02 -0.18126937877E+02 -0.67151547546E+03  0.67888719802E+03  0.82051983788E+02 0.  0.
         -6    2    1    2    0  502 -0.16231199173E+02  0.19558199036E+02 -0.52833723037E+03  0.55569578212E+03  0.17032791402E+03 0.  0.
        -24    2    5    5    0    0 -0.60343703686E+02 -0.22446313345E+02 -0.39906954599E+03  0.41271845406E+03  0.83275567994E+02 0.  0.
          5    1    3    3  501    0  0.70024134908E+02 -0.14312611591E+01 -0.29179782742E+03  0.30012245845E+03  0.47000000000E+01 0. -1.
        -11    1    4    4    0    0 -0.40228940484E+02  0.29588810799E+02 -0.31389397376E+03  0.31784161486E+03  0.00000000000E+00 0.  1.
         12    1    4    4    0    0 -0.13563995251E+02 -0.47715748676E+02 -0.35762150170E+03  0.36104558316E+03  0.00000000000E+00 0. -1.
         -5    1    5    5    0  502  0.44112504512E+02  0.42004512381E+02 -0.12926768438E+03  0.14297732806E+03  0.47000000000E+01 0.  1.
         13    1    6    6    0    0 -0.12564674370E+02  0.31066029243E+02 -0.13003942134E+03  0.13428782640E+03  0.00000000000E+00 0. -1.
        -14    1    6    6    0    0 -0.47779029316E+02 -0.53512342588E+02 -0.26903012465E+03  0.27843062766E+03  0.00000000000E+00 0.  1.
</event>
<event>
12    1  0.8113184E-002  0.2166087E+03  0.7818608E-02  0.1136590E+00
         21   -1    0    0  503  502  0.00000000000E+00  0.00000000000E+00  0.13867474785E+04  0.13867474785E+04  0.00000000000E+00 0. -1.
         21   -1    0    0  501  503 -0.00000000000E+00 -0.00000000000E+00 -0.54595162454E+02  0.54595162454E+02  0.00000000000E+00 0. -1.
          6    2    1    2  501    0  0.16063689872E+02 -0.13081296088E+03  0.21955806417E+03  0.30785894820E+03  0.17088392429E+03 0.  0.
         24    2    3    3    0    0  0.72063336985E+02 -0.59367731557E+02  0.14357943690E+03  0.18938860140E+03  0.80841422254E+02 0.  0.
         -6    2    1    2    0  502 -0.16063689872E+02  0.13081296088E+03  0.11125942519E+04  0.11334836927E+04  0.17189892252E+03 0.  0.
        -24    2    5    5    0    0 -0.16581758117E+02  0.11246764785E+03  0.46199702933E+03  0.48261069832E+03  0.80919123216E+02 0.  0.
          5    1    3    3  501    0 -0.55999647113E+02 -0.71445229321E+02  0.75978627276E+02  0.11847034681E+03  0.47000000000E+01 0. -1.
        -11    1    4    4    0    0  0.23933524894E+02 -0.32900842433E+00 -0.30750179825E+01  0.24132500823E+02  0.00000000000E+00 0.  1.
         12    1    4    4    0    0  0.48129812091E+02 -0.59038723133E+02  0.14665445488E+03  0.16525610057E+03  0.00000000000E+00 0. -1.
         -5    1    5    5    0  502  0.51806824544E+00  0.18345313023E+02  0.65059722253E+03  0.65087299442E+03  0.47000000000E+01 0.  1.
         13    1    6    6    0    0  0.63291584881E-01 -0.68118828631E+01  0.11696762196E+03  0.11716582411E+03  0.00000000000E+00 0. -1.
        -14    1    6    6    0    0 -0.16645049702E+02  0.11927953072E+03  0.34502940738E+03  0.36544487420E+03  0.00000000000E+00 0.  1.
</event>
<event>
12    1  0.8113184E-002  0.1965832E+03  0.7818608E-02  0.1153161E+00
         21   -1    0    0  503  502  0.00000000000E+00  0.00000000000E+00  0.23296370736E+03  0.23296370736E+03  0.00000000000E+00 0.  1.
         21   -1    0    0  501  503 -0.00000000000E+00 -0.00000000000E+00 -0.23200101460E+03  0.23200101460E+03  0.00000000000E+00 0. -1.
          6    2    1    2  501    0  0.75621200281E+02  0.48325780711E+02 -0.12545918752E+03  0.23123957500E+03  0.17227241886E+03 0.  0.
         24    2    3    3    0    0 -0.11849845834E+02  0.63585662156E+02 -0.89579992059E+02  0.13535707108E+03  0.78188275571E+02 0.  0.
         -6    2    1    2    0  502 -0.75621200281E+02 -0.48325780711E+02  0.12642188028E+03  0.23372514696E+03  0.17490284588E+03 0.  0.
        -24    2    5    5    0    0 -0.76287406333E+02 -0.23965347880E+02  0.15851995268E+03  0.19315113101E+03  0.76057069012E+02 0.  0.
          5    1    3    3  501    0  0.87471046115E+02 -0.15259881445E+02 -0.35879195460E+02  0.95882503915E+02  0.47000000000E+01 0. -1.
        -11    1    4    4    0    0  0.19236195617E+02  0.18253366184E+02  0.40096070529E+01  0.26819648536E+02  0.00000000000E+00 0.  1.
         12    1    4    4    0    0 -0.31086041451E+02  0.45332295972E+02 -0.93589599112E+02  0.10853742255E+03  0.00000000000E+00 0. -1.
         -5    1    5    5    0  502  0.66620605218E+00 -0.24360432831E+02 -0.32098072409E+02  0.40574015953E+02  0.47000000000E+01 0.  1.
         11    1    6    6    0    0  0.10468616111E+02  0.12445509645E+02  0.22564290642E+02  0.27814202232E+02  0.00000000000E+00 0. -1.
        -12    1    6    6    0    0 -0.86756022444E+02 -0.36410857525E+02  0.13595566204E+03  0.16533692878E+03  0.00000000000E+00 0.  1.
</event>
<event>
12    1  0.8113184E-002  0.2425666E+03  0.7818608E-02  0.1119061E+00
         21   -1    0    0  503  502  0.00000000000E+00  0.00000000000E+00  0.64113415097E+02  0.64113415097E+02  0.00000000000E+00 0. -1.
         21   -1    0    0  501  503 -0.00000000000E+00 -0.00000000000E+00 -0.12875009486E+04  0.12875009486E+04  0.00000000000E+00 0. -1.
          6    2    1    2  501    0 -0.13967329690E+03 -0.10039330157E+03 -0.98954190505E+03  0.10188384306E+04  0.17102959102E+03 0.  0.
         24    2    3    3    0    0 -0.10209939302E+03 -0.13804795068E+03 -0.74921952561E+03  0.77265433911E+03  0.78634009561E+02 0.  0.
         -6    2    1    2    0  502  0.13967329690E+03  0.10039330157E+03 -0.23384562849E+03  0.33277593311E+03  0.16269172944E+03 0.  0.
        -24    2    5    5    0    0  0.12865843776E+03  0.48594214565E+02 -0.22979773215E+03  0.27945663078E+03  0.79841214217E+02 0.  0.
          5    1    3    3  501    0 -0.37573903871E+02  0.37654649112E+02 -0.24032237945E+03  0.24618409152E+03  0.47000000000E+01 0. -1.
        -11    1    4    4    0    0 -0.26094805513E+02 -0.83596078399E+02 -0.47303532349E+03  0.48107344602E+03  0.00000000000E+00 0.  1.
         12    1    4    4    0    0 -0.76004587512E+02 -0.54451872280E+02 -0.27618420211E+03  0.29158089309E+03  0.00000000000E+00 0. -1.
         -5    1    5    5    0  502  0.11014859138E+02  0.51799087002E+02 -0.40478963337E+01  0.53319302328E+02  0.47000000000E+01 0.  1.
         11    1    6    6    0    0  0.44815193437E+02  0.50322563551E+02 -0.60642506976E+02  0.90654705435E+02  0.00000000000E+00 0. -1.
        -12    1    6    6    0    0  0.83843244320E+02 -0.17283489866E+01 -0.16915522518E+03  0.18880192534E+03  0.00000000000E+00 0.  1.
</event>
<event>
12    1  0.8113184E-002  0.1825052E+03  0.7818608E-02  0.1165683E+00
         21   -1    0    0  501  502  0.00000000000E+00  0.00000000000E+00  0.34327252138E+03  0.34327252138E+03  0.00000000000E+00 0.  1.
         21   -1    0    0  502  503 -0.00000000000E+00 -0.00000000000E+00 -0.97954424834E+02  0.97954424834E+02  0.00000000000E+00 0. -1.
         -6    2    1    2    0  503 -0.19863688818E+02  0.54826169992E+02  0.94497361022E+02  0.20446748757E+03  0.17168787722E+03 0.  0.
        -24    2    3    3    0    0 -0.82931051664E+01  0.10444946310E+02 -0.12697258169E+02  0.87778380086E+02  0.85825119568E+02 0.  0.
          6    2    1    2  501    0  0.19863688818E+02 -0.54826169992E+02  0.15082073552E+03  0.23675945864E+03  0.17293834723E+03 0.  0.
         24    2    5    5    0    0  0.59144067910E+02 -0.41344324957E+02  0.34672490546E+02  0.11332035164E+03  0.80199417205E+02 0.  0.
          5    1    5    5  501    0 -0.39280379092E+02 -0.13481845035E+02  0.11614824497E+03  0.12343910700E+03  0.47000000000E+01 0. -1.
        -13    1    6    6    0    0 -0.15441064227E+02 -0.25681598729E+02  0.19094235044E+02  0.35532531428E+02  0.00000000000E+00 0.  1.
         14    1    6    6    0    0  0.74585132137E+02 -0.15662726228E+02  0.15578255502E+02  0.77787820212E+02  0.00000000000E+00 0. -1.
         -5    1    3    3    0  503 -0.11570583651E+02  0.44381223682E+02  0.10719461919E+03  0.11668910748E+03  0.47000000000E+01 0.  1.
         13    1    4    4    0    0 -0.44130090832E+02  0.21849909881E+02 -0.76199783152E+01  0.49829183700E+02  0.00000000000E+00 0. -1.
        -14    1    4    4    0    0  0.35836985666E+02 -0.11404963571E+02 -0.50772798539E+01  0.37949196386E+02  0.00000000000E+00 0.  1.
</event>
<event>
12    1  0.8113184E-002  0.1818255E+03  0.7818608E-02  0.1166493E+00
         21   -1    0    0  501  502  0.00000000000E+00  0.00000000000E+00  0.37001278996E+03  0.37001278996E+03  0.00000000000E+00 0.  1.
         21   -1    0    0  502  503 -0.00000000000E+00 -0.00000000000E+00 -0.88665367995E+02  0.88665367995E+02  0.00000000000E+00 0.  1.
         -6    2    1    2    0  503 -0.12455691453E+02  0.53396191221E+02  0.12985250074E+03  0.22343276438E+03  0.17336156080E+03 0.  0.
        -24    2    3    3    0    0 -0.18100532238E+02 -0.28882511952E+02  0.10613505759E+03  0.13748943228E+03  0.80478971013E+02 0.  0.
          6    2    1    2  501    0  0.12455691453E+02 -0.53396191221E+02  0.15149492122E+03  0.23524539357E+03  0.17141582936E+03 0.  0.
         24    2    5    5    0    0  0.15929036317E+02 -0.17622123256E+02  0.17467314560E+03  0.19222018992E+03  0.76639547197E+02 0.  0.
          5    1    5    5  501    0 -0.34733448645E+01 -0.35774067965E+02 -0.23178224381E+02  0.43025203646E+02  0.47000000000E+01 0. -1.
        -13    1    6    6    0    0  0.13678935603E+02 -0.47146129731E+02  0.12629333246E+03  0.13549862232E+03  0.00000000000E+00 0.  1.
         14    1    6    6    0    0  0.22501007143E+01  0.29524006475E+02  0.48379813139E+02  0.56721567599E+02  0.00000000000E+00 0. -1.
         -5    1    3    3    0  503  0.56448407855E+01  0.82278703173E+02  0.23717443159E+02  0.85943332105E+02  0.47000000000E+01 0.  1.
         13    1    4    4    0    0  0.22751503717E+02 -0.32748185296E+02  0.78408623955E+02  0.87965827866E+02  0.00000000000E+00 0. -1.
        -14    1    4    4    0    0 -0.40852035955E+02  0.38656733437E+01  0.27726433630E+02  0.49523604412E+02  0.00000000000E+00 0.  1.
</event>
<event>
12    1  0.8113184E-002  0.1776684E+03  0.7818608E-02  0.1170290E+00
         21   -1    0    0  501  502  0.00000000000E+00  0.00000000000E+00  0.79676638395E+03  0.79676638395E+03  0.00000000000E+00 0.  1.
         21   -1    0    0  502  503 -0.00000000000E+00 -0.00000000000E+00 -0.32981750260E+03  0.32981750260E+03  0.00000000000E+00 0.  1.
         -6    2    1    2    0  503  0.65841385886E+01  0.43403642344E+02 -0.29514532052E+03  0.34405360585E+03  0.17127433089E+03 0.  0.
        -24    2    3    3    0    0 -0.49540414163E+02  0.39243154426E+02 -0.10587685545E+03  0.14653925965E+03  0.79180605549E+02 0.  0.
          6    2    1    2  501    0 -0.65841385886E+01 -0.43403642344E+02  0.76209420188E+03  0.78253028070E+03  0.17215934664E+03 0.  0.
         24    2    5    5    0    0 -0.25374129116E+02 -0.64016959692E+02  0.73754406922E+03  0.74507668796E+03  0.80162331167E+02 0.  0.
          5    1    5    5  501    0  0.18789990527E+02  0.20613317348E+02  0.24550132653E+02  0.37453592744E+02  0.47000000000E+01 0. -1.
        -13    1    6    6    0    0  0.17597104220E+02 -0.55018045655E+02  0.31450915249E+03  0.31976968341E+03  0.00000000000E+00 0.  1.
         14    1    6    6    0    0 -0.42971233336E+02 -0.89989140367E+01  0.42303491673E+03  0.42530700455E+03  0.00000000000E+00 0. -1.
         -5    1    3    3    0  503  0.56124552752E+02  0.41604879178E+01 -0.18926846507E+03  0.19751434619E+03  0.47000000000E+01 0.  1.
         13    1    4    4    0    0 -0.66383371839E+02  0.11498749973E+02 -0.82637695963E+02  0.10662064576E+03  0.00000000000E+00 0. -1.
        -14    1    4    4    0    0  0.16842957676E+02  0.27744404453E+02 -0.23239159486E+02  0.39918613896E+02  0.00000000000E+00 0.  1.
</event>
<event>
12    1  0.8113184E-002  0.2014639E+03  0.7818608E-02  0.1150339E+00
         21   -1    0    0  501  502  0.00000000000E+00  0.00000000000E+00  0.48538450059E+03  0.48538450059E+03  0.00000000000E+00 0. -1.
         21   -1    0    0  502  503 -0.00000000000E+00 -0.00000000000E+00 -0.87917996703E+02  0.87917996703E+02  0.00000000000E+00 0. -1.
         -6    2    1    2    0  503 -0.94385318295E+02 -0.48168323493E+02  0.11723620334E+03  0.23309235573E+03  0.17134451620E+03 0.  0.
        -24    2    3    3    0    0 -0.56800839964E+02 -0.71504874417E+02  0.14523466660E+02  0.12115851860E+03  0.78289035366E+02 0.  0.
          6    2    1    2  501    0  0.94385318295E+02  0.48168323493E+02  0.28023030055E+03  0.34021014156E+03  0.16119907995E+03 0.  0.
         24    2    5    5    0    0  0.75812557563E+02 -0.98270632814E+01  0.24733355453E+03  0.27083652823E+03  0.79589087004E+02 0.  0.
          5    1    5    5  501    0  0.18572760732E+02  0.57995386775E+02  0.32896746028E+02  0.69373613338E+02  0.47000000000E+01 0. -1.
        -11    1    6    6    0    0  0.14279563811E+02 -0.20143410577E+02  0.12152087458E+02  0.27519741312E+02  0.00000000000E+00 0.  1.
         12    1    6    6    0    0  0.61532993752E+02  0.10316347296E+02  0.23518146707E+03  0.24331678691E+03  0.00000000000E+00 0. -1.
         -5    1    3    3    0  503 -0.37584478331E+02  0.23336550924E+02  0.10271273668E+03  0.11193383714E+03  0.47000000000E+01 0.  1.
         11    1    4    4    0    0 -0.13909210450E+01 -0.64404576631E+02  0.81529060412E+01  0.64933458473E+02  0.00000000000E+00 0. -1.
        -12    1    4    4    0    0 -0.55409918919E+02 -0.71002977863E+01  0.63705606193E+01  0.56225060123E+02  0.00000000000E+00 0.  1.
</event>
<event>
12    1  0.8113184E-002  0.2527576E+03  0.7818608E-02  0.1111964E+00
         21   -1    0    0  503  502  0.00000000000E+00  0.00000000000E+00  0.15427055924E+04  0.15427055924E+04  0.00000000000E+00 0.  1.
         21   -1    0    0  501  503 -0.00000000000E+00 -0.00000000000E+00 -0.86855017070E+02  0.86855017070E+02  0.00000000000E+00 0.  1.
          6    2    1    2  501    0 -0.18301545296E+03 -0.24686617415E+02  0.13423866453E+03  0.28399588103E+03  0.16890694563E+03 0.  0.
         24    2    3    3    0    0 -0.13116186475E+03  0.35850007807E+02  0.44289702559E+02  0.16371960172E+03  0.79711181212E+02 0.  0.
         -6    2    1    2    0  502  0.18301545296E+03  0.24686617415E+02  0.13216119108E+04  0.13455647284E+04  0.17257552135E+03 0.  0.
        -24    2    5    5    0    0  0.19381278154E+02 -0.15403406497E+02  0.37196221144E+03  0.38107522893E+03  0.79054060555E+02 0.  0.
          5    1    3    3  501    0 -0.51853588210E+02 -0.60536625223E+02  0.89948961973E+02  0.12027627931E+03  0.47000000000E+01 0. -1.
        -13    1    4    4    0    0 -0.76672370395E+02 -0.17630120130E+02  0.76814022971E+01  0.79047311523E+02  0.00000000000E+00 0.  1.
         14    1    4    4    0    0 -0.54489494356E+02  0.53480127937E+02  0.36608300262E+02  0.84672290198E+02  0.00000000000E+00 0. -1.
         -5    1    5    5    0  502  0.16363417481E+03  0.40090023913E+02  0.94964969932E+03  0.96448949948E+03  0.47000000000E+01 0.  1.
         13    1    6    6    0    0 -0.87172575026E+01  0.23175581363E+02  0.52247594963E+02  0.57817898002E+02  0.00000000000E+00 0. -1.
        -14    1    6    6    0    0  0.28098535657E+02 -0.38578987860E+02  0.31971461648E+03  0.32325733093E+03  0.00000000000E+00 0.  1.
</event>
<event>
12    1  0.8113184E-002  0.1816152E+03  0.7818608E-02  0.1166727E+00
         21   -1    0    0  503  502  0.00000000000E+00  0.00000000000E+00  0.46093337764E+03  0.46093337764E+03  0.00000000000E+00 0. -1.
         21   -1    0    0  501  503 -0.00000000000E+00 -0.00000000000E+00 -0.90102402306E+02  0.90102402306E+02  0.00000000000E+00 0. -1.
          6    2    1    2  501    0 -0.50642574368E+02  0.41731248181E+01  0.58623630650E+02  0.19084234570E+03  0.17436165156E+03 0.  0.
         24    2    3    3    0    0 -0.14715992942E+02  0.69655494418E+02  0.38574718090E+02  0.11336519503E+03  0.79342360804E+02 0.  0.
         -6    2    1    2    0  502  0.50642574368E+02 -0.41731248181E+01  0.31220734468E+03  0.36019343424E+03  0.17228986821E+03 0.  0.
        -24    2    5    5    0    0  0.27017714412E+01  0.62866195533E+02  0.18218913473E+03  0.20618234381E+03  0.73203961461E+02 0.  0.
          5    1    3    3  501    0 -0.35926581426E+02 -0.65482369600E+02  0.20048912560E+02  0.77477150672E+02  0.47000000000E+01 0. -1.
        -11    1    4    4    0    0 -0.25094922440E+02  0.80559020290E+02  0.15461578056E+02  0.85782115142E+02  0.00000000000E+00 0.  1.
         12    1    4    4    0    0  0.10378929498E+02 -0.10903525871E+02  0.23113140034E+02  0.27583079889E+02  0.00000000000E+00 0. -1.
         -5    1    5    5    0  502  0.47940802927E+02 -0.67039320351E+02  0.13001820996E+03  0.15401109044E+03  0.47000000000E+01 0.  1.
         11    1    6    6    0    0 -0.13710309199E+01  0.73256714006E+02  0.18061613425E+03  0.19491181038E+03  0.00000000000E+00 0. -1.
        -12    1    6    6    0    0  0.40728023612E+01 -0.10390518473E+02  0.15730004769E+01  0.11270533426E+02  0.00000000000E+00 0.  1.
</event>
<event>
12    1  0.8113184E-002  0.1868422E+03  0.7818608E-02  0.1161434E+00
         21   -1    0    0  503  502  0.00000000000E+00  0.00000000000E+00  0.89249795133E+03  0.89249795133E+03  0.00000000000E+00 0.  1.
         21   -1    0    0  501  503 -0.00000000000E+00 -0.00000000000E+00 -0.42163129935E+02  0.42163129935E+02  0.00000000000E+00 0.  1.
          6    2    1    2  501    0  0.37540521628E+02  0.61032378346E+02  0.29821221960E+03  0.35190985554E+03  0.17255658939E+03 0.  0.
         24    2    3    3    0    0  0.73270714922E+02  0.25143411176E+02  0.27404038636E+03  0.29559793674E+03  0.79241517252E+02 0.  0.
         -6    2    1    2    0  502 -0.37540521628E+02 -0.61032378346E+02  0.55212260180E+03  0.58275122572E+03  0.17212025359E+03 0.  0.
        -24    2    5    5    0    0  0.24689262705E+02 -0.72589995503E+02  0.23774422647E+03  0.26203019828E+03  0.79111569626E+02 0.  0.
          5    1    3    3  501    0 -0.35730193294E+02  0.35888967170E+02  0.24171833234E+02  0.56311918802E+02  0.47000000000E+01 0. -1.
        -11    1    4    4    0    0  0.74538978810E+02  0.37080696451E+02  0.15490780247E+03  0.17586206151E+03  0.00000000000E+00 0.  1.
         12    1    4    4    0    0 -0.12682638881E+01 -0.11937285274E+02  0.11913258389E+03  0.11973587523E+03  0.00000000000E+00 0. -1.
         -5    1    5    5    0  502 -0.62229784333E+02  0.11557617157E+02  0.31437837533E+03  0.32072102745E+03  0.47000000000E+01 0.  1.
         13    1    6    6    0    0  0.26297666425E+02 -0.76775599349E+02  0.24236514542E+03  0.25559132151E+03  0.00000000000E+00 0. -1.
        -14    1    6    6    0    0 -0.16084037201E+01  0.41856038462E+01 -0.46209189514E+01  0.64388767685E+01  0.00000000000E+00 0.  1.
</event>
<event>
12    1  0.8113184E-002  0.2334901E+03  0.7818608E-02  0.1124256E+00
         21   -1    0    0  501  502  0.00000000000E+00  0.00000000000E+00  0.41460880075E+03  0.41460880075E+03  0.00000000000E+00 0.  1.
         21   -1    0    0  502  503 -0.00000000000E+00 -0.00000000000E+00 -0.13242834055E+03  0.13242834055E+03  0.00000000000E+00 0. -1.
         -6    2    1    2    0  503 -0.31027678465E+01  0.15838931950E+03  0.11611723216E+03  0.26051550927E+03  0.17113829281E+03 0.  0.
        -24    2    3    3    0    0  0.39645103772E+02  0.92316158656E+02  0.11839548953E+02  0.12979072842E+03  0.81310828694E+02 0.  0.
          6    2    1    2  501    0  0.31027678465E+01 -0.15838931950E+03  0.16606322803E+03  0.28652163203E+03  0.17152506003E+03 0.  0.
         24    2    5    5    0    0 -0.20355933758E+02 -0.18182284609E+03  0.14470029020E+03  0.24679876756E+03  0.80607358728E+02 0.  0.
          5    1    5    5  501    0  0.23458701604E+02  0.23433526596E+02  0.21362937829E+02  0.39722864479E+02  0.47000000000E+01 0. -1.
        -13    1    6    6    0    0 -0.23664745573E+02 -0.83615711724E+01  0.94598728684E+01  0.26822103762E+02  0.00000000000E+00 0.  1.
         14    1    6    6    0    0  0.33088118154E+01 -0.17346127492E+03  0.13524041734E+03  0.21997666379E+03  0.00000000000E+00 0. -1.
         -5    1    3    3    0  503 -0.42747871618E+02  0.66073160840E+02  0.10427768321E+03  0.13072478085E+03  0.47000000000E+01 0.  1.
         13    1    4    4    0    0 -0.55664904360E+01  0.82841759968E+02  0.88869945876E+01  0.83502824402E+02  0.00000000000E+00 0. -1.
        -14    1    4    4    0    0  0.45211594208E+02  0.94743986882E+01  0.29525543656E+01  0.46287904020E+02  0.00000000000E+00 0.  1.
</event>
<event>
12    1  0.8113184E-002  0.2437775E+03  0.7818608E-02  0.1117332E+00
         21   -1    0    0  503  502  0.00000000000E+00  0.00000000000E+00  0.27890040106E+03  0.27890040106E+03  0.00000000000E+00 0. -1.
         21   -1    0    0  501  503 -0.00000000000E+00 -0.00000000000E+00 -0.22177390402E+03  0.22177390402E+03  0.00000000000E+00 0.  1.
          6    2    1    2  501    0  0.22302290192E+02 -0.17139369552E+03  0.78599180942E+02  0.25613529121E+03  0.17191353974E+03 0.  0.
         24    2    3    3    0    0  0.44751669884E+02 -0.12437694376E+03  0.11501833130E+03  0.19239367131E+03  0.79459248215E+02 0.  0.
         -6    2    1    2    0  502 -0.22302290192E+02  0.17139369552E+03 -0.21472683903E+02  0.24453901388E+03  0.17165390221E+03 0.  0.
        -24    2    5    5    0    0  0.31992015178E+02  0.15191707480E+03  0.17105524283E+02  0.17498631086E+03  0.78900718482E+02 0.  0.
          5    1    3    3  501    0 -0.22449379692E+02 -0.47016751759E+02 -0.36419150361E+02  0.63741619900E+02  0.47000000000E+01 0. -1.
        -11    1    4    4    0    0  0.65094926146E+02 -0.10397665690E+03  0.77548748045E+02  0.14512857373E+03  0.00000000000E+00 0.  1.
         12    1    4    4    0    0 -0.20343256261E+02 -0.20400286858E+02  0.37469583258E+02  0.47265097574E+02  0.00000000000E+00 0. -1.
         -5    1    5    5    0  502 -0.54294305370E+02  0.19476620716E+02 -0.38578208185E+02  0.69552703016E+02  0.47000000000E+01 0.  1.
         13    1    6    6    0    0  0.15434744897E+02  0.11778596193E+03 -0.21655617794E+02  0.12075069341E+03  0.00000000000E+00 0. -1.
        -14    1    6    6    0    0  0.16557270280E+02  0.34131112871E+02  0.38761142077E+02  0.54235617449E+02  0.00000000000E+00 0.  1.
</event>
<event>
12    1  0.8113184E-002  0.2862573E+03  0.7818608E-02  0.1092529E+00
         21   -1    0    0  503  502  0.00000000000E+00  0.00000000000E+00  0.31630659788E+03  0.31630659788E+03  0.00000000000E+00 0. -1.
         21   -1    0    0  501  503 -0.00000000000E+00 -0.00000000000E+00 -0.36236136726E+03  0.36236136726E+03  0.00000000000E+00 0. -1.
          6    2    1    2  501    0  0.22360955606E+03 -0.33013966672E+02 -0.20549012593E+03  0.35237681140E+03  0.17564757272E+03 0.  0.
         24    2    3    3    0    0  0.62949827217E+02  0.47200422380E+01 -0.19637935879E+02  0.10378370923E+03  0.80002813891E+02 0.  0.
         -6    2    1    2    0  502 -0.22360955606E+03  0.33013966672E+02  0.15943535655E+03  0.32629115374E+03  0.17307549951E+03 0.  0.
        -24    2    5    5    0    0 -0.60531917750E+02 -0.51560955028E+00  0.85180483132E+01  0.10153201038E+03  0.81066719833E+02 0.  0.
          5    1    3    3  501    0  0.16065972884E+03 -0.37734008910E+02 -0.18585219006E+03  0.24859310217E+03  0.47000000000E+01 0. -1.
        -11    1    4    4    0    0  0.28016882921E+02 -0.35847767995E+02  0.31363399673E+01  0.45605315778E+02  0.00000000000E+00 0.  1.
         12    1    4    4    0    0  0.34932944296E+02  0.40567810233E+02 -0.22774275846E+02  0.58178393452E+02  0.00000000000E+00 0. -1.
         -5    1    5    5    0  502 -0.16307763831E+03  0.33529576222E+02  0.15091730823E+03  0.22475914336E+03  0.47000000000E+01 0.  1.
         11    1    6    6    0    0 -0.52839458101E+02 -0.17127632727E+02  0.37665631573E+02  0.67112323287E+02  0.00000000000E+00 0. -1.
        -12    1    6    6    0    0 -0.76924596491E+01  0.16612023177E+02 -0.29147583260E+02  0.34419687090E+02  0.00000000000E+00 0.  1.
</event>
<event>
12    1  0.8113184E-002  0.2484016E+03  0.7818608E-02  0.1114719E+00
         21   -1    0    0  503  502  0.00000000000E+00  0.00000000000E+00  0.35786864083E+03  0.35786864083E+03  0.00000000000E+00 0.  1.
         21   -1    0    0  501  503 -0.00000000000E+00 -0.00000000000E+00 -0.17530339592E+03  0.17530339592E+03  0.00000000000E+00 0. -1.
          6    2    1    2  501    0 -0.28007606736E+02 -0.17793104777E+03  0.48495607069E+02  0.25309128894E+03  0.17105406407E+03 0.  0.
         24    2    3    3    0    0 -0.11214398396E+02 -0.10011261596E+03  0.96522406701E+02  0.15999787532E+03  0.78322707478E+02 0.  0.
         -6    2    1    2    0  502  0.28007606736E+02  0.17793104777E+03  0.13406963784E+03  0.28008074782E+03  0.16741168930E+03 0.  0.
        -24    2    5    5    0    0  0.69722416645E+02  0.15502809460E+03  0.13811371112E+03  0.23208996581E+03  0.76781700490E+02 0.  0.
          5    1    3    3  501    0 -0.16793208341E+02 -0.77818431807E+02 -0.48026799632E+02  0.93093413613E+02  0.47000000000E+01 0. -1.
        -11    1    4    4    0    0  0.28154009546E+02 -0.35164692679E+02  0.12523505598E+02  0.46755128673E+02  0.00000000000E+00 0.  1.
         12    1    4    4    0    0 -0.39368407942E+02 -0.64947923280E+02  0.83998901103E+02  0.11324274665E+03  0.00000000000E+00 0. -1.
         -5    1    5    5    0  502 -0.41714809909E+02  0.22902953168E+02 -0.40440732865E+01  0.47990782014E+02  0.47000000000E+01 0.  1.
         13    1    6    6    0    0  0.61864891549E+02  0.15828210162E+03  0.10932278687E+03  0.20206919663E+03  0.00000000000E+00 0. -1.
        -14    1    6    6    0    0  0.78575250965E+01 -0.32540070183E+01  0.28790924259E+02  0.30020769177E+02  0.00000000000E+00 0.  1.
</event>
<event>
12    1  0.8113184E-002  0.1811642E+03  0.7818608E-02  0.1167220E+00
         21   -1    0    0  501  502  0.00000000000E+00  0.00000000000E+00  0.41947173510E+02  0.41947173510E+02  0.00000000000E+00 0.  1.
         21   -1    0    0  502  503 -0.00000000000E+00 -0.00000000000E+00 -0.77288930587E+03  0.77288930587E+03  0.00000000000E+00 0.  1.
         -6    2    1    2    0  503  0.50069466816E+02  0.19188899399E+02 -0.37165657964E+03  0.41345989212E+03  0.17304711449E+03 0.  0.
        -24    2    3    3    0    0 -0.90500287211E+01  0.66286741336E+02 -0.24358880633E+03  0.26467559849E+03  0.79005257884E+02 0.  0.
          6    2    1    2  501    0 -0.50069466816E+02 -0.19188899399E+02 -0.35928555272E+03  0.40137658726E+03  0.17070996175E+03 0.  0.
         24    2    5    5    0    0 -0.74552894199E+02 -0.36049186908E+02 -0.14830250140E+03  0.18825773438E+03  0.81176749877E+02 0.  0.
          5    1    5    5  501    0  0.24483427383E+02  0.16860287509E+02 -0.21098305132E+03  0.21311885289E+03  0.47000000000E+01 0. -1.
        -13    1    6    6    0    0 -0.40427840256E+02 -0.60998217104E+02 -0.85320382241E+02  0.11240445002E+03  0.00000000000E+00 0.  1.
         14    1    6    6    0    0 -0.34125053943E+02  0.24949030197E+02 -0.62982119160E+02  0.75853284360E+02  0.00000000000E+00 0. -1.
         -5    1    3    3    0  503  0.59119495537E+02 -0.47097841936E+02 -0.12806777331E+03  0.14878429362E+03  0.47000000000E+01 0.  1.
         11    1    4    4    0    0 -0.21309550019E+02 -0.76686158802E+00 -0.13349774367E+03  0.13518998692E+03  0.00000000000E+00 0. -1.
        -12    1    4    4    0    0  0.12259521297E+02  0.67053602924E+02 -0.11009106266E+03  0.12948561157E+03  0.00000000000E+00 0.  1.
</event>
<event>
12    1  0.8113184E-002  0.2170741E+03  0.7818608E-02  0.1136299E+00
         21   -1    0    0  501  502  0.00000000000E+00  0.00000000000E+00  0.12972831533E+04  0.12972831533E+04  0.00000000000E+00 0. -1.
         21   -1    0    0  502  503 -0.00000000000E+00 -0.00000000000E+00 -0.43626032406E+02  0.43626032406E+02  0.00000000000E+00 0. -1.
         -6    2    1    2    0  503 -0.16063839620E+02 -0.12918439347E+03  0.34762067381E+03  0.40923155322E+03  0.17228951457E+03 0.  0.
        -24    2    3    3    0    0 -0.36325659775E+02 -0.15232272016E+03  0.32861447293E+03  0.37277268338E+03  0.80313367605E+02 0.  0.
          6    2    1    2  501    0  0.16063839620E+02  0.12918439347E+03  0.90603644714E+03  0.93167763254E+03  0.17370812582E+03 0.  0.
         24    2    5    5    0    0 -0.38652831810E+02  0.44175203514E+02  0.27145426675E+03  0.28907580390E+03  0.80199198563E+02 0.  0.
          5    1    5    5  501    0  0.54716671431E+02  0.85009189957E+02  0.63458218039E+03  0.64260182864E+03  0.47000000000E+01 0. -1.
        -11    1    6    6    0    0 -0.41533943844E+02  0.33211460352E+02  0.73097197363E+02  0.90395076483E+02  0.00000000000E+00 0.  1.
         12    1    6    6    0    0  0.28811120342E+01  0.10963743162E+02  0.19835706939E+03  0.19868072741E+03  0.00000000000E+00 0. -1.
         -5    1    3    3    0  503  0.20261820155E+02  0.23138326692E+02  0.19006200872E+02  0.36458869836E+02  0.47000000000E+01 0.  1.
         11    1    4    4    0    0 -0.34729613159E+02 -0.15462689152E+03  0.33229192480E+03  0.36814880809E+03  0.00000000000E+00 0. -1.
        -12    1    4    4    0    0 -0.15960466157E+01  0.23041713570E+01 -0.36774518669E+01  0.46238752876E+01  0.00000000000E+00 0.  1.
</event>
<event>
12    1  0.8113184E-002  0.1846019E+03  0.7818608E-02  0.1163426E+00
         21   -1    0    0  501  502  0.00000000000E+00  0.00000000000E+00  0.11603910049E+03  0.11603910049E+03  0.00000000000E+00 0. -1.
         21   -1    0    0  502  503 -0.00000000000E+00 -0.00000000000E+00 -0.39059850318E+03  0.39059850318E+03  0.00000000000E+00 0. -1.
         -6    2    1    2    0  503  0.66598402091E+02 -0.46432846508E+01 -0.26347880672E+03  0.32170340119E+03  0.17209035271E+03 0.  0.
        -24    2    3    3    0    0  0.87062377042E+02 -0.34861188479E+02 -0.11350149847E+03  0.16727808276E+03  0.79399035629E+02 0.  0.
          6    2    1    2  501    0 -0.66598402091E+02  0.46432846508E+01 -0.11080595969E+02  0.18493420247E+03  0.17210744430E+03 0.  0.
         24    2    5    5    0    0 -0.11197198106E+03  0.88361566261E+01  0.15952862399E+01  0.13740410849E+03  0.79129905118E+02 0.  0.
          5    1    5    5  501    0  0.45373578973E+02 -0.41928719753E+01 -0.12675882209E+02  0.47530093983E+02  0.47000000000E+01 0. -1.
        -11    1    6    6    0    0 -0.10963137224E+02 -0.27575658178E+02  0.43807279387E+01  0.29996634462E+02  0.00000000000E+00 0.  1.
         12    1    6    6    0    0 -0.10100884384E+03  0.36411814804E+02 -0.27854416988E+01  0.10740747403E+03  0.00000000000E+00 0. -1.
         -5    1    3    3    0  503 -0.20463974951E+02  0.30217903829E+02 -0.14997730825E+03  0.15442531843E+03  0.47000000000E+01 0.  1.
         11    1    4    4    0    0  0.61995438967E+02 -0.58060210904E+02 -0.98244064537E+02  0.12987039216E+03  0.00000000000E+00 0. -1.
        -12    1    4    4    0    0  0.25066938075E+02  0.23199022425E+02 -0.15257433933E+02  0.37407690601E+02  0.00000000000E+00 0.  1.
</event>
<event>
12    1  0.8113184E-002  0.3596938E+03  0.7818608E-02  0.1058745E+00
         21   -1    0    0  503  502  0.00000000000E+00  0.00000000000E+00  0.13633352062E+04  0.13633352062E+04  0.00000000000E+00 0.  1.
         21   -1    0    0  501  503 -0.00000000000E+00 -0.00000000000E+00 -0.41681533036E+03  0.41681533036E+03  0.00000000000E+00 0.  1.
          6    2    1    2  501    0  0.31540521183E+03  0.18309673468E+02 -0.30914611827E+03  0.47398181222E+03  0.17108987138E+03 0.  0.
         24    2    3    3    0    0  0.25678808643E+03  0.54934977707E+02 -0.18236298725E+03  0.32950540373E+03  0.79746967717E+02 0.  0.
         -6    2    1    2    0  502 -0.31540521183E+03 -0.18309673468E+02  0.12556659941E+04  0.13061687243E+04  0.17194172235E+03 0.  0.
        -24    2    5    5    0    0 -0.24562546224E+03 -0.59839436318E+02  0.79371325067E+03  0.83710970692E+03  0.82820959209E+02 0.  0.
          5    1    3    3  501    0  0.58617125400E+02 -0.36625304238E+02 -0.12678313102E+03  0.14447640850E+03  0.47000000000E+01 0. -1.
        -13    1    4    4    0    0  0.93014615935E+02 -0.13031475294E+02 -0.87699982179E+02  0.12850223733E+03  0.00000000000E+00 0.  1.
         14    1    4    4    0    0  0.16377347049E+03  0.67966453000E+02 -0.94663005067E+02  0.20100316639E+03  0.00000000000E+00 0. -1.
         -5    1    5    5    0  502 -0.69779749589E+02  0.41529762850E+02  0.46195274341E+03  0.46905901740E+03  0.47000000000E+01 0.  1.
         11    1    6    6    0    0 -0.67861756225E+02 -0.38206523943E+02  0.35129616533E+03  0.35982489103E+03  0.00000000000E+00 0. -1.
        -12    1    6    6    0    0 -0.17776370601E+03 -0.21632912376E+02  0.44241708534E+03  0.47728481589E+03  0.00000000000E+00 0.  1.
</event>
<event>
12    1  0.8113184E-002  0.3217082E+03  0.7818608E-02  0.1074959E+00
         21   -1    0    0  501  502  0.00000000000E+00  0.00000000000E+00  0.14463167839E+04  0.14463167839E+04  0.00000000000E+00 0.  1.
         21   -1    0    0  502  503 -0.00000000000E+00 -0.00000000000E+00 -0.71823809622E+02  0.71823809622E+02  0.00000000000E+00 0. -1.
         -6    2    1    2    0  503  0.11023847278E+03 -0.24736841836E+03  0.62659251922E+03  0.70398383617E+03  0.17213773891E+03 0.  0.
        -24    2    3    3    0    0 -0.43385812625E+01 -0.78713579372E+02  0.16245912616E+03  0.19701810500E+03  0.78794131500E+02 0.  0.
          6    2    1    2  501    0 -0.11023847278E+03  0.24736841836E+03  0.74790045501E+03  0.81415675731E+03  0.17364469352E+03 0.  0.
         24    2    5    5    0    0 -0.30019065809E+02  0.20837121329E+03  0.61083336006E+03  0.65055537047E+03  0.76060432862E+02 0.  0.
          5    1    5    5  501    0 -0.80219406969E+02  0.38997205069E+02  0.13706709496E+03  0.16360138684E+03  0.47000000000E+01 0. -1.
        -11    1    6    6    0    0  0.25475499571E+02  0.68310697102E+02  0.18419275742E+03  0.19809675490E+03  0.00000000000E+00 0.  1.
         12    1    6    6    0    0 -0.55494565380E+02  0.14006051619E+03  0.42664060264E+03  0.45245861556E+03  0.00000000000E+00 0. -1.
         -5    1    3    3    0  503  0.11457705404E+03 -0.16865483899E+03  0.46413339306E+03  0.50696573117E+03  0.47000000000E+01 0.  1.
         11    1    4    4    0    0  0.23068470054E+02  0.12174458148E+01  0.16584987889E+02  0.28437621353E+02  0.00000000000E+00 0. -1.
        -12    1    4    4    0    0 -0.27407051316E+02 -0.79931025187E+02  0.14587413827E+03  0.16858048365E+03  0.00000000000E+00 0.  1.
</event>
<event>
12    1  0.8113184E-002  0.2149321E+03  0.7818608E-02  0.1137771E+00
         21   -1    0    0  501  502  0.00000000000E+00  0.00000000000E+00  0.64422677073E+03  0.64422677073E+03  0.00000000000E+00 0. -1.
         21   -1    0    0  502  503 -0.00000000000E+00 -0.00000000000E+00 -0.78968850227E+02  0.78968850227E+02  0.00000000000E+00 0. -1.
         -6    2    1    2    0  503 -0.10524027391E+03 -0.74240883792E+02  0.39279741638E+03  0.44762636305E+03  0.17173330052E+03 0.  0.
        -24    2    3    3    0    0 -0.11745462136E+03 -0.68869755549E+01  0.31389500337E+03  0.34306336761E+03  0.72934097237E+02 0.  0.
          6    2    1    2  501    0  0.10524027391E+03  0.74240883792E+02  0.17246050412E+03  0.27556925790E+03  0.17207139896E+03 0.  0.
         24    2    5    5    0    0  0.16765641349E+02  0.83835498013E+02  0.60649112868E+02  0.13258781000E+03  0.81189500632E+02 0.  0.
          5    1    5    5  501    0  0.88474632560E+02 -0.95946142202E+01  0.11181139126E+03  0.14298144790E+03  0.47000000000E+01 0. -1.
        -13    1    6    6    0    0  0.39836085695E+01  0.27233140338E+02  0.68696436379E+02  0.74004820391E+02  0.00000000000E+00 0.  1.
         14    1    6    6    0    0  0.12782032779E+02  0.56602357674E+02 -0.80473235105E+01  0.58582989613E+02  0.00000000000E+00 0. -1.
         -5    1    3    3    0  503  0.12214347455E+02 -0.67353908238E+02  0.78902413003E+02  0.10456299544E+03  0.47000000000E+01 0.  1.
         13    1    4    4    0    0 -0.34018882904E+02 -0.24720937248E+02  0.17561504792E+03  0.18057977237E+03  0.00000000000E+00 0. -1.
        -14    1    4    4    0    0 -0.83435738459E+02  0.17833961693E+02  0.13827995545E+03  0.16248359524E+03  0.00000000000E+00 0.  1.
</event>
<event>
12    1  0.8113184E-002  0.1855528E+03  0.7818608E-02  0.1162581E+00
         21   -1    0    0  501  502  0.00000000000E+00  0.00000000000E+00  0.13700878565E+04  0.13700878565E+04  0.00000000000E+00 0. -1.
         21   -1    0    0  502  503 -0.00000000000E+00 -0.00000000000E+00 -0.55916702833E+02  0.55916702833E+02  0.00000000000E+00 0. -1.
         -6    2    1    2    0  503  0.58981890650E+02 -0.34911027741E+02  0.12795378409E+03  0.22539304556E+03  0.17243030720E+03 0.  0.
        -24    2    3    3    0    0 -0.98980613532E+00 -0.43356250656E+01  0.13580486032E+03  0.15745786276E+03  0.79562812265E+02 0.  0.
          6    2    1    2  501    0 -0.58981890650E+02  0.34911027741E+02  0.11862173696E+04  0.12006115138E+04  0.17221706026E+03 0.  0.
         24    2    5    5    0    0 -0.10464246854E+03  0.39922760572E+02  0.95183383029E+03  0.96172296376E+03  0.79872057133E+02 0.  0.
          5    1    5    5  501    0  0.45660577889E+02 -0.50117328317E+01  0.23438353930E+03  0.23888855003E+03  0.47000000000E+01 0. -1.
        -11    1    6    6    0    0 -0.32425958950E+02  0.12048671372E+02  0.89987979328E+02  0.96407726449E+02  0.00000000000E+00 0.  1.
         12    1    6    6    0    0 -0.72216509589E+02  0.27874089200E+02  0.86184585096E+03  0.86531523731E+03  0.00000000000E+00 0. -1.
         -5    1    3    3    0  503  0.59971696785E+02 -0.30575402675E+02 -0.78510762331E+01  0.67935182800E+02  0.47000000000E+01 0.  1.
         11    1    4    4    0    0  0.18143835729E+02 -0.35786015210E+02  0.50135441948E+02  0.64213707251E+02  0.00000000000E+00 0. -1.
        -12    1    4    4    0    0 -0.19133641864E+02  0.31450390144E+02  0.85669418377E+02  0.93244155507E+02  0.00000000000E+00 0.  1.
</event>
<event>
12    1  0.8113184E-002  0.2053556E+03  0.7818608E-02  0.1145419E+00
         21   -1    0    0  501  502  0.00000000000E+00  0.00000000000E+00  0.23298404161E+02  0.23298404161E+02  0.00000000000E+00 0.  1.
         21   -1    0    0  502  503 -0.00000000000E+00 -0.00000000000E+00 -0.22966284502E+04  0.22966284502E+04  0.00000000000E+00 0.  1.
         -6    2    1    2    0  503 -0.11189985228E+03 -0.31941388026E+01 -0.16721622299E+04  0.16846523617E+04  0.17145050967E+03 0.  0.
        -24    2    3    3    0    0 -0.81231934667E+02  0.61245138145E+02 -0.89411214192E+03  0.90332210440E+03  0.78769967751E+02 0.  0.
          6    2    1    2  501    0  0.11189985228E+03  0.31941388026E+01 -0.60116781611E+03  0.63527449262E+03  0.17216026946E+03 0.  0.
         24    2    5    5    0    0  0.13104797868E+02 -0.19697904498E+02 -0.11181421010E+03  0.13550099378E+03  0.72789824610E+02 0.  0.
          5    1    5    5  501    0  0.98795054410E+02  0.22892043300E+02 -0.48935360602E+03  0.49977349884E+03  0.47000000000E+01 0. -1.
        -13    1    6    6    0    0  0.38885602924E+02 -0.76859458243E+01 -0.32555119160E+02  0.51293271113E+02  0.00000000000E+00 0.  1.
         14    1    6    6    0    0 -0.25780805056E+02 -0.12011958673E+02 -0.79259090937E+02  0.84207722667E+02  0.00000000000E+00 0. -1.
         -5    1    3    3    0  503 -0.30667917611E+02 -0.64439276947E+02 -0.77805008800E+03  0.78133025734E+03  0.47000000000E+01 0.  1.
         13    1    4    4    0    0  0.13501727641E+02  0.12090873098E+02 -0.22745343843E+03  0.22817439058E+03  0.00000000000E+00 0. -1.
        -14    1    4    4    0    0 -0.94733662307E+02  0.49154265047E+02 -0.66665870349E+03  0.67514771382E+03  0.00000000000E+00 0.  1.
</event>
<event>
12    1  0.8113184E-002  0.2237189E+03  0.7818608E-02  0.1134899E+00
         21   -1    0    0  501  502  0.00000000000E+00  0.00000000000E+00  0.16871950576E+04  0.16871950576E+04  0.00000000000E+00 0.  1.
         21   -1    0    0  502  503 -0.00000000000E+00 -0.00000000000E+00 -0.45491778767E+02  0.45491778767E+02  0.00000000000E+00 0.  1.
         -6    2    1    2    0  503  0.42889184071E+01  0.11157311885E+03  0.29308516135E+03  0.36871269291E+03  0.19386382447E+03 0.  0.
        -24    2    3    3    0    0  0.34398305432E+02 -0.16895169205E+01  0.50490210881E+02  0.99251378728E+02  0.78201514695E+02 0.  0.
          6    2    1    2  501    0 -0.42889184071E+01 -0.11157311885E+03  0.13486181175E+04  0.13639741434E+04  0.17084402696E+03 0.  0.
         24    2    5    5    0    0  0.29271349903E+02 -0.13182964896E+03  0.89872365664E+03  0.91235070018E+03  0.80272790178E+02 0.  0.
          5    1    5    5  501    0 -0.33560268310E+02  0.20256530114E+02  0.44989446082E+03  0.45162344326E+03  0.47000000000E+01 0. -1.
        -13    1    6    6    0    0  0.26967574885E+02 -0.14305037901E+03  0.84002378459E+03  0.85254361748E+03  0.00000000000E+00 0.  1.
         14    1    6    6    0    0  0.23037750185E+01  0.11220730051E+02  0.58699872047E+02  0.59807082695E+02  0.00000000000E+00 0. -1.
         -5    1    3    3    0  503 -0.30109387025E+02  0.11326263577E+03  0.24259495047E+03  0.26946131418E+03  0.47000000000E+01 0.  1.
         13    1    4    4    0    0  0.59854069568E+02 -0.29874436911E+01  0.34176415002E+02  0.68988852767E+02  0.00000000000E+00 0. -1.
        -14    1    4    4    0    0 -0.25455764135E+02  0.12979267706E+01  0.16313795878E+02  0.30262525962E+02  0.00000000000E+00 0.  1.
</event>
<event>
12    1  0.8113184E-002  0.1977318E+03  0.7818608E-02  0.1151810E+00
         21   -1    0    0  501  502  0.00000000000E+00  0.00000000000E+00  0.22409572268E+03  0.22409572268E+03  0.00000000000E+00 0. -1.
         21   -1    0    0  502  503 -0.00000000000E+00 -0.00000000000E+00 -0.20583685864E+03  0.20583685864E+03  0.00000000000E+00 0. -1.
         -6    2    1    2    0  503  0.54179695453E+02  0.79562515382E+02  0.93815911534E+02  0.21825661820E+03  0.17195607833E+03 0.  0.
        -24    2    3    3    0    0 -0.33294270988E+02  0.57012806004E+02  0.60952640699E+02  0.12201593674E+03  0.82545114212E+02 0.  0.
          6    2    1    2  501    0 -0.54179695453E+02 -0.79562515382E+02 -0.75557047489E+02  0.21167596312E+03  0.17272004135E+03 0.  0.
         24    2    5    5    0    0 -0.44417507931E+01  0.22809723911E+02 -0.39605966752E+02  0.92225099905E+02  0.79980146256E+02 0.  0.
          5    1    5    5  501    0 -0.49737944660E+02 -0.10237223929E+03 -0.35951080737E+02  0.11945086322E+03  0.47000000000E+01 0. -1.
        -13    1    6    6    0    0  0.12526228254E+02  0.39891816379E+02  0.44202561584E+01  0.42045238408E+02  0.00000000000E+00 0.  1.
         14    1    6    6    0    0 -0.16967979047E+02 -0.17082092468E+02 -0.44026222911E+02  0.50179861497E+02  0.00000000000E+00 0. -1.
         -5    1    3    3    0  503  0.87473966441E+02  0.22549709379E+02  0.32863270835E+02  0.96240681461E+02  0.47000000000E+01 0.  1.
         13    1    4    4    0    0 -0.48624901024E+02  0.42525248029E+02  0.80915414636E+01  0.65101849150E+02  0.00000000000E+00 0. -1.
        -14    1    4    4    0    0  0.15330630036E+02  0.14487557975E+02  0.52861099235E+02  0.56914087586E+02  0.00000000000E+00 0.  1.
</event>
<event>
12    1  0.8113184E-002  0.2084385E+03  0.7818608E-02  0.1142837E+00
         21   -1    0    0  501  502  0.00000000000E+00  0.00000000000E+00  0.68753927870E+02  0.68753927870E+02  0.00000000000E+00 0. -1.
         21   -1    0    0  502  503 -0.00000000000E+00 -0.00000000000E+00 -0.70688119639E+03  0.70688119639E+03  0.00000000000E+00 0. -1.
         -6    2    1    2    0  503 -0.33765481092E+01  0.11936605540E+03 -0.44582076841E+03  0.49214101608E+03  0.17084193251E+03 0.  0.
        -24    2    3    3    0    0 -0.36137436367E+02  0.73136682093E+01 -0.21187240582E+03  0.23063969748E+03  0.83338764405E+02 0.  0.
          6    2    1    2  501    0  0.33765481092E+01 -0.11936605540E+03 -0.19230650012E+03  0.28349410819E+03  0.17066769797E+03 0.  0.
         24    2    5    5    0    0  0.32855956894E+02 -0.95738841378E+02 -0.53535510266E+02  0.13959567731E+03  0.79846494049E+02 0.  0.
          5    1    5    5  501    0 -0.29479408785E+02 -0.23627214026E+02 -0.13877098985E+03  0.14389843088E+03  0.47000000000E+01 0. -1.
        -11    1    6    6    0    0 -0.18242267292E+02  0.19369561479E+01 -0.41708264118E+01  0.18812971802E+02  0.00000000000E+00 0.  1.
         12    1    6    6    0    0  0.51098224186E+02 -0.97675797526E+02 -0.49364683855E+02  0.12078270551E+03  0.00000000000E+00 0. -1.
         -5    1    3    3    0  503  0.32760888258E+02  0.11205238719E+03 -0.23394836258E+03  0.26150131860E+03  0.47000000000E+01 0.  1.
         13    1    4    4    0    0 -0.53617338884E+02  0.30798050671E+02 -0.14142794863E+03  0.15435414996E+03  0.00000000000E+00 0. -1.
        -14    1    4    4    0    0  0.17479902517E+02 -0.23484382461E+02 -0.70444457190E+02  0.76285547520E+02  0.00000000000E+00 0.  1.
</event>
<event>
12    1  0.8113184E-002  0.1745310E+03  0.7818608E-02  0.1173789E+00
         21   -1    0    0  501  502  0.00000000000E+00  0.00000000000E+00  0.23884280449E+02  0.23884280449E+02  0.00000000000E+00 0. -1.
         21   -1    0    0  502  503 -0.00000000000E+00 -0.00000000000E+00 -0.16646243442E+04  0.16646243442E+04  0.00000000000E+00 0. -1.
         -6    2    1    2    0  503 -0.96214486923E+01 -0.12086947694E+02 -0.12332199807E+04  0.12451874383E+04  0.17152716726E+03 0.  0.
        -24    2    3    3    0    0 -0.12218994456E+02  0.37096993316E+02 -0.10892792100E+04  0.10929808591E+04  0.80947329520E+02 0.  0.
          6    2    1    2  501    0  0.96214486923E+01  0.12086947694E+02 -0.40752008306E+03  0.44332118636E+03  0.17384587888E+03 0.  0.
         24    2    5    5    0    0  0.45223867120E+02 -0.16158335783E+02 -0.37648812837E+03  0.38809075591E+03  0.81023663477E+02 0.  0.
          5    1    5    5  501    0 -0.35602418427E+02  0.28245283477E+02 -0.31031954685E+02  0.55230430454E+02  0.47000000000E+01 0. -1.
        -13    1    6    6    0    0 -0.18599402827E+02 -0.22334498013E+02 -0.92743692416E+02  0.97191358000E+02  0.00000000000E+00 0.  1.
         14    1    6    6    0    0  0.63823269947E+02  0.61761622301E+01 -0.28374443596E+03  0.29089939791E+03  0.00000000000E+00 0. -1.
         -5    1    3    3    0  503  0.25975457640E+01 -0.49183941011E+02 -0.14394077066E+03  0.15220657922E+03  0.47000000000E+01 0.  1.
         13    1    4    4    0    0 -0.22082826569E+02 -0.15067832894E+02 -0.64291830274E+03  0.64347388045E+03  0.00000000000E+00 0. -1.
        -14    1    4    4    0    0  0.98638321129E+01  0.52164826211E+02 -0.44636090728E+03  0.44950697862E+03  0.00000000000E+00 0.  1.
</event>
<event>
12    1  0.8113184E-002  0.2194148E+03  0.7818608E-02  0.1134366E+00
         21   -1    0    0  503  502  0.00000000000E+00  0.00000000000E+00  0.11341306847E+03  0.11341306847E+03  0.00000000000E+00 0.  1.
         21   -1    0    0  501  503 -0.00000000000E+00 -0.00000000000E+00 -0.55343261183E+03  0.55343261183E+03  0.00000000000E+00 0. -1.
          6    2    1    2  501    0  0.12471704608E+03  0.53689674101E+02 -0.38134130002E+03  0.43995915941E+03  0.17235414749E+03 0.  0.
         24    2    3    3    0    0  0.33303929654E+02  0.82606380577E+02 -0.24930198306E+03  0.27671392980E+03  0.80536664575E+02 0.  0.
         -6    2    1    2    0  502 -0.12471704608E+03 -0.53689674101E+02 -0.58678243336E+02  0.22688652089E+03  0.17203904915E+03 0.  0.
        -24    2    5    5    0    0 -0.63191805942E+02 -0.12979191603E+02 -0.98574362286E+02  0.14288361102E+03  0.80852691022E+02 0.  0.
          5    1    3    3  501    0  0.91413116431E+02 -0.28916706476E+02 -0.13203931696E+03  0.16324522962E+03  0.47000000000E+01 0. -1.
        -13    1    4    4    0    0 -0.21448712131E+02  0.16074583519E+02 -0.10745358716E+03  0.11074616418E+03  0.00000000000E+00 0.  1.
         14    1    4    4    0    0  0.54752641785E+02  0.66531797058E+02 -0.14184839590E+03  0.16596776561E+03  0.00000000000E+00 0. -1.
         -5    1    5    5    0  502 -0.61525240143E+02 -0.40710482498E+02  0.39896118950E+02  0.84002909873E+02  0.47000000000E+01 0.  1.
         13    1    6    6    0    0 -0.62528497191E+02  0.22783450842E+01 -0.24409521173E+02  0.67162702009E+02  0.00000000000E+00 0. -1.
        -14    1    6    6    0    0 -0.66330875067E+00 -0.15257536687E+02 -0.74164841113E+02  0.75720909012E+02  0.00000000000E+00 0.  1.
</event>
<event>
12    1  0.8113184E-002  0.2018138E+03  0.7818608E-02  0.1148717E+00
         21   -1    0    0  503  502  0.00000000000E+00  0.00000000000E+00  0.83396408348E+03  0.83396408348E+03  0.00000000000E+00 0. -1.
         21   -1    0    0  501  503 -0.00000000000E+00 -0.00000000000E+00 -0.65094685364E+02  0.65094685364E+02  0.00000000000E+00 0. -1.
          6    2    1    2  501    0  0.46016849281E+02  0.92388708509E+02  0.15754510436E+03  0.25602591724E+03  0.17342314295E+03 0.  0.
         24    2    3    3    0    0  0.44361352407E+02  0.12616952923E+03  0.15770930803E+03  0.22187915338E+03  0.80445342772E+02 0.  0.
         -6    2    1    2    0  502 -0.46016849281E+02 -0.92388708509E+02  0.61132429375E+03  0.64303285160E+03  0.17064768452E+03 0.  0.
        -24    2    5    5    0    0  0.21974573301E+02 -0.57793040560E+02  0.20332967969E+03  0.22794082700E+03  0.82408401041E+02 0.  0.
          5    1    3    3  501    0  0.16554968733E+01 -0.33780820725E+02 -0.16420366403E+00  0.34146763853E+02  0.47000000000E+01 0. -1.
        -11    1    4    4    0    0  0.53203714561E+02  0.33627054715E+02  0.68739197135E+02  0.93201348031E+02  0.00000000000E+00 0.  1.
         12    1    4    4    0    0 -0.88423621539E+01  0.92542474520E+02  0.88970110890E+02  0.12867780535E+03  0.00000000000E+00 0. -1.
         -5    1    5    5    0  502 -0.67991422581E+02 -0.34595667949E+02  0.40799461406E+03  0.41509202461E+03  0.47000000000E+01 0.  1.
         11    1    6    6    0    0 -0.15733596497E+02 -0.56617966332E+02  0.16020970857E+03  0.17064668438E+03  0.00000000000E+00 0. -1.
        -12    1    6    6    0    0  0.37708169798E+02 -0.11750742280E+01  0.43119971112E+02  0.57294142612E+02  0.00000000000E+00 0.  1.
</event>
<event>
12    1  0.8113184E-002  0.3322551E+03  0.7818608E-02  0.1070176E+00
         21   -1    0    0  503  502  0.00000000000E+00  0.00000000000E+00  0.12229280849E+04  0.12229280849E+04  0.00000000000E+00 0. -1.
         21   -1    0    0  501  503 -0.00000000000E+00 -0.00000000000E+00 -0.97589155783E+02  0.97589155783E+02  0.00000000000E+00 0. -1.
          6    2    1    2  501    0  0.24986720726E+03 -0.13612236062E+03  0.38109306631E+03  0.50559405123E+03  0.17155320202E+03 0.  0.
         24    2    3    3    0    0  0.14347846923E+03 -0.15281867840E+03  0.24658217666E+03  0.33322061928E+03  0.79332160370E+02 0.  0.
         -6    2    1    2    0  502 -0.24986720726E+03  0.13612236062E+03  0.74424586283E+03  0.81492318947E+03  0.17098240283E+03 0.  0.
        -24    2    5    5    0    0 -0.50622997066E+02  0.21697121454E+02  0.24909024198E+03  0.26903623276E+03  0.85446433368E+02 0.  0.
          5    1    3    3  501    0  0.10638873803E+03  0.16696317775E+02  0.13451088966E+03  0.17237343195E+03  0.47000000000E+01 0. -1.
        -11    1    4    4    0    0  0.19832700248E+02 -0.34110735229E+02  0.93584070945E+01  0.40551917838E+02  0.00000000000E+00 0.  1.
         12    1    4    4    0    0  0.12364576898E+03 -0.11870794317E+03  0.23722376956E+03  0.29266870144E+03  0.00000000000E+00 0. -1.
         -5    1    5    5    0  502 -0.19924421020E+03  0.11442523917E+03  0.49515562085E+03  0.54588695672E+03  0.47000000000E+01 0.  1.
         11    1    6    6    0    0 -0.29625446805E+02 -0.20206307370E+02  0.35854034906E+02  0.50709700994E+02  0.00000000000E+00 0. -1.
        -12    1    6    6    0    0 -0.20997550261E+02  0.41903428824E+02  0.21323620708E+03  0.21832653176E+03  0.00000000000E+00 0.  1.
</event>
<event>
12    1  0.8113184E-002  0.1719810E+03  0.7818608E-02  0.1176053E+00
         21   -1    0    0  501  502  0.00000000000E+00  0.00000000000E+00  0.15352721230E+03  0.15352721230E+03  0.00000000000E+00 0. -1.
         21   -1    0    0  502  503 -0.00000000000E+00 -0.00000000000E+00 -0.60497626983E+03  0.60497626983E+03  0.00000000000E+00 0. -1.
         -6    2    1    2    0  503  0.28387256676E+01 -0.78029376093E+01 -0.53944710291E+03  0.56619840820E+03  0.17178043084E+03 0.  0.
        -24    2    3    3    0    0 -0.55309012673E+02  0.20144882286E+02 -0.40744310942E+03  0.41919710070E+03  0.79065913370E+02 0.  0.
          6    2    1    2  501    0 -0.28387256676E+01  0.78029376093E+01  0.87998045372E+02  0.19230507392E+03  0.17078829371E+03 0.  0.
         24    2    5    5    0    0 -0.31684720652E+02  0.58302371663E+02  0.25871854216E+02  0.10707574861E+03  0.79954831214E+02 0.  0.
          5    1    5    5  501    0  0.28845994984E+02 -0.50499434054E+02  0.62126191156E+02  0.85229325316E+02  0.47000000000E+01 0. -1.
        -13    1    6    6    0    0 -0.16139967945E+02  0.93263599730E+01 -0.27349115935E+02  0.33097638859E+02  0.00000000000E+00 0.  1.
         14    1    6    6    0    0 -0.15544752707E+02  0.48976011690E+02  0.53220970151E+02  0.73978109746E+02  0.00000000000E+00 0. -1.
         -5    1    3    3    0  503  0.58147738340E+02 -0.27947819896E+02 -0.13200399349E+03  0.14700130750E+03  0.47000000000E+01 0.  1.
         11    1    4    4    0    0 -0.34796854557E+02  0.38731880485E+02 -0.36386091456E+03  0.36756733369E+03  0.00000000000E+00 0. -1.
        -12    1    4    4    0    0 -0.20512158115E+02 -0.18586998199E+02 -0.43582194861E+02  0.51629767010E+02  0.00000000000E+00 0.  1.
</event>
<event>
12    1  0.8113184E-002  0.1789564E+03  0.7818608E-02  0.1169222E+00
         21   -1    0    0  503  502  0.00000000000E+00  0.00000000000E+00  0.29778284112E+03  0.29778284112E+03  0.00000000000E+00 0.  1.
         21   -1    0    0  501  503 -0.00000000000E+00 -0.00000000000E+00 -0.18792131925E+03  0.18792131925E+03  0.00000000000E+00 0.  1.
          6    2    1    2  501    0 -0.19418935453E+02  0.39283173093E+02 -0.10472470945E+03  0.20734672728E+03  0.17350832200E+03 0.  0.
         24    2    3    3    0    0  0.27146578140E+02  0.34056026875E+02 -0.13491143263E+03  0.15140927677E+03  0.53168832664E+02 0.  0.
         -6    2    1    2    0  502  0.19418935453E+02 -0.39283173093E+02  0.21458623133E+03  0.27835743309E+03  0.17180031182E+03 0.  0.
        -24    2    5    5    0    0  0.66881991088E+02 -0.31243446817E+00  0.12049621795E+03  0.16590086042E+03  0.92360481820E+02 0.  0.
          5    1    3    3  501    0 -0.46565513593E+02  0.52271462183E+01  0.30186723175E+02  0.55937450512E+02  0.47000000000E+01 0. -1.
        -13    1    4    4    0    0  0.24038833528E+02 -0.34226059184E+01 -0.23378130175E+02  0.33706330550E+02  0.00000000000E+00 0.  1.
         14    1    4    4    0    0  0.31077446115E+01  0.37478632793E+02 -0.11153330245E+03  0.11770294622E+03  0.00000000000E+00 0. -1.
         -5    1    5    5    0  502 -0.47463055635E+02 -0.38970738625E+02  0.94090013379E+02  0.11245657267E+03  0.47000000000E+01 0.  1.
         13    1    6    6    0    0  0.43595761943E+02 -0.97104918175E+01  0.19312289422E+01  0.44705858184E+02  0.00000000000E+00 0. -1.
        -14    1    6    6    0    0  0.23286229145E+02  0.93980573493E+01  0.11856498901E+03  0.12119500224E+03  0.00000000000E+00 0.  1.
</event>
<event>
12    1  0.8113184E-002  0.2366096E+03  0.7818608E-02  0.1122109E+00
         21   -1    0    0  503  502  0.00000000000E+00  0.00000000000E+00  0.16977909301E+03  0.16977909301E+03  0.00000000000E+00 0.  1.
         21   -1    0    0  501  503 -0.00000000000E+00 -0.00000000000E+00 -0.40951609591E+03  0.40951609591E+03  0.00000000000E+00 0.  1.
          6    2    1    2  501    0  0.13868579679E+03 -0.85624347962E+02 -0.24790409679E+03  0.34254470703E+03  0.17121669287E+03 0.  0.
         24    2    3    3    0    0  0.45136659869E+02 -0.22678461065E+02 -0.33189945810E+02  0.99979494509E+02  0.79641045692E+02 0.  0.
         -6    2    1    2    0  502 -0.13868579679E+03  0.85624347962E+02  0.81670938917E+01  0.23675048189E+03  0.17151912447E+03 0.  0.
        -24    2    5    5    0    0 -0.13062674433E+03  0.93333216229E+02  0.55783117756E+02  0.18762054494E+03  0.79468717558E+02 0.  0.
          5    1    3    3  501    0  0.93549136919E+02 -0.62945886898E+02 -0.21471415098E+03  0.24256521252E+03  0.47000000000E+01 0. -1.
        -13    1    4    4    0    0  0.49729527336E+02 -0.66762429273E+01 -0.53746172529E+02  0.73527200207E+02  0.00000000000E+00 0.  1.
         14    1    4    4    0    0 -0.45928674671E+01 -0.16002218137E+02  0.20556226720E+02  0.26452294302E+02  0.00000000000E+00 0. -1.
         -5    1    5    5    0  502 -0.80590524583E+01 -0.77088682667E+01 -0.47616023865E+02  0.49129936955E+02  0.47000000000E+01 0.  1.
         13    1    6    6    0    0 -0.28636803802E+02  0.15290338421E+02  0.49306304130E+02  0.59033656570E+02  0.00000000000E+00 0. -1.
        -14    1    6    6    0    0 -0.10198994053E+03  0.78042877808E+02  0.64768136261E+01  0.12858688837E+03  0.00000000000E+00 0.  1.
</event>
<event>
12    1  0.8113184E-002  0.2016818E+03  0.7818608E-02  0.1148349E+00
         21   -1    0    0  503  502  0.00000000000E+00  0.00000000000E+00  0.13667888280E+03  0.13667888280E+03  0.00000000000E+00 0.  1.
         21   -1    0    0  501  503 -0.00000000000E+00 -0.00000000000E+00 -0.41398169338E+03  0.41398169338E+03  0.00000000000E+00 0.  1.
          6    2    1    2  501    0  0.63355831321E+02  0.84333872289E+02 -0.28470345402E+03  0.34884300334E+03  0.17178248126E+03 0.  0.
         24    2    3    3    0    0  0.35898527351E+02  0.35308088924E+01 -0.23142250553E+03  0.24812563608E+03  0.81907169013E+02 0.  0.
         -6    2    1    2    0  502 -0.63355831321E+02 -0.84333872289E+02  0.74006434429E+01  0.20181757284E+03  0.17189938861E+03 0.  0.
        -24    2    5    5    0    0 -0.14861592463E+02 -0.11290049370E+03 -0.17405501849E+02  0.14013144874E+03  0.79790243912E+02 0.  0.
          5    1    3    3  501    0  0.27457303971E+02  0.80803063397E+02 -0.53280948487E+02  0.10071736726E+03  0.47000000000E+01 0. -1.
        -11    1    4    4    0    0  0.56044082010E+02  0.14081155912E+02 -0.10666239039E+03  0.12130986606E+03  0.00000000000E+00 0.  1.
         12    1    4    4    0    0 -0.20145554660E+02 -0.10550347020E+02 -0.12476011515E+03  0.12681577002E+03  0.00000000000E+00 0. -1.
         -5    1    5    5    0  502 -0.48494238858E+02  0.28566621413E+02  0.24806145292E+02  0.61686124093E+02  0.47000000000E+01 0.  1.
         11    1    6    6    0    0  0.20647515770E+00  0.91026723837E+01  0.10679425366E+02  0.14033937533E+02  0.00000000000E+00 0. -1.
        -12    1    6    6    0    0 -0.15068067621E+02 -0.12200316609E+03 -0.28084927215E+02  0.12609751121E+03  0.00000000000E+00 0.  1.
</event>
<event>
12    1  0.8113184E-002  0.1735470E+03  0.7818608E-02  0.1174308E+00
         21   -1    0    0  503  502  0.00000000000E+00  0.00000000000E+00  0.13715711538E+03  0.13715711538E+03  0.00000000000E+00 0.  1.
         21   -1    0    0  501  503 -0.00000000000E+00 -0.00000000000E+00 -0.27413879060E+03  0.27413879060E+03  0.00000000000E+00 0.  1.
          6    2    1    2  501    0 -0.10158691310E+02 -0.15818923411E+02  0.23631793670E+02  0.17514859501E+03  0.17252574102E+03 0.  0.
         24    2    3    3    0    0  0.82496102910E+01  0.52487351527E+02 -0.73389457278E+01  0.97780064830E+02  0.81756362526E+02 0.  0.
         -6    2    1    2    0  502  0.10158691310E+02  0.15818923411E+02 -0.16061346889E+03  0.23614731097E+03  0.17209133836E+03 0.  0.
        -24    2    5    5    0    0 -0.18755822319E+02 -0.24323128400E+02 -0.75282058221E+01  0.75198184867E+02  0.68225344839E+02 0.  0.
          5    1    3    3  501    0 -0.18408301601E+02 -0.68306274938E+02  0.30970739397E+02  0.77368530182E+02  0.47000000000E+01 0. -1.
        -11    1    4    4    0    0  0.68493669446E+01  0.27648930640E+02  0.37146591785E+02  0.46810751696E+02  0.00000000000E+00 0.  1.
         12    1    4    4    0    0  0.14002433464E+01  0.24838420886E+02 -0.44485537513E+02  0.50969313134E+02  0.00000000000E+00 0. -1.
         -5    1    5    5    0  502  0.28914513629E+02  0.40142051811E+02 -0.15308526307E+03  0.16094912610E+03  0.47000000000E+01 0.  1.
         11    1    6    6    0    0  0.23077917228E+02  0.17118784495E+01  0.63700413762E+01  0.24002046132E+02  0.00000000000E+00 0. -1.
        -12    1    6    6    0    0 -0.41833739547E+02 -0.26035006849E+02 -0.13898247198E+02  0.51196138735E+02  0.00000000000E+00 0.  1.
</event>
<event>
12    1  0.8113184E-002  0.1947450E+03  0.7818608E-02  0.1154956E+00
         21   -1    0    0  503  502  0.00000000000E+00  0.00000000000E+00  0.27235046506E+03  0.27235046506E+03  0.00000000000E+00 0.  1.
         21   -1    0    0  501  503 -0.00000000000E+00 -0.00000000000E+00 -0.19895720160E+03  0.19895720160E+03  0.00000000000E+00 0.  1.
          6    2    1    2  501    0 -0.83188110708E+02  0.83185405028E+01 -0.95044920943E+02  0.21382557175E+03  0.17233217418E+03 0.  0.
         24    2    3    3    0    0 -0.10969149744E+03  0.18305548446E+02 -0.11495474675E+03  0.17888761246E+03  0.80117828091E+02 0.  0.
         -6    2    1    2    0  502  0.83188110708E+02 -0.83185405028E+01  0.16843818440E+03  0.25748209492E+03  0.17588674583E+03 0.  0.
        -24    2    5    5    0    0  0.45982418001E+02 -0.24612504620E+02  0.11658628222E+02  0.95458405066E+02  0.79096304192E+02 0.  0.
          5    1    3    3  501    0  0.26503386728E+02 -0.99870079427E+01  0.19909825803E+02  0.34937959288E+02  0.47000000000E+01 0. -1.
        -11    1    4    4    0    0 -0.20643298058E+02 -0.87093794227E+01  0.87816708442E+01  0.24064845469E+02  0.00000000000E+00 0.  1.
         12    1    4    4    0    0 -0.89048199378E+02  0.27014927868E+02 -0.12373641759E+03  0.15482276699E+03  0.00000000000E+00 0. -1.
         -5    1    5    5    0  502  0.37205692706E+02  0.16293964117E+02  0.15677955618E+03  0.16202368985E+03  0.47000000000E+01 0.  1.
         13    1    6    6    0    0  0.57840596142E+01 -0.47838019179E+02  0.84537186773E+01  0.48922354646E+02  0.00000000000E+00 0. -1.
        -14    1    6    6    0    0  0.40198358387E+02  0.23225514559E+02  0.32049095450E+01  0.46536050420E+02  0.00000000000E+00 0.  1.
</event>
<event>
12    1  0.8113184E-002  0.1908110E+03  0.7818608E-02  0.1159934E+00
         21   -1    0    0  503  502  0.00000000000E+00  0.00000000000E+00  0.12926191328E+03  0.12926191328E+03  0.00000000000E+00 0.  1.
         21   -1    0    0  501  503 -0.00000000000E+00 -0.00000000000E+00 -0.70904131608E+03  0.70904131608E+03  0.00000000000E+00 0.  1.
          6    2    1    2  501    0 -0.35864801262E+02  0.56854917971E+02 -0.61771354892E+03  0.64375800990E+03  0.16833175911E+03 0.  0.
         24    2    3    3    0    0  0.11716472779E+02  0.19485943514E+02 -0.53489430234E+03  0.54108602981E+03  0.78391321270E+02 0.  0.
         -6    2    1    2    0  502  0.35864801262E+02 -0.56854917971E+02  0.37934146115E+02  0.19454521946E+03  0.17857793063E+03 0.  0.
        -24    2    5    5    0    0  0.45981633891E+02  0.14982240314E+02  0.65339828443E+02  0.11685294805E+03  0.83943672233E+02 0.  0.
          5    1    3    3  501    0 -0.47581274042E+02  0.37368974458E+02 -0.82819246578E+02  0.10267198009E+03  0.47000000000E+01 0. -1.
        -13    1    4    4    0    0 -0.15311772290E+02  0.79999248567E+01 -0.25238520157E+02  0.30584833955E+02  0.00000000000E+00 0.  1.
         14    1    4    4    0    0  0.27028245069E+02  0.11486018657E+02 -0.50965578218E+03  0.51050119585E+03  0.00000000000E+00 0. -1.
         -5    1    5    5    0  502 -0.10116832629E+02 -0.71837158285E+02 -0.27405682327E+02  0.77692271410E+02  0.47000000000E+01 0.  1.
         13    1    6    6    0    0  0.43264409371E+02  0.44063581886E+02  0.24036876607E+02  0.66265977726E+02  0.00000000000E+00 0. -1.
        -14    1    6    6    0    0  0.27172245199E+01 -0.29081341572E+02  0.41302951835E+02  0.50586970329E+02  0.00000000000E+00 0.  1.
</event>
<event>
12    1  0.8113184E-002  0.2229018E+03  0.7818608E-02  0.1131978E+00
         21   -1    0    0  503  502  0.00000000000E+00  0.00000000000E+00  0.26339318236E+03  0.26339318236E+03  0.00000000000E+00 0. -1.
         21   -1    0    0  501  503 -0.00000000000E+00 -0.00000000000E+00 -0.19057129935E+03  0.19057129935E+03  0.00000000000E+00 0.  1.
          6    2    1    2  501    0  0.34143579318E+02  0.13552855339E+03  0.76365650303E+01  0.22172681895E+03  0.17196131054E+03 0.  0.
         24    2    3    3    0    0  0.83039288627E+02  0.61683896873E+02  0.18438858845E+02  0.13238140364E+03  0.80525883575E+02 0.  0.
         -6    2    1    2    0  502 -0.34143579318E+02 -0.13552855339E+03  0.65185317986E+02  0.23223766276E+03  0.17364168144E+03 0.  0.
        -24    2    5    5    0    0 -0.89479762066E+01 -0.14702403496E+03  0.78299800814E+01  0.16837304581E+03  0.81191383989E+02 0.  0.
          5    1    3    3  501    0 -0.48895709309E+02  0.73844656514E+02 -0.10802293815E+02  0.89345415306E+02  0.47000000000E+01 0. -1.
        -13    1    4    4    0    0  0.50939992177E+02  0.76099851975E+02 -0.21726799410E+01  0.91601259881E+02  0.00000000000E+00 0.  1.
         14    1    4    4    0    0  0.32099296450E+02 -0.14415955102E+02  0.20611538786E+02  0.40780143761E+02  0.00000000000E+00 0. -1.
         -5    1    5    5    0  502 -0.25195603112E+02  0.11495481569E+02  0.57355337904E+02  0.63864616955E+02  0.47000000000E+01 0.  1.
         11    1    6    6    0    0  0.24746915354E+02 -0.14330674953E+02 -0.10037840540E+02  0.30307363905E+02  0.00000000000E+00 0. -1.
        -12    1    6    6    0    0 -0.33694891560E+02 -0.13269336000E+03  0.17867820621E+02  0.13806568190E+03  0.00000000000E+00 0.  1.
</event>
<event>
12    1  0.8113184E-002  0.2642962E+03  0.7818608E-02  0.1104772E+00
         21   -1    0    0  503  502  0.00000000000E+00  0.00000000000E+00  0.94439463222E+03  0.94439463222E+03  0.00000000000E+00 0. -1.
         21   -1    0    0  501  503 -0.00000000000E+00 -0.00000000000E+00 -0.77468310559E+02  0.77468310559E+02  0.00000000000E+00 0.  1.
          6    2    1    2  501    0  0.19887502293E+03  0.16460210700E+02  0.31859023606E+03  0.41315532455E+03  0.17139244560E+03 0.  0.
         24    2    3    3    0    0  0.15746068978E+03 -0.21815874446E+02  0.14469221533E+03  0.23028155033E+03  0.82607227524E+02 0.  0.
         -6    2    1    2    0  502 -0.19887502293E+03 -0.16460210700E+02  0.54833608560E+03  0.60870761823E+03  0.17329249390E+03 0.  0.
        -24    2    5    5    0    0 -0.13978762708E+03 -0.77689633691E+02  0.37590572611E+03  0.41636760299E+03  0.80502211363E+02 0.  0.
          5    1    3    3  501    0  0.41414333145E+02  0.38276085146E+02  0.17389802073E+03  0.18287377422E+03  0.47000000000E+01 0. -1.
        -13    1    4    4    0    0  0.31582585930E+02 -0.34225572479E+02  0.67805550853E+02  0.82258387245E+02  0.00000000000E+00 0.  1.
         14    1    4    4    0    0  0.12587810385E+03  0.12409698033E+02  0.76886664481E+02  0.14802316308E+03  0.00000000000E+00 0. -1.
         -5    1    5    5    0  502 -0.59087395850E+02  0.61229422991E+02  0.17243035949E+03  0.19234001524E+03  0.47000000000E+01 0.  1.
         11    1    6    6    0    0 -0.95605184203E+02 -0.28758612980E+02  0.29816949463E+03  0.31443990935E+03  0.00000000000E+00 0. -1.
        -12    1    6    6    0    0 -0.44182442873E+02 -0.48931020710E+02  0.77736231480E+02  0.10192769364E+03  0.00000000000E+00 0.  1.
</event>
<event>
12    1  0.8113184E-002  0.1770570E+03  0.7818608E-02  0.1171063E+00
         21   -1    0    0  501  502  0.00000000000E+00  0.00000000000E+00  0.13036810533E+03  0.13036810533E+03  0.00000000000E+00 0. -1.
         21   -1    0    0  502  503 -0.00000000000E+00 -0.00000000000E+00 -0.26307748645E+03  0.26307748645E+03  0.00000000000E+00 0. -1.
         -6    2    1    2    0  503 -0.14505313133E+02  0.35242103246E+02 -0.12687984435E+03  0.21782485363E+03  0.17290680151E+03 0.  0.
        -24    2    3    3    0    0 -0.10134119783E+02 -0.39806245537E+01 -0.15055773115E+03  0.17156188755E+03  0.81531006950E+02 0.  0.
          6    2    1    2  501    0  0.14505313133E+02 -0.35242103246E+02 -0.58295367680E+01  0.17562073815E+03  0.17133665755E+03 0.  0.
         24    2    5    5    0    0 -0.67941253666E+00  0.30430640747E+02 -0.45952250090E+02  0.97036978240E+02  0.79862884747E+02 0.  0.
          5    1    5    5  501    0  0.15184725669E+02 -0.65672743992E+02  0.40122713322E+02  0.78583759909E+02  0.47000000000E+01 0. -1.
        -13    1    6    6    0    0  0.31536307844E+02  0.93010728250E+01 -0.48311074694E+02  0.58438074970E+02  0.00000000000E+00 0.  1.
         14    1    6    6    0    0 -0.32215720380E+02  0.21129567922E+02  0.23588246042E+01  0.38598903270E+02  0.00000000000E+00 0. -1.
         -5    1    3    3    0  503 -0.43711933498E+01  0.39222727799E+02  0.23677886803E+02  0.46262966083E+02  0.47000000000E+01 0.  1.
         13    1    4    4    0    0  0.17615346213E+02  0.24549031899E+02 -0.11252926056E+03  0.11651519159E+03  0.00000000000E+00 0. -1.
        -14    1    4    4    0    0 -0.27749465996E+02 -0.28529656452E+02 -0.38028470593E+02  0.55046695959E+02  0.00000000000E+00 0.  1.
</event>
<event>
12    1  0.8113184E-002  0.2015583E+03  0.7818608E-02  0.1148566E+00
         21   -1    0    0  501  502  0.00000000000E+00  0.00000000000E+00  0.63755427656E+02  0.63755427656E+02  0.00000000000E+00 0. -1.
         21   -1    0    0  502  503 -0.00000000000E+00 -0.00000000000E+00 -0.90933196316E+03  0.90933196316E+03  0.00000000000E+00 0. -1.
         -6    2    1    2    0  503 -0.98146597416E+02 -0.34044938921E+02 -0.69041389126E+03  0.71923368920E+03  0.17272505891E+03 0.  0.
        -24    2    3    3    0    0 -0.11171275430E+03 -0.62713598931E+02 -0.40917551798E+03  0.43617354490E+03  0.80062611734E+02 0.  0.
          6    2    1    2  501    0  0.98146597416E+02  0.34044938921E+02 -0.15516264424E+03  0.25385370162E+03  0.17197221638E+03 0.  0.
         24    2    5    5    0    0  0.72813590488E+02 -0.13451207140E+02 -0.16583421242E+03  0.19877541645E+03  0.80795583064E+02 0.  0.
          5    1    5    5  501    0  0.25333006928E+02  0.47496146060E+02  0.10671568172E+02  0.55078285175E+02  0.47000000000E+01 0. -1.
        -11    1    6    6    0    0  0.11505638509E+02  0.62399718368E+01  0.66371903223E+01  0.14675464606E+02  0.00000000000E+00 0.  1.
         12    1    6    6    0    0  0.61307951980E+02 -0.19691178977E+02 -0.17247140274E+03  0.18409995184E+03  0.00000000000E+00 0. -1.
         -5    1    3    3    0  503  0.13566156883E+02  0.28668660010E+02 -0.28123837329E+03  0.28306014429E+03  0.47000000000E+01 0.  1.
         13    1    4    4    0    0 -0.32407481622E+02 -0.20289851581E+02 -0.36717713682E+02  0.53010503113E+02  0.00000000000E+00 0. -1.
        -14    1    4    4    0    0 -0.79305272677E+02 -0.42423747350E+02 -0.37245780430E+03  0.38316304179E+03  0.00000000000E+00 0.  1.
</event>
<event>
12    1  0.8113184E-002  0.2073429E+03  0.7818608E-02  0.1146001E+00
         21   -1    0    0  501  502  0.00000000000E+00  0.00000000000E+00  0.17551887643E+02  0.17551887643E+02  0.00000000000E+00 0.  1.
         21   -1    0    0  502  503 -0.00000000000E+00 -0.00000000000E+00 -0.28796573859E+04  0.28796573859E+04  0.00000000000E+00 0.  1.
         -6    2    1    2    0  503 -0.11691917310E+02  0.10282103414E+03 -0.21017367115E+04  0.21119394575E+04  0.17967248512E+03 0.  0.
        -24    2    3    3    0    0 -0.38652306859E+02 -0.10472955875E+02 -0.87081456203E+03  0.87551161136E+03  0.81233592546E+02 0.  0.
          6    2    1    2  501    0  0.11691917310E+02 -0.10282103414E+03 -0.76036878681E+03  0.78526981604E+03  0.16667071141E+03 0.  0.
         24    2    5    5    0    0  0.22023916293E+01 -0.10964175419E+03 -0.36240390538E+03  0.38710564115E+03  0.80548258709E+02 0.  0.
          5    1    5    5  501    0  0.94895256807E+01  0.68207200513E+01 -0.39796488143E+03  0.39816417490E+03  0.47000000000E+01 0. -1.
        -13    1    6    6    0    0 -0.30770796122E+02 -0.35548230165E+02 -0.75347692312E+02  0.88813249567E+02  0.00000000000E+00 0.  1.
         14    1    6    6    0    0  0.32973187751E+02 -0.74093524026E+02 -0.28705621307E+03  0.29829239158E+03  0.00000000000E+00 0. -1.
         -5    1    3    3    0  503  0.26960389549E+02  0.11329399001E+03 -0.12309221494E+04  0.12364278462E+04  0.47000000000E+01 0.  1.
         13    1    4    4    0    0 -0.49527348170E+02  0.19309060558E+02 -0.38349414899E+03  0.38716089723E+03  0.00000000000E+00 0. -1.
        -14    1    4    4    0    0  0.10875041311E+02 -0.29782016433E+02 -0.48732041304E+03  0.48835071413E+03  0.00000000000E+00 0.  1.
</event>
<event>
12    1  0.8113184E-002  0.2053770E+03  0.7818608E-02  0.1145417E+00
         21   -1    0    0  501  502  0.00000000000E+00  0.00000000000E+00  0.93454292052E+02  0.93454292052E+02  0.00000000000E+00 0.  1.
         21   -1    0    0  502  503 -0.00000000000E+00 -0.00000000000E+00 -0.45764831455E+03  0.45764831455E+03  0.00000000000E+00 0.  1.
         -6    2    1    2    0  503 -0.78029554552E+02 -0.79686304617E+02 -0.21831954972E+03  0.29973842754E+03  0.17245631512E+03 0.  0.
        -24    2    3    3    0    0 -0.31848833463E+01  0.13050666794E+02 -0.51570087449E+02  0.94727833073E+02  0.78316186408E+02 0.  0.
          6    2    1    2  501    0  0.78029554552E+02  0.79686304617E+02 -0.14587447277E+03  0.25136417906E+03  0.17165683844E+03 0.  0.
         24    2    5    5    0    0  0.50148248699E+02  0.10308115039E+03 -0.48985291087E+02  0.14775776250E+03  0.79323560332E+02 0.  0.
          5    1    5    5  501    0  0.27881305853E+02 -0.23394845772E+02 -0.96889181686E+02  0.10360641656E+03  0.47000000000E+01 0. -1.
        -13    1    6    6    0    0  0.58469810481E+02  0.30450543834E+02 -0.28620277927E+02  0.71868453901E+02  0.00000000000E+00 0.  1.
         14    1    6    6    0    0 -0.83215617817E+01  0.72630606555E+02 -0.20365013160E+02  0.75889308602E+02  0.00000000000E+00 0. -1.
         -5    1    3    3    0  503 -0.74844671205E+02 -0.92736971411E+02 -0.16674946227E+03  0.20501059447E+03  0.47000000000E+01 0.  1.
         13    1    4    4    0    0 -0.29446087619E+02 -0.10304437845E+02  0.13213159635E+01  0.31224980244E+02  0.00000000000E+00 0. -1.
        -14    1    4    4    0    0  0.26261204272E+02  0.23355104639E+02 -0.52891403412E+02  0.63502852829E+02  0.00000000000E+00 0.  1.
</event>
<event>
12    1  0.8113184E-002  0.1759074E+03  0.7818608E-02  0.1171964E+00
         21   -1    0    0  503  502  0.00000000000E+00  0.00000000000E+00  0.34614974450E+03  0.34614974450E+03  0.00000000000E+00 0.  1.
         21   -1    0    0  501  503 -0.00000000000E+00 -0.00000000000E+00 -0.21588665018E+03  0.21588665018E+03  0.00000000000E+00 0.  1.
          6    2    1    2  501    0  0.14001963249E+01  0.29326909367E+02 -0.15026147513E+03  0.23092093967E+03  0.17286972351E+03 0.  0.
         24    2    3    3    0    0 -0.25182171012E+01  0.71591848780E+02 -0.15448059242E+03  0.18800742178E+03  0.79691925431E+02 0.  0.
         -6    2    1    2    0  502 -0.14001963249E+01 -0.29326909367E+02  0.28052456945E+03  0.33111545501E+03  0.17343985217E+03 0.  0.
        -24    2    5    5    0    0  0.47105330871E+02 -0.52161752447E+02  0.11345341053E+03  0.15559030476E+03  0.79980659920E+02 0.  0.
          5    1    3    3  501    0  0.39184134261E+01 -0.42264939413E+02  0.42191172930E+01  0.42913517895E+02  0.47000000000E+01 0. -1.
        -13    1    4    4    0    0  0.37853125225E+02  0.26955828279E+02 -0.76410623195E+02  0.89431868506E+02  0.00000000000E+00 0.  1.
         14    1    4    4    0    0 -0.40371342326E+02  0.44636020501E+02 -0.78069969228E+02  0.98575553271E+02  0.00000000000E+00 0. -1.
         -5    1    5    5    0  502 -0.48505527195E+02  0.22834843080E+02  0.16707115892E+03  0.17552515025E+03  0.47000000000E+01 0.  1.
         11    1    6    6    0    0  0.37459465963E+02 -0.84369768849E+01  0.10255404464E+03  0.10950674062E+03  0.00000000000E+00 0. -1.
        -12    1    6    6    0    0  0.96458649075E+01 -0.43724775562E+02  0.10899365894E+02  0.46083564149E+02  0.00000000000E+00 0.  1.
</event>
<event>
12    1  0.8113184E-002  0.2081551E+03  0.7818608E-02  0.1144087E+00
         21   -1    0    0  503  502  0.00000000000E+00  0.00000000000E+00  0.38810741509E+03  0.38810741509E+03  0.00000000000E+00 0. -1.
         21   -1    0    0  501  503 -0.00000000000E+00 -0.00000000000E+00 -0.16795280335E+03  0.16795280335E+03  0.00000000000E+00 0.  1.
          6    2    1    2  501    0  0.10329785255E+03  0.27391260860E+02 -0.55704803218E+02  0.21047817827E+03  0.17256103533E+03 0.  0.
         24    2    3    3    0    0  0.12928629594E+03 -0.50896280365E+01 -0.69719257181E+02  0.16633180521E+03  0.77875824051E+02 0.  0.
         -6    2    1    2    0  502 -0.10329785255E+03 -0.27391260860E+02  0.27585941495E+03  0.34558204017E+03  0.17862755151E+03 0.  0.
        -24    2    5    5    0    0 -0.47770537778E+02 -0.53980167932E+02  0.26069576578E+03  0.28200312133E+03  0.79797213848E+02 0.  0.
          5    1    3    3  501    0 -0.25988443399E+02  0.32480888896E+02  0.14014453962E+02  0.44146373052E+02  0.47000000000E+01 0. -1.
        -11    1    4    4    0    0  0.33713365953E+02  0.32617706416E+02 -0.32445487181E+02  0.57036965682E+02  0.00000000000E+00 0.  1.
         12    1    4    4    0    0  0.95572929991E+02 -0.37707334453E+02 -0.37273770000E+02  0.10929483953E+03  0.00000000000E+00 0. -1.
         -5    1    5    5    0  502 -0.55527314767E+02  0.26588907072E+02  0.15163649177E+02  0.63578918840E+02  0.47000000000E+01 0.  1.
         11    1    6    6    0    0 -0.40814566629E+02 -0.74700970182E+02  0.19509908532E+03  0.21286079227E+03  0.00000000000E+00 0. -1.
        -12    1    6    6    0    0 -0.69559711487E+01  0.20720802250E+02  0.65596680462E+02  0.69142329062E+02  0.00000000000E+00 0.  1.
</event>
<event>
12    1  0.8113184E-002  0.1726262E+03  0.7818608E-02  0.1175481E+00
         21   -1    0    0  503  502  0.00000000000E+00  0.00000000000E+00  0.11344016950E+03  0.11344016950E+03  0.00000000000E+00 0. -1.
         21   -1    0    0  501  503 -0.00000000000E+00 -0.00000000000E+00 -0.28912007669E+03  0.28912007669E+03  0.00000000000E+00 0. -1.
          6    2    1    2  501    0  0.70853401218E+01  0.11127458952E+02 -0.24992361756E+02  0.17442596870E+03  0.17212140490E+03 0.  0.
         24    2    3    3    0    0 -0.25473479816E+02  0.51553312268E+02 -0.56182603848E+02  0.11368679210E+03  0.80383826379E+02 0.  0.
         -6    2    1    2    0  502 -0.70853401218E+01 -0.11127458952E+02 -0.15068754543E+03  0.22813427750E+03  0.17077613953E+03 0.  0.
        -24    2    5    5    0    0 -0.67311559334E+01 -0.24095066714E+02 -0.18401744184E+03  0.19206134732E+03  0.48982257316E+02 0.  0.
          5    1    3    3  501    0  0.32558819938E+02 -0.40425853316E+02  0.31190242092E+02  0.60739176598E+02  0.47000000000E+01 0. -1.
        -13    1    4    4    0    0 -0.13451059282E+01  0.50695557090E+02 -0.69560690624E+02  0.86084484657E+02  0.00000000000E+00 0.  1.
         14    1    4    4    0    0 -0.24128373888E+02  0.85775517768E+00  0.13378086776E+02  0.27602307444E+02  0.00000000000E+00 0. -1.
         -5    1    5    5    0  502 -0.35418418831E+00  0.12967607763E+02  0.33329896406E+02  0.36072930182E+02  0.47000000000E+01 0.  1.
         11    1    6    6    0    0 -0.18602292543E+02  0.49082039864E+01 -0.11020393866E+03  0.11187065678E+03  0.00000000000E+00 0. -1.
        -12    1    6    6    0    0  0.11871136609E+02 -0.29003270701E+02 -0.73813503184E+02  0.80190690532E+02  0.00000000000E+00 0.  1.
</event>
<event>
12    1  0.8113184E-002  0.1754462E+03  0.7818608E-02  0.1172410E+00
         21   -1    0    0  501  502  0.00000000000E+00  0.00000000000E+00  0.78269284046E+03  0.78269284046E+03  0.00000000000E+00 0. -1.
         21   -1    0    0  502  503 -0.00000000000E+00 -0.00000000000E+00 -0.17448099877E+03  0.17448099877E+03  0.00000000000E+00 0. -1.
         -6    2    1    2    0  503 -0.31483826983E+00 -0.36877825869E+02 -0.11737729128E+03  0.21067470463E+03  0.17101558261E+03 0.  0.
        -24    2    3    3    0    0 -0.72354839705E+01 -0.81195153811E+02 -0.11730470912E+03  0.16557463632E+03  0.83723116175E+02 0.  0.
          6    2    1    2  501    0  0.31483826983E+00  0.36877825869E+02  0.72558913298E+03  0.74649913461E+03  0.17152636798E+03 0.  0.
         24    2    5    5    0    0  0.46543916243E+02  0.87285103918E+01  0.22346208586E+03  0.24144154081E+03  0.78206078894E+02 0.  0.
          5    1    5    5  501    0 -0.46229077973E+02  0.28149315477E+02  0.50212704711E+03  0.50505759380E+03  0.47000000000E+01 0. -1.
        -11    1    6    6    0    0  0.43773050459E+02  0.15563077718E+02  0.22806463964E+03  0.23274829578E+03  0.00000000000E+00 0.  1.
         12    1    6    6    0    0  0.27708657836E+01 -0.68345673262E+01 -0.46025537805E+01  0.86932450230E+01  0.00000000000E+00 0. -1.
         -5    1    3    3    0  503  0.69206457007E+01  0.44317327942E+02 -0.72582168450E-01  0.45100068304E+02  0.47000000000E+01 0.  1.
         13    1    4    4    0    0  0.82860034336E+01 -0.31069702761E+02  0.49500519474E+01  0.32534401744E+02  0.00000000000E+00 0. -1.
        -14    1    4    4    0    0 -0.15521487404E+02 -0.50125451050E+02 -0.12225476106E+03  0.13304023458E+03  0.00000000000E+00 0.  1.
</event>
<event>
12    1  0.8113184E-002  0.2139617E+03  0.7818608E-02  0.1138963E+00
         21   -1    0    0  501  502  0.00000000000E+00  0.00000000000E+00  0.17973448402E+03  0.17973448402E+03  0.00000000000E+00 0. -1.
         21   -1    0    0  502  503 -0.00000000000E+00 -0.00000000000E+00 -0.52342902829E+03  0.52342902829E+03  0.00000000000E+00 0.  1.
         -6    2    1    2    0  503  0.67682530066E+02 -0.10106822377E+03 -0.42467813937E+03  0.47438862685E+03  0.17290846275E+03 0.  0.
        -24    2    3    3    0    0  0.93709255660E+02 -0.12454327257E+03 -0.35986990615E+03  0.40056000466E+03  0.81544568412E+02 0.  0.
          6    2    1    2  501    0 -0.67682530066E+02  0.10106822377E+03  0.80983595099E+02  0.22877488546E+03  0.17602242700E+03 0.  0.
         24    2    5    5    0    0 -0.18918306127E+02  0.11932950121E+03  0.96673682556E+02  0.17418832452E+03  0.79989620183E+02 0.  0.
          5    1    5    5  501    0 -0.48764223940E+02 -0.18261277436E+02 -0.15690087456E+02  0.54586560933E+02  0.47000000000E+01 0. -1.
        -11    1    6    6    0    0 -0.27426655768E+02  0.19355502045E+02 -0.17814198940E+01  0.33615924245E+02  0.00000000000E+00 0.  1.
         12    1    6    6    0    0  0.85083496415E+01  0.99973999160E+02  0.98455102450E+02  0.14057240028E+03  0.00000000000E+00 0. -1.
         -5    1    3    3    0  503 -0.26026725594E+02  0.23475048805E+02 -0.64808233218E+02  0.73828622190E+02  0.47000000000E+01 0.  1.
         11    1    4    4    0    0  0.52864622479E+02 -0.76930287262E+02 -0.11675113011E+03  0.14947830542E+03  0.00000000000E+00 0. -1.
        -12    1    4    4    0    0  0.40844633181E+02 -0.47612985312E+02 -0.24311877604E+03  0.25108169924E+03  0.00000000000E+00 0.  1.
</event>
<event>
12    1  0.8113184E-002  0.2002633E+03  0.7818608E-02  0.1149787E+00
         21   -1    0    0  501  502  0.00000000000E+00  0.00000000000E+00  0.17604113300E+04  0.17604113300E+04  0.00000000000E+00 0.  1.
         21   -1    0    0  502  503 -0.00000000000E+00 -0.00000000000E+00 -0.42140613302E+02  0.42140613302E+02  0.00000000000E+00 0. -1.
         -6    2    1    2    0  503 -0.74047994478E+02 -0.68131120671E+02  0.24451142138E+03  0.31524839383E+03  0.17167049700E+03 0.  0.
        -24    2    3    3    0    0 -0.51069161577E+02 -0.20581353009E+02  0.24424277790E+03  0.26222793235E+03  0.77957056090E+02 0.  0.
          6    2    1    2  501    0  0.74047994478E+02  0.68131120671E+02  0.14737592954E+04  0.14873035495E+04  0.17314858545E+03 0.  0.
         24    2    5    5    0    0  0.45886832613E+02  0.11313299325E+03  0.10964818943E+04  0.11062805227E+04  0.81727442877E+02 0.  0.
          5    1    5    5  501    0  0.28161161865E+02 -0.45001872575E+02  0.37727740110E+03  0.38102302680E+03  0.47000000000E+01 0. -1.
        -11    1    6    6    0    0  0.16261230583E+02 -0.92594408890E+01  0.22065069759E+03  0.22144275832E+03  0.00000000000E+00 0.  1.
         12    1    6    6    0    0  0.29625602030E+02  0.12239243414E+03  0.87583119667E+03  0.88483776439E+03  0.00000000000E+00 0. -1.
         -5    1    3    3    0  503 -0.22978832901E+02 -0.47549767662E+02  0.26864348035E+00  0.53020461480E+02  0.47000000000E+01 0.  1.
         11    1    4    4    0    0 -0.61760447751E+02 -0.18955283582E+02  0.11013370545E+03  0.12768354929E+03  0.00000000000E+00 0. -1.
        -12    1    4    4    0    0  0.10691286174E+02 -0.16260694269E+01  0.13410907245E+03  0.13454438306E+03  0.00000000000E+00 0.  1.
</event>
<event>
12    1  0.8113184E-002  0.2148180E+03  0.7818608E-02  0.1138205E+00
         21   -1    0    0  501  502  0.00000000000E+00  0.00000000000E+00  0.79107995631E+03  0.79107995631E+03  0.00000000000E+00 0.  1.
         21   -1    0    0  502  503 -0.00000000000E+00 -0.00000000000E+00 -0.99124349217E+02  0.99124349217E+02  0.00000000000E+00 0. -1.
         -6    2    1    2    0  503 -0.12064792322E+01  0.12840232056E+03  0.59475775603E+02  0.22289943145E+03  0.17221549623E+03 0.  0.
        -24    2    3    3    0    0  0.41810186978E+02  0.97414085919E+02  0.94554017121E+02  0.15915559029E+03  0.71780525892E+02 0.  0.
          6    2    1    2  501    0  0.12064792322E+01 -0.12840232056E+03  0.63247983149E+03  0.66730487408E+03  0.16963621725E+03 0.  0.
         24    2    5    5    0    0 -0.46804586324E+02 -0.12819070951E+03  0.53427858040E+03  0.55789425800E+03  0.84669205290E+02 0.  0.
          5    1    5    5  501    0  0.48011065556E+02 -0.21161104820E+00  0.98201251090E+02  0.10941061608E+03  0.47000000000E+01 0. -1.
        -11    1    6    6    0    0 -0.42876277837E+01  0.11078550009E+01  0.15275003030E+03  0.15281421024E+03  0.00000000000E+00 0.  1.
         12    1    6    6    0    0 -0.42516958540E+02 -0.12929856451E+03  0.38152855011E+03  0.40508004776E+03  0.00000000000E+00 0. -1.
         -5    1    3    3    0  503 -0.43016666210E+02  0.30988234640E+02 -0.35078241517E+02  0.63743841161E+02  0.47000000000E+01 0.  1.
         13    1    4    4    0    0 -0.44389385945E+01  0.56615878587E+02  0.75762771435E+02  0.94683997695E+02  0.00000000000E+00 0. -1.
        -14    1    4    4    0    0  0.46249125573E+02  0.40798207332E+02  0.18791245686E+02  0.64471592599E+02  0.00000000000E+00 0.  1.
</event>
<event>
12    1  0.8113184E-002  0.2009330E+03  0.7818608E-02  0.1148982E+00
         21   -1    0    0  501  502  0.00000000000E+00  0.00000000000E+00  0.49707414372E+03  0.49707414372E+03  0.00000000000E+00 0. -1.
         21   -1    0    0  502  503 -0.00000000000E+00 -0.00000000000E+00 -0.10127617222E+03  0.10127617222E+03  0.00000000000E+00 0. -1.
         -6    2    1    2    0  503 -0.93156763999E+00  0.10119885201E+03  0.64546481377E+02  0.21092080963E+03  0.17343374588E+03 0.  0.
        -24    2    3    3    0    0 -0.69334263030E+01  0.88855188339E+02  0.11041795039E+03  0.16280979208E+03  0.79822225811E+02 0.  0.
          6    2    1    2  501    0  0.93156763999E+00 -0.10119885201E+03  0.33125149012E+03  0.38742950631E+03  0.17358570560E+03 0.  0.
         24    2    5    5    0    0  0.64584499328E+02 -0.36732876085E+02  0.16984029246E+03  0.20227221509E+03  0.80918862533E+02 0.  0.
          5    1    5    5  501    0 -0.63652931688E+02 -0.64465975930E+02  0.16141119765E+03  0.18515729122E+03  0.47000000000E+01 0. -1.
        -11    1    6    6    0    0  0.14782411975E+02  0.10612105527E+02 -0.90388253559E+00  0.18219590861E+02  0.00000000000E+00 0.  1.
         12    1    6    6    0    0  0.49802087353E+02 -0.47344981612E+02  0.17074417500E+03  0.18405262423E+03  0.00000000000E+00 0. -1.
         -5    1    3    3    0  503  0.60018586630E+01  0.12343663676E+02 -0.45871469014E+02  0.48111017551E+02  0.47000000000E+01 0.  1.
         13    1    4    4    0    0 -0.26272527416E+02  0.79974728889E+02  0.48086930125E+02  0.96946149003E+02  0.00000000000E+00 0. -1.
        -14    1    4    4    0    0  0.19339101113E+02  0.88804594495E+01  0.62331020266E+02  0.65863643076E+02  0.00000000000E+00 0.  1.
</event>
<event>
12    1  0.8113184E-002  0.2176681E+03  0.7818608E-02  0.1137837E+00
         21   -1    0    0  501  502  0.00000000000E+00  0.00000000000E+00  0.11167860566E+03  0.11167860566E+03  0.00000000000E+00 0.  1.
         21   -1    0    0  502  503 -0.00000000000E+00 -0.00000000000E+00 -0.96735615596E+03  0.96735615596E+03  0.00000000000E+00 0. -1.
         -6    2    1    2    0  503  0.61713667321E+02 -0.11785010189E+03 -0.83530835733E+03  0.86041568207E+03  0.15772720401E+03 0.  0.
        -24    2    3    3    0    0  0.13053449291E+02 -0.74116479429E+02 -0.71475007742E+03  0.72316833089E+03  0.80256567134E+02 0.  0.
          6    2    1    2  501    0 -0.61713667321E+02  0.11785010189E+03 -0.20369192974E+02  0.21861907956E+03  0.17228515512E+03 0.  0.
         24    2    5    5    0    0 -0.54136069813E+02  0.96144341225E+02 -0.78522831197E+02  0.15590946571E+03  0.77249453556E+02 0.  0.
          5    1    5    5  501    0 -0.75775975079E+01  0.21705760669E+02  0.58153638223E+02  0.62709613847E+02  0.47000000000E+01 0. -1.
        -11    1    6    6    0    0  0.14402234290E+02  0.46806184651E+02 -0.18713242819E+02  0.52425458805E+02  0.00000000000E+00 0.  1.
         12    1    6    6    0    0 -0.68538304102E+02  0.49338156574E+02 -0.59809588378E+02  0.10348400691E+03  0.00000000000E+00 0. -1.
         -5    1    3    3    0  503  0.48660218030E+02 -0.43733622465E+02 -0.12055827991E+03  0.13724735118E+03  0.47000000000E+01 0.  1.
         13    1    4    4    0    0  0.44311262021E+02 -0.41602471660E+02 -0.30914269972E+03  0.31506104548E+03  0.00000000000E+00 0. -1.
        -14    1    4    4    0    0 -0.31257812730E+02 -0.32514007770E+02 -0.40560737769E+03  0.40810728540E+03  0.00000000000E+00 0.  1.
</event>
<event>
12    1  0.8113184E-002  0.1983901E+03  0.7818608E-02  0.1151150E+00
         21   -1    0    0  501  502  0.00000000000E+00  0.00000000000E+00  0.60540952979E+02  0.60540952979E+02  0.00000000000E+00 0.  1.
         21   -1    0    0  502  503 -0.00000000000E+00 -0.00000000000E+00 -0.77939962163E+03  0.77939962163E+03  0.00000000000E+00 0.  1.
         -6    2    1    2    0  503  0.67363863642E+02  0.70929658187E+02 -0.53109747375E+03  0.56694194860E+03  0.17259704495E+03 0.  0.
        -24    2    3    3    0    0  0.53111456013E+02  0.94265293399E+02 -0.24555735395E+03  0.28005707098E+03  0.80167179232E+02 0.  0.
          6    2    1    2  501    0 -0.67363863642E+02 -0.70929658187E+02 -0.18776119490E+03  0.27299862601E+03  0.17235160851E+03 0.  0.
         24    2    5    5    0    0 -0.53661862982E+02  0.14528394435E+02 -0.54940067540E+02  0.11439734779E+03  0.83532463005E+02 0.  0.
          5    1    5    5  501    0 -0.13702000660E+02 -0.85458052622E+02 -0.13282112736E+03  0.15860127822E+03  0.47000000000E+01 0. -1.
        -11    1    6    6    0    0 -0.41961301371E+02 -0.91175940546E+01 -0.71388146180E+02  0.83307555175E+02  0.00000000000E+00 0.  1.
         12    1    6    6    0    0 -0.11700561611E+02  0.23645988489E+02  0.16448078641E+02  0.31089792612E+02  0.00000000000E+00 0. -1.
         -5    1    3    3    0  503  0.14252407629E+02 -0.23335635212E+02 -0.28554011980E+03  0.28688487762E+03  0.47000000000E+01 0.  1.
         13    1    4    4    0    0 -0.23213299711E+01 -0.49583401100E+01 -0.74387651046E+02  0.74588848614E+02  0.00000000000E+00 0. -1.
        -14    1    4    4    0    0  0.55432785984E+02  0.99223633510E+02 -0.17116970291E+03  0.20546822236E+03  0.00000000000E+00 0.  1.
</event>
<event>
12    1  0.8113184E-002  0.2939729E+03  0.7818608E-02  0.1088322E+00
         21   -1    0    0  501  502  0.00000000000E+00  0.00000000000E+00  0.64558963008E+03  0.64558963008E+03  0.00000000000E+00 0. -1.
         21   -1    0    0  502  503 -0.00000000000E+00 -0.00000000000E+00 -0.21004849663E+03  0.21004849663E+03  0.00000000000E+00 0. -1.
         -6    2    1    2    0  503 -0.22533278229E+03  0.77056365991E+02 -0.40005009416E+02  0.29668244452E+03  0.17235871255E+03 0.  0.
        -24    2    3    3    0    0 -0.62102345867E+02  0.15302663117E+02  0.32096081127E+02  0.10779530242E+03  0.80615109866E+02 0.  0.
          6    2    1    2  501    0  0.22533278229E+03 -0.77056365991E+02  0.47554614286E+03  0.55895568218E+03  0.17197317912E+03 0.  0.
         24    2    5    5    0    0  0.11260152710E+03  0.28138979584E+02  0.23951744708E+03  0.27698754238E+03  0.76698012383E+02 0.  0.
          5    1    5    5  501    0  0.11273125520E+03 -0.10519534558E+03  0.23602869578E+03  0.28196813980E+03  0.47000000000E+01 0. -1.
        -13    1    6    6    0    0 -0.50390353340E+01  0.18437289430E+02  0.19498130179E+02  0.27303893479E+02  0.00000000000E+00 0.  1.
         14    1    6    6    0    0  0.11764056243E+03  0.97016901542E+01  0.22001931690E+03  0.24968364890E+03  0.00000000000E+00 0. -1.
         -5    1    3    3    0  503 -0.16323043642E+03  0.61753702874E+02 -0.72101090543E+02  0.18888714210E+03  0.47000000000E+01 0.  1.
         13    1    4    4    0    0 -0.58939611044E+02  0.26282973864E+02 -0.89830877546E+01  0.65156491087E+02  0.00000000000E+00 0. -1.
        -14    1    4    4    0    0 -0.31627348237E+01 -0.10980310747E+02  0.41079168881E+02  0.42638811330E+02  0.00000000000E+00 0.  1.
</event>
<event>
12    1  0.8113184E-002  0.2732253E+03  0.7818608E-02  0.1100368E+00
         21   -1    0    0  501  502  0.00000000000E+00  0.00000000000E+00  0.99182643585E+03  0.99182643585E+03  0.00000000000E+00 0. -1.
         21   -1    0    0  502  503 -0.00000000000E+00 -0.00000000000E+00 -0.10093628340E+03  0.10093628340E+03  0.00000000000E+00 0.  1.
         -6    2    1    2    0  503  0.68105718754E+02  0.18964943431E+03  0.15673526717E+03  0.30941385807E+03  0.17483047426E+03 0.  0.
        -24    2    3    3    0    0  0.75027607295E+02  0.49572724768E+02  0.39975021721E+02  0.12686402374E+03  0.80061734059E+02 0.  0.
          6    2    1    2  501    0 -0.68105718754E+02 -0.18964943431E+03  0.73415488529E+03  0.78334886117E+03  0.18451760308E+03 0.  0.
         24    2    5    5    0    0 -0.11072109124E+03 -0.86509404476E+02  0.46303909269E+03  0.49012574012E+03  0.77942303385E+02 0.  0.
          5    1    5    5  501    0  0.42615372483E+02 -0.10314002984E+03  0.27111579259E+03  0.29322312105E+03  0.47000000000E+01 0. -1.
        -13    1    6    6    0    0 -0.56572568937E+02 -0.15132965357E+02  0.97217725504E+02  0.11349338460E+03  0.00000000000E+00 0.  1.
         14    1    6    6    0    0 -0.54148522301E+02 -0.71376439119E+02  0.36582136719E+03  0.37663235552E+03  0.00000000000E+00 0. -1.
         -5    1    3    3    0  503 -0.69218885402E+01  0.14007670955E+03  0.11676024545E+03  0.18254983433E+03  0.47000000000E+01 0.  1.
         11    1    4    4    0    0 -0.14796937191E+02  0.12412722824E+02  0.19653281376E+02  0.27554972455E+02  0.00000000000E+00 0. -1.
        -12    1    4    4    0    0  0.89824544485E+02  0.37160001944E+02  0.20321740345E+02  0.99309051285E+02  0.00000000000E+00 0.  1.
</event>
<event>
12    1  0.8113184E-002  0.1987705E+03  0.7818608E-02  0.1150794E+00
         21   -1    0    0  503  502  0.00000000000E+00  0.00000000000E+00  0.33265368604E+03  0.33265368604E+03  0.00000000000E+00 0. -1.
         21   -1    0    0  501  503 -0.00000000000E+00 -0.00000000000E+00 -0.35673318524E+03  0.35673318524E+03  0.00000000000E+00 0.  1.
          6    2    1    2  501    0 -0.60109377099E+02  0.79563234628E+02 -0.29358699245E+03  0.35454622924E+03  0.17194842544E+03 0.  0.
         24    2    3    3    0    0 -0.30967764583E+02 -0.18061338815E+02 -0.18696380898E+03  0.20699832457E+03  0.81287305905E+02 0.  0.
         -6    2    1    2    0  502  0.60109377099E+02 -0.79563234628E+02  0.26950749325E+03  0.33484064205E+03  0.17187356146E+03 0.  0.
        -24    2    5    5    0    0  0.15338534551E+02 -0.88235907710E+02  0.26269781264E+03  0.28849298460E+03  0.78722394196E+02 0.  0.
          5    1    3    3  501    0 -0.29141612516E+02  0.97624573442E+02 -0.10662318347E+03  0.14754790467E+03  0.47000000000E+01 0. -1.
        -11    1    4    4    0    0  0.11614511599E+02  0.24814681095E+02 -0.73604771462E+02  0.78538701666E+02  0.00000000000E+00 0.  1.
         12    1    4    4    0    0 -0.42582276182E+02 -0.42876019910E+02 -0.11335903752E+03  0.12845962290E+03  0.00000000000E+00 0. -1.
         -5    1    5    5    0  502  0.44770842548E+02  0.86726730826E+01  0.68096806163E+01  0.46347657448E+02  0.47000000000E+01 0.  1.
         13    1    6    6    0    0  0.21398726703E+02 -0.70040450033E+00  0.11270046596E+03  0.11471613268E+03  0.00000000000E+00 0. -1.
        -14    1    6    6    0    0 -0.60601921516E+01 -0.87535503210E+02  0.14999734668E+03  0.17377685191E+03  0.00000000000E+00 0.  1.
</event>
<event>
12    1  0.8113184E-002  0.1884654E+03  0.7818608E-02  0.1159975E+00
         21   -1    0    0  501  502  0.00000000000E+00  0.00000000000E+00  0.52554640185E+03  0.52554640185E+03  0.00000000000E+00 0. -1.
         21   -1    0    0  502  503 -0.00000000000E+00 -0.00000000000E+00 -0.13599721828E+03  0.13599721828E+03  0.00000000000E+00 0. -1.
         -6    2    1    2    0  503  0.73134661973E+02 -0.20717073856E+02 -0.40017470106E+02  0.19266708356E+03  0.17245675180E+03 0.  0.
        -24    2    3    3    0    0  0.65629023962E+02 -0.37623704037E+02  0.35564774698E+02  0.11471238854E+03  0.78558048554E+02 0.  0.
          6    2    1    2  501    0 -0.73134661973E+02  0.20717073856E+02  0.42956665368E+03  0.46887653658E+03  0.17187152374E+03 0.  0.
         24    2    5    5    0    0 -0.39707447060E+00  0.32007491162E+02  0.34965124996E+03  0.36012548183E+03  0.80060782560E+02 0.  0.
          5    1    5    5  501    0 -0.72737587502E+02 -0.11290417306E+02  0.79915403713E+02  0.10875105475E+03  0.47000000000E+01 0. -1.
        -11    1    6    6    0    0  0.38327898183E+02  0.56430099804E+01  0.18020804406E+03  0.18432528444E+03  0.00000000000E+00 0.  1.
         12    1    6    6    0    0 -0.38724972654E+02  0.26364481182E+02  0.16944320591E+03  0.17580019739E+03  0.00000000000E+00 0. -1.
         -5    1    3    3    0  503  0.75056380107E+01  0.16906630182E+02 -0.75582244804E+02  0.77954695020E+02  0.47000000000E+01 0.  1.
         13    1    4    4    0    0  0.34490637032E+02  0.21168552025E+02  0.24392947893E+02  0.47251746472E+02  0.00000000000E+00 0. -1.
        -14    1    4    4    0    0  0.31138386930E+02 -0.58792256063E+02  0.11171826805E+02  0.67460642064E+02  0.00000000000E+00 0.  1.
</event>
<event>
12    1  0.8113184E-002  0.1911395E+03  0.7818608E-02  0.1157586E+00
         21   -1    0    0  501  502  0.00000000000E+00  0.00000000000E+00  0.18365198763E+03  0.18365198763E+03  0.00000000000E+00 0.  1.
         21   -1    0    0  502  503 -0.00000000000E+00 -0.00000000000E+00 -0.82861322857E+03  0.82861322857E+03  0.00000000000E+00 0.  1.
         -6    2    1    2    0  503 -0.56229991517E+02 -0.63646845994E+02 -0.76380098267E+03  0.78719368469E+03  0.17049698864E+03 0.  0.
        -24    2    3    3    0    0 -0.64256874343E+02 -0.10262675613E+03 -0.66497970700E+03  0.68055598607E+03  0.79355166684E+02 0.  0.
          6    2    1    2  501    0  0.56229991517E+02  0.63646845994E+02  0.11883974172E+03  0.22507153151E+03  0.17123544357E+03 0.  0.
         24    2    5    5    0    0  0.32444009175E+02 -0.16230376787E+02  0.11216051231E+03  0.14132879582E+03  0.77960304930E+02 0.  0.
          5    1    5    5  501    0  0.23785982342E+02  0.79877222782E+02  0.66792294089E+01  0.83742735690E+02  0.47000000000E+01 0. -1.
        -13    1    6    6    0    0  0.13987973299E+02  0.19523149796E+01  0.11445135239E+03  0.11531949963E+03  0.00000000000E+00 0.  1.
         14    1    6    6    0    0  0.18456035876E+02 -0.18182691767E+02 -0.22908400799E+01  0.26009296192E+02  0.00000000000E+00 0. -1.
         -5    1    3    3    0  503  0.80268828255E+01  0.38979910134E+02 -0.98821275668E+02  0.10663769862E+03  0.47000000000E+01 0.  1.
         13    1    4    4    0    0 -0.24681369166E+02 -0.82064177818E+01 -0.43367177299E+02  0.50569035423E+02  0.00000000000E+00 0. -1.
        -14    1    4    4    0    0 -0.39575505176E+02 -0.94420338346E+02 -0.62161252970E+03  0.62998695065E+03  0.00000000000E+00 0.  1.
</event>
<event>
12    1  0.8113184E-002  0.1905675E+03  0.7818608E-02  0.1159145E+00
         21   -1    0    0  501  502  0.00000000000E+00  0.00000000000E+00  0.11885872387E+03  0.11885872387E+03  0.00000000000E+00 0. -1.
         21   -1    0    0  502  503 -0.00000000000E+00 -0.00000000000E+00 -0.38166561883E+03  0.38166561883E+03  0.00000000000E+00 0. -1.
         -6    2    1    2    0  503  0.61808620435E+02 -0.30335874480E+02 -0.15105353315E+02  0.19116522846E+03  0.17769468769E+03 0.  0.
        -24    2    3    3    0    0  0.61096161197E+02 -0.29907506200E+02  0.60511919257E+02  0.11539747141E+03  0.70906164722E+02 0.  0.
          6    2    1    2  501    0 -0.61808620435E+02  0.30335874480E+02 -0.24770154164E+03  0.30935911424E+03  0.17206521145E+03 0.  0.
         24    2    5    5    0    0  0.17558949707E+02 -0.70703180277E+01 -0.59941097373E+02  0.10205617442E+03  0.80400382278E+02 0.  0.
          5    1    5    5  501    0 -0.79367570142E+02  0.37406192508E+02 -0.18776044427E+03  0.20730293982E+03  0.47000000000E+01 0. -1.
        -11    1    6    6    0    0  0.29747554005E+02  0.49539852264E+01 -0.73995598432E+02  0.79904990622E+02  0.00000000000E+00 0.  1.
         12    1    6    6    0    0 -0.12188604298E+02 -0.12024303254E+02  0.14054501059E+02  0.22151183795E+02  0.00000000000E+00 0. -1.
         -5    1    3    3    0  503  0.71245923788E+00 -0.42836827964E+00 -0.75617272572E+02  0.75767757052E+02  0.47000000000E+01 0.  1.
         13    1    4    4    0    0  0.34886835706E+02 -0.26968004848E+02 -0.53814179474E+01  0.44422114428E+02  0.00000000000E+00 0. -1.
        -14    1    4    4    0    0  0.26209325490E+02 -0.29395013524E+01  0.65893337204E+02  0.70975356982E+02  0.00000000000E+00 0.  1.
</event>
<event>
12    1  0.8113184E-002  0.2221721E+03  0.7818608E-02  0.1132341E+00
         21   -1    0    0  501  502  0.00000000000E+00  0.00000000000E+00  0.21846322914E+03  0.21846322914E+03  0.00000000000E+00 0. -1.
         21   -1    0    0  502  503 -0.00000000000E+00 -0.00000000000E+00 -0.25345339852E+03  0.25345339852E+03  0.00000000000E+00 0.  1.
         -6    2    1    2    0  503  0.63599485515E+02  0.12528694260E+03 -0.95763779360E+02  0.24193207489E+03  0.17210088575E+03 0.  0.
        -24    2    3    3    0    0  0.68281679306E+02  0.13476700317E+03 -0.26200148794E+02  0.17141269326E+03  0.76624609250E+02 0.  0.
          6    2    1    2  501    0 -0.63599485515E+02 -0.12528694260E+03  0.60773609976E+02  0.22998455278E+03  0.17163260267E+03 0.  0.
         24    2    5    5    0    0 -0.75700373815E+02 -0.19510819498E+02  0.14823988332E+02  0.11393078314E+03  0.81542958272E+02 0.  0.
          5    1    5    5  501    0  0.12100888300E+02 -0.10577612311E+03  0.45949621644E+02  0.11605376963E+03  0.47000000000E+01 0. -1.
        -11    1    6    6    0    0  0.15521879683E+02 -0.12715101770E+02 -0.41967462895E+01  0.20499152210E+02  0.00000000000E+00 0.  1.
         12    1    6    6    0    0 -0.91222253498E+02 -0.67957177273E+01  0.19020734621E+02  0.93431630930E+02  0.00000000000E+00 0. -1.
         -5    1    3    3    0  503 -0.46821937912E+01 -0.94800605651E+01 -0.69563630565E+02  0.70519381623E+02  0.47000000000E+01 0.  1.
         11    1    4    4    0    0 -0.23173677360E+00  0.55307541432E+02  0.17128220019E+02  0.57899514352E+02  0.00000000000E+00 0. -1.
        -12    1    4    4    0    0  0.68513416080E+02  0.79459461738E+02 -0.43328368813E+02  0.11351317891E+03  0.00000000000E+00 0.  1.
</event>
<event>
12    1  0.8113184E-002  0.1845249E+03  0.7818608E-02  0.1165004E+00
         21   -1    0    0  501  502  0.00000000000E+00  0.00000000000E+00  0.14817191346E+04  0.14817191346E+04  0.00000000000E+00 0.  1.
         21   -1    0    0  502  503 -0.00000000000E+00 -0.00000000000E+00 -0.22952149662E+02  0.22952149662E+02  0.00000000000E+00 0.  1.
         -6    2    1    2    0  503 -0.57381818077E+02  0.32920941477E+02  0.85336045486E+03  0.87176804488E+03  0.16546599864E+03 0.  0.
        -24    2    3    3    0    0  0.23932770307E+02  0.43902161361E+02  0.52215713435E+03  0.53051977896E+03  0.79391344890E+02 0.  0.
          6    2    1    2  501    0  0.57381818077E+02 -0.32920941477E+02  0.60540653009E+03  0.63290323941E+03  0.17225847537E+03 0.  0.
         24    2    5    5    0    0 -0.13037819017E+02  0.10072338015E+02  0.14608215907E+03  0.16620385523E+03  0.77538942333E+02 0.  0.
          5    1    5    5  501    0  0.70419637094E+02 -0.42993279491E+02  0.45932437103E+03  0.46669938418E+03  0.47000000000E+01 0. -1.
        -13    1    6    6    0    0  0.14702820777E+02  0.90924239849E+01 -0.22319446382E+00  0.17288577977E+02  0.00000000000E+00 0.  1.
         14    1    6    6    0    0 -0.27740639793E+02  0.97991402984E+00  0.14630535353E+03  0.14891527725E+03  0.00000000000E+00 0. -1.
         -5    1    3    3    0  503 -0.81314588384E+02 -0.10981219885E+02  0.33120332051E+03  0.34124826592E+03  0.47000000000E+01 0.  1.
         13    1    4    4    0    0 -0.74254769793E+00  0.25610289756E+02  0.40759890325E+02  0.48143607860E+02  0.00000000000E+00 0. -1.
        -14    1    4    4    0    0  0.24675318005E+02  0.18291871605E+02  0.48139724403E+03  0.48237617110E+03  0.00000000000E+00 0.  1.
</event>
<event>
12    1  0.8113184E-002  0.2396989E+03  0.7818608E-02  0.1120245E+00
         21   -1    0    0  501  502  0.00000000000E+00  0.00000000000E+00  0.10306649212E+04  0.10306649212E+04  0.00000000000E+00 0.  1.
         21   -1    0    0  502  503 -0.00000000000E+00 -0.00000000000E+00 -0.13864544599E+03  0.13864544599E+03  0.00000000000E+00 0. -1.
         -6    2    1    2    0  503 -0.16317086521E+03 -0.32726118803E+02 -0.64666117877E+01  0.23978611777E+03  0.17251039129E+03 0.  0.
        -24    2    3    3    0    0 -0.15993063349E+03 -0.70016509212E+02  0.20307733513E+02  0.19352568236E+03  0.80991768718E+02 0.  0.
          6    2    1    2  501    0  0.16317086521E+03  0.32726118803E+02  0.89848608704E+03  0.92952424946E+03  0.17041816699E+03 0.  0.
         24    2    5    5    0    0  0.18254007516E+03 -0.10816167916E+01  0.72954879950E+03  0.75608830625E+03  0.78141071493E+02 0.  0.
          5    1    5    5  501    0 -0.19369209952E+02  0.33807735595E+02  0.16893728753E+03  0.17343594321E+03  0.47000000000E+01 0. -1.
        -13    1    6    6    0    0  0.42139094749E+02 -0.98618486105E+01  0.32305563329E+03  0.32594156157E+03  0.00000000000E+00 0.  1.
         14    1    6    6    0    0  0.14040098041E+03  0.87802318190E+01  0.40649316622E+03  0.43014674468E+03  0.00000000000E+00 0. -1.
         -5    1    3    3    0  503 -0.32402317206E+01  0.37290390409E+02 -0.26774345301E+02  0.46260435414E+02  0.47000000000E+01 0.  1.
         11    1    4    4    0    0 -0.13010747467E+03 -0.86146750157E+02  0.28549406111E+02  0.15863255062E+03  0.00000000000E+00 0. -1.
        -12    1    4    4    0    0 -0.29823158820E+02  0.16130240945E+02 -0.82416725980E+01  0.34893131733E+02  0.00000000000E+00 0.  1.
</event>
<event>
12    1  0.8113184E-002  0.2096457E+03  0.7818608E-02  0.1141926E+00
         21   -1    0    0  503  502  0.00000000000E+00  0.00000000000E+00  0.29687137803E+02  0.29687137803E+02  0.00000000000E+00 0. -1.
         21   -1    0    0  501  503 -0.00000000000E+00 -0.00000000000E+00 -0.15026503718E+04  0.15026503718E+04  0.00000000000E+00 0. -1.
          6    2    1    2  501    0  0.11253520784E+03 -0.39595456481E+02 -0.83454655845E+03  0.86037979528E+03  0.17191120010E+03 0.  0.
         24    2    3    3    0    0  0.69330203922E+01 -0.54197181076E+02 -0.31239677744E+03  0.32743747554E+03  0.81474858853E+02 0.  0.
         -6    2    1    2    0  502 -0.11253520784E+03  0.39595456481E+02 -0.63841667554E+03  0.67195771432E+03  0.17239299594E+03 0.  0.
        -24    2    5    5    0    0 -0.12146697171E+03 -0.53376841331E+00 -0.59262958143E+03  0.61024321778E+03  0.80202580602E+02 0.  0.
          5    1    3    3  501    0  0.10560218745E+03  0.14601724595E+02 -0.52214978101E+03  0.53294231974E+03  0.47000000000E+01 0. -1.
        -13    1    4    4    0    0  0.58409914128E+01 -0.37960760808E+02 -0.43421425640E+02  0.57970309180E+02  0.00000000000E+00 0.  1.
         14    1    4    4    0    0  0.10920289794E+01 -0.16236420268E+02 -0.26897535180E+03  0.26946716636E+03  0.00000000000E+00 0. -1.
         -5    1    5    5    0  502  0.89317638656E+01  0.40129224894E+02 -0.45787094111E+02  0.61714496542E+02  0.47000000000E+01 0.  1.
         11    1    6    6    0    0 -0.33248473084E+02  0.36304538997E+02 -0.17350515841E+03  0.18035387578E+03  0.00000000000E+00 0. -1.
        -12    1    6    6    0    0 -0.88218498625E+02 -0.36838307410E+02 -0.41912442302E+03  0.42988934200E+03  0.00000000000E+00 0.  1.
</event>
<event>
12    1  0.8113184E-002  0.1870196E+03  0.7818608E-02  0.1161248E+00
         21   -1    0    0  501  502  0.00000000000E+00  0.00000000000E+00  0.13858315454E+03  0.13858315454E+03  0.00000000000E+00 0. -1.
         21   -1    0    0  502  503 -0.00000000000E+00 -0.00000000000E+00 -0.25633894802E+03  0.25633894802E+03  0.00000000000E+00 0.  1.
         -6    2    1    2    0  503  0.68872381088E+02 -0.24994675128E+02 -0.33147663541E+02  0.18993443097E+03  0.17207028159E+03 0.  0.
        -24    2    3    3    0    0 -0.30989698878E+02 -0.59785157709E+01 -0.22981205868E+02  0.87662752612E+02  0.78488969193E+02 0.  0.
          6    2    1    2  501    0 -0.68872381088E+02  0.24994675128E+02 -0.84608129934E+02  0.20498767160E+03  0.17173605095E+03 0.  0.
         24    2    5    5    0    0 -0.20408093680E+02  0.70854844474E+02 -0.84534010059E+02  0.13809942315E+03  0.80551552095E+02 0.  0.
          5    1    5    5  501    0 -0.48464287408E+02 -0.45860169346E+02 -0.74119875411E-01  0.66888248446E+02  0.47000000000E+01 0. -1.
        -11    1    6    6    0    0 -0.34613290302E+02  0.28408663485E+02 -0.81801922421E+02  0.93256026820E+02  0.00000000000E+00 0.  1.
         12    1    6    6    0    0  0.14205196622E+02  0.42446180989E+02 -0.27320876383E+01  0.44843396331E+02  0.00000000000E+00 0. -1.
         -5    1    3    3    0  503  0.99862079966E+02 -0.19016159357E+02 -0.10166457673E+02  0.10227167835E+03  0.47000000000E+01 0.  1.
         11    1    4    4    0    0 -0.17265891802E+02 -0.42127933203E+02 -0.16667765905E+02  0.48483896254E+02  0.00000000000E+00 0. -1.
        -12    1    4    4    0    0 -0.13723807076E+02  0.36149417433E+02 -0.63134399634E+01  0.39178856358E+02  0.00000000000E+00 0.  1.
</event>
<event>
12    1  0.8113184E-002  0.2138116E+03  0.7818608E-02  0.1139059E+00
         21   -1    0    0  501  502  0.00000000000E+00  0.00000000000E+00  0.32950401634E+03  0.32950401634E+03  0.00000000000E+00 0.  1.
         21   -1    0    0  502  503 -0.00000000000E+00 -0.00000000000E+00 -0.13745462668E+03  0.13745462668E+03  0.00000000000E+00 0.  1.
         -6    2    1    2    0  503 -0.74728381580E+02 -0.98299356207E+02  0.10746787162E+03  0.23930054327E+03  0.17455174629E+03 0.  0.
        -24    2    3    3    0    0 -0.79638980107E+02 -0.99446297577E+02  0.14505580373E+03  0.20108572817E+03  0.56234781285E+02 0.  0.
          6    2    1    2  501    0  0.74728381580E+02  0.98299356207E+02  0.84581518052E+02  0.22765809975E+03  0.17154323870E+03 0.  0.
         24    2    5    5    0    0  0.64871937553E+02  0.13561737674E+03  0.50923322102E+02  0.17623098337E+03  0.76575019486E+02 0.  0.
          5    1    5    5  501    0  0.98564440262E+01 -0.37318020531E+02  0.33658195950E+02  0.51427116386E+02  0.47000000000E+01 0. -1.
        -11    1    6    6    0    0  0.37204127072E+02  0.87313716130E+02  0.69402165856E+02  0.11757760297E+03  0.00000000000E+00 0.  1.
         12    1    6    6    0    0  0.27667810482E+02  0.48303660608E+02 -0.18478843754E+02  0.58653380393E+02  0.00000000000E+00 0. -1.
         -5    1    3    3    0  503  0.49105985271E+01  0.11469413698E+01 -0.37587932109E+02  0.38214815093E+02  0.47000000000E+01 0.  1.
         13    1    4    4    0    0 -0.20108859730E+02  0.20730076035E+01  0.32280341661E+02  0.38087846591E+02  0.00000000000E+00 0. -1.
        -14    1    4    4    0    0 -0.59530120376E+02 -0.10151930518E+03  0.11277546206E+03  0.16299788158E+03  0.00000000000E+00 0.  1.
</event>
<event>
12    1  0.8113184E-002  0.1838162E+03  0.7818608E-02  0.1164441E+00
         21   -1    0    0  501  502  0.00000000000E+00  0.00000000000E+00  0.85814078988E+03  0.85814078988E+03  0.00000000000E+00 0. -1.
         21   -1    0    0  502  503 -0.00000000000E+00 -0.00000000000E+00 -0.91130830034E+02  0.91130830034E+02  0.00000000000E+00 0. -1.
         -6    2    1    2    0  503  0.18549560827E+02  0.54168347754E+02  0.24398209355E+02  0.18424834578E+03  0.17341823490E+03 0.  0.
        -24    2    3    3    0    0  0.26695095542E+02  0.10066885602E+03 -0.13205615048E+01  0.13028361490E+03  0.78263846895E+02 0.  0.
          6    2    1    2  501    0 -0.18549560827E+02 -0.54168347754E+02  0.74261175049E+03  0.76502327413E+03  0.17467141121E+03 0.  0.
         24    2    5    5    0    0  0.37565082082E+02 -0.71697985362E+02  0.60665086793E+03  0.61682208342E+03  0.76762429173E+02 0.  0.
          5    1    5    5  501    0 -0.56114642909E+02  0.17529637608E+02  0.13596088256E+03  0.14820119071E+03  0.47000000000E+01 0. -1.
        -13    1    6    6    0    0 -0.88406134069E+01 -0.44157742572E+01  0.82729115550E+01  0.12887845953E+02  0.00000000000E+00 0.  1.
         14    1    6    6    0    0  0.46405695489E+02 -0.67282211105E+02  0.59837795638E+03  0.60393423746E+03  0.00000000000E+00 0. -1.
         -5    1    3    3    0  503 -0.81455347150E+01 -0.46500508262E+02  0.25718770860E+02  0.53964730880E+02  0.47000000000E+01 0.  1.
         13    1    4    4    0    0  0.38998017879E+02  0.61056080545E+02 -0.31487311986E+02  0.78994564283E+02  0.00000000000E+00 0. -1.
        -14    1    4    4    0    0 -0.12302922337E+02  0.39612775471E+02  0.30166750481E+02  0.51289050616E+02  0.00000000000E+00 0.  1.
</event>
<event>
12    1  0.8113184E-002  0.2292703E+03  0.7818608E-02  0.1127519E+00
         21   -1    0    0  503  502  0.00000000000E+00  0.00000000000E+00  0.34774208618E+03  0.34774208618E+03  0.00000000000E+00 0.  1.
         21   -1    0    0  501  503 -0.00000000000E+00 -0.00000000000E+00 -0.33594421000E+03  0.33594421000E+03  0.00000000000E+00 0. -1.
          6    2    1    2  501    0  0.60993465775E+02 -0.13552013125E+03 -0.24853953964E+03  0.33813717739E+03  0.17458218445E+03 0.  0.
         24    2    3    3    0    0 -0.29214661513E+02 -0.92959373557E+02 -0.10005738353E+03  0.15920153252E+03  0.76411428315E+02 0.  0.
         -6    2    1    2    0  502 -0.60993465775E+02  0.13552013125E+03  0.26033741582E+03  0.34554911878E+03  0.17187994232E+03 0.  0.
        -24    2    5    5    0    0  0.90257100887E+01  0.19491528839E+02  0.55591139489E+02  0.99971332249E+02  0.80265243679E+02 0.  0.
          5    1    3    3  501    0  0.90208127287E+02 -0.42560757691E+02 -0.14848215611E+03  0.17893564487E+03  0.47000000000E+01 0. -1.
        -13    1    4    4    0    0 -0.24641215535E+01 -0.30913438439E+01  0.12264910256E+02  0.12886284390E+02  0.00000000000E+00 0.  1.
         14    1    4    4    0    0 -0.26750539959E+02 -0.89868029713E+02 -0.11232229379E+03  0.14631524813E+03  0.00000000000E+00 0. -1.
         -5    1    5    5    0  502 -0.70019175863E+02  0.11602860241E+03  0.20474627634E+03  0.24557778653E+03  0.47000000000E+01 0.  1.
         11    1    6    6    0    0 -0.30536033708E+02 -0.13654968281E+01  0.26690708907E+01  0.30682859639E+02  0.00000000000E+00 0. -1.
        -12    1    6    6    0    0  0.39561743796E+02  0.20857025667E+02  0.52922068598E+02  0.69288472610E+02  0.00000000000E+00 0.  1.
</event>
<event>
12    1  0.8113184E-002  0.2147377E+03  0.7818608E-02  0.1138544E+00
         21   -1    0    0  503  502  0.00000000000E+00  0.00000000000E+00  0.42743151274E+02  0.42743151274E+02  0.00000000000E+00 0. -1.
         21   -1    0    0  501  503 -0.00000000000E+00 -0.00000000000E+00 -0.20908831551E+04  0.20908831551E+04  0.00000000000E+00 0.  1.
          6    2    1    2  501    0  0.43230431100E+02 -0.11497777964E+03 -0.17683811413E+04  0.17809546667E+04  0.17186885723E+03 0.  0.
         24    2    3    3    0    0  0.73129734265E+02 -0.12660994150E+03 -0.11547783929E+04  0.11664958004E+04  0.76297316015E+02 0.  0.
         -6    2    1    2    0  502 -0.43230431100E+02  0.11497777964E+03 -0.27975886258E+03  0.35267163969E+03  0.17613490360E+03 0.  0.
        -24    2    5    5    0    0  0.96205465783E+01  0.44288280836E+02 -0.23717133691E+03  0.25455936510E+03  0.80599135071E+02 0.  0.
          5    1    3    3  501    0 -0.29899303165E+02  0.11632161867E+02 -0.61360274839E+03  0.61445886628E+03  0.47000000000E+01 0. -1.
        -11    1    4    4    0    0  0.53995359115E+02 -0.11649160091E+03 -0.11019510374E+04  0.11094060937E+04  0.00000000000E+00 0.  1.
         12    1    4    4    0    0  0.19134375150E+02 -0.10118340591E+02 -0.52827355522E+02  0.57089706780E+02  0.00000000000E+00 0. -1.
         -5    1    5    5    0  502 -0.52850977678E+02  0.70689498802E+02 -0.42587525675E+02  0.98112274591E+02  0.47000000000E+01 0.  1.
         13    1    6    6    0    0 -0.11667388456E+02  0.12368705237E+02 -0.30002146305E+01  0.17265981306E+02  0.00000000000E+00 0. -1.
        -14    1    6    6    0    0  0.21287935034E+02  0.31919575599E+02 -0.23417112228E+03  0.23729338380E+03  0.00000000000E+00 0.  1.
</event>
<event>
12    1  0.8113184E-002  0.2255617E+03  0.7818608E-02  0.1130326E+00
         21   -1    0    0  503  502  0.00000000000E+00  0.00000000000E+00  0.11168538284E+03  0.11168538284E+03  0.00000000000E+00 0. -1.
         21   -1    0    0  501  503 -0.00000000000E+00 -0.00000000000E+00 -0.47658783494E+03  0.47658783494E+03  0.00000000000E+00 0. -1.
          6    2    1    2  501    0  0.10427278017E+03  0.10420280059E+03 -0.11376602658E+03  0.25262780363E+03  0.17072510661E+03 0.  0.
         24    2    3    3    0    0  0.32201915372E+02  0.20521493925E+02 -0.10257222023E+03  0.14152351956E+03  0.89720405474E+02 0.  0.
         -6    2    1    2    0  502 -0.10427278017E+03 -0.10420280059E+03 -0.25113642551E+03  0.33564541415E+03  0.16690507327E+03 0.  0.
        -24    2    5    5    0    0 -0.25922949482E+02 -0.42205511434E+02 -0.20335798590E+03  0.22479763959E+03  0.82013436895E+02 0.  0.
          5    1    3    3  501    0  0.72070864799E+02  0.83681306670E+02 -0.11193806353E+02  0.11110428407E+03  0.47000000000E+01 0. -1.
        -11    1    4    4    0    0  0.42948827643E+02 -0.15651221761E+02 -0.18393125662E+02  0.49273416871E+02  0.00000000000E+00 0.  1.
         12    1    4    4    0    0 -0.10746912271E+02  0.36172715686E+02 -0.84179094566E+02  0.92250102685E+02  0.00000000000E+00 0. -1.
         -5    1    5    5    0  502 -0.78349830689E+02 -0.61997289160E+02 -0.47778439611E+02  0.11084777456E+03  0.47000000000E+01 0.  1.
         11    1    6    6    0    0 -0.21146815912E+02 -0.65495252546E+02 -0.17335209734E+03  0.18651478650E+03  0.00000000000E+00 0. -1.
        -12    1    6    6    0    0 -0.47761335700E+01  0.23289741112E+02 -0.30005888561E+02  0.38282853097E+02  0.00000000000E+00 0.  1.
</event>
<event>
12    1  0.8113184E-002  0.3343647E+03  0.7818608E-02  0.1069324E+00
         21   -1    0    0  503  502  0.00000000000E+00  0.00000000000E+00  0.14780510301E+04  0.14780510301E+04  0.00000000000E+00 0. -1.
         21   -1    0    0  501  503 -0.00000000000E+00 -0.00000000000E+00 -0.75429255210E+02  0.75429255210E+02  0.00000000000E+00 0.  1.
          6    2    1    2  501    0 -0.45264386351E+02  0.28137250838E+03  0.69702194683E+03  0.77266603248E+03  0.17307180659E+03 0.  0.
         24    2    3    3    0    0  0.17221709694E+02  0.24676053043E+03  0.58031167131E+03  0.63575043940E+03  0.78928060108E+02 0.  0.
         -6    2    1    2    0  502  0.45264386351E+02 -0.28137250838E+03  0.70559982810E+03  0.78081425288E+03  0.17487260202E+03 0.  0.
        -24    2    5    5    0    0  0.61676671421E+02 -0.65206501878E+02  0.17668578255E+03  0.20917690014E+03  0.66941841256E+02 0.  0.
          5    1    3    3  501    0 -0.62486096045E+02  0.34611977947E+02  0.11671027552E+03  0.13691559308E+03  0.47000000000E+01 0. -1.
        -13    1    4    4    0    0 -0.70809912867E+01  0.18420143654E+03  0.48772162281E+03  0.52139494725E+03  0.00000000000E+00 0.  1.
         14    1    4    4    0    0  0.24302700981E+02  0.62559093884E+02  0.92590048496E+02  0.11435549214E+03  0.00000000000E+00 0. -1.
         -5    1    5    5    0  502 -0.16412285071E+02 -0.21616600650E+03  0.52891404555E+03  0.57163735274E+03  0.47000000000E+01 0.  1.
         11    1    6    6    0    0  0.50714331212E+02 -0.54940641234E+02  0.17899328023E+03  0.19398198839E+03  0.00000000000E+00 0. -1.
        -12    1    6    6    0    0  0.10962340209E+02 -0.10265860644E+02 -0.23074976811E+01  0.15194911752E+02  0.00000000000E+00 0.  1.
</event>
<event>
12    1  0.8113184E-002  0.1946587E+03  0.7818608E-02  0.1155331E+00
         21   -1    0    0  503  502  0.00000000000E+00  0.00000000000E+00  0.30124719802E+04  0.30124719802E+04  0.00000000000E+00 0. -1.
         21   -1    0    0  501  503 -0.00000000000E+00 -0.00000000000E+00 -0.97683751512E+02  0.97683751512E+02  0.00000000000E+00 0. -1.
          6    2    1    2  501    0 -0.71654951078E+02 -0.55514566048E+02  0.55764033963E+01  0.19473854959E+03  0.17226638489E+03 0.  0.
         24    2    3    3    0    0 -0.68138793067E+02 -0.10106866303E+03  0.19880704302E+02  0.14663197890E+03  0.79043817386E+02 0.  0.
         -6    2    1    2    0  502  0.71654951078E+02  0.55514566048E+02  0.29092118253E+04  0.29154171821E+04  0.16711553588E+03 0.  0.
        -24    2    5    5    0    0  0.43234484989E+02  0.76223103095E+02  0.27345454716E+04  0.27371842123E+04  0.82214925585E+02 0.  0.
          5    1    3    3  501    0 -0.35161580110E+01  0.45554096980E+02 -0.14304300906E+02  0.48106570687E+02  0.47000000000E+01 0. -1.
        -13    1    4    4    0    0 -0.37065718162E+02 -0.68725334775E+02  0.49895819483E+02  0.92664080984E+02  0.00000000000E+00 0.  1.
         14    1    4    4    0    0 -0.31073074906E+02 -0.32343328253E+02 -0.30015115181E+02  0.53967897920E+02  0.00000000000E+00 0. -1.
         -5    1    5    5    0  502  0.28420466090E+02 -0.20708537047E+02  0.17466635372E+03  0.17823296979E+03  0.47000000000E+01 0.  1.
         13    1    6    6    0    0  0.56443628180E+01  0.19143419781E+02  0.18122443494E+04  0.18123542456E+04  0.00000000000E+00 0. -1.
        -14    1    6    6    0    0  0.37590122171E+02  0.57079683313E+02  0.92230112213E+03  0.92482996676E+03  0.00000000000E+00 0.  1.
</event>
<event>
12    1  0.8113184E-002  0.2345988E+03  0.7818608E-02  0.1123451E+00
         21   -1    0    0  501  502  0.00000000000E+00  0.00000000000E+00  0.55503471044E+02  0.55503471044E+02  0.00000000000E+00 0. -1.
         21   -1    0    0  502  503 -0.00000000000E+00 -0.00000000000E+00 -0.10000491779E+04  0.10000491779E+04  0.00000000000E+00 0.  1.
         -6    2    1    2    0  503  0.99059469593E+02 -0.12404465364E+03 -0.42317030272E+03  0.48382815473E+03  0.17267519681E+03 0.  0.
        -24    2    3    3    0    0  0.98863504958E+02 -0.81806457555E+02 -0.41282911135E+03  0.44008876917E+03  0.82364801104E+02 0.  0.
          6    2    1    2  501    0 -0.99059469593E+02  0.12404465364E+03 -0.52137540414E+03  0.57172449422E+03  0.17273311968E+03 0.  0.
         24    2    5    5    0    0 -0.71209900800E+02  0.13836938723E+03 -0.50462754684E+03  0.53590023988E+03  0.91231402400E+02 0.  0.
          5    1    5    5  501    0 -0.27849568793E+02 -0.14324733592E+02 -0.16747857302E+02  0.35824254335E+02  0.47000000000E+01 0. -1.
        -11    1    6    6    0    0  0.93683396130E+01  0.38693499986E+01 -0.12163778236E+03  0.12205936160E+03  0.00000000000E+00 0.  1.
         12    1    6    6    0    0 -0.80578240413E+02  0.13450003723E+03 -0.38298976448E+03  0.41384087829E+03  0.00000000000E+00 0. -1.
         -5    1    3    3    0  503  0.19596463566E+00 -0.42238196084E+02 -0.10341191374E+02  0.43739385565E+02  0.47000000000E+01 0.  1.
         13    1    4    4    0    0 -0.12379918831E+02 -0.20556567553E+02 -0.91006237844E+02  0.94116790140E+02  0.00000000000E+00 0. -1.
        -14    1    4    4    0    0  0.11124342379E+03 -0.61249890002E+02 -0.32182287350E+03  0.34597197903E+03  0.00000000000E+00 0.  1.
</event>
<event>
12    1  0.8113184E-002  0.2062359E+03  0.7818608E-02  0.1144735E+00
         21   -1    0    0  501  502  0.00000000000E+00  0.00000000000E+00  0.14423405987E+03  0.14423405987E+03  0.00000000000E+00 0.  1.
         21   -1    0    0  502  503 -0.00000000000E+00 -0.00000000000E+00 -0.36025324229E+03  0.36025324229E+03  0.00000000000E+00 0.  1.
         -6    2    1    2    0  503 -0.61207073253E+02  0.94895858356E+02  0.15532088544E+00  0.20623592384E+03  0.17257375932E+03 0.  0.
        -24    2    3    3    0    0 -0.19364715065E+02  0.11557288031E+03  0.37751883244E+02  0.14612008835E+03  0.78700652329E+02 0.  0.
          6    2    1    2  501    0  0.61207073253E+02 -0.94895858356E+02 -0.21617450331E+03  0.29825137833E+03  0.17167101981E+03 0.  0.
         24    2    5    5    0    0  0.95448620815E+02 -0.59174860888E+02 -0.20451323567E+03  0.24719701120E+03  0.81661468313E+02 0.  0.
          5    1    5    5  501    0 -0.34241547562E+02 -0.35720997468E+02 -0.11661267644E+02  0.51054367126E+02  0.47000000000E+01 0. -1.
        -13    1    6    6    0    0  0.30093744559E+02 -0.23858177545E+02 -0.11050495892E+02  0.39961976388E+02  0.00000000000E+00 0.  1.
         14    1    6    6    0    0  0.65354876256E+02 -0.35316683343E+02 -0.19346273977E+03  0.20723503481E+03  0.00000000000E+00 0. -1.
         -5    1    3    3    0  503 -0.41842358189E+02 -0.20677021954E+02 -0.37596562358E+02  0.60115835491E+02  0.47000000000E+01 0.  1.
         13    1    4    4    0    0  0.30127994680E+02  0.45687672241E+02  0.72051975674E+01  0.55199405162E+02  0.00000000000E+00 0. -1.
        -14    1    4    4    0    0 -0.49492709745E+02  0.69885208068E+02  0.30546685677E+02  0.90920683183E+02  0.00000000000E+00 0.  1.
</event>
<event>
12    1  0.8113184E-002  0.2492020E+03  0.7818608E-02  0.1113922E+00
         21   -1    0    0  501  502  0.00000000000E+00  0.00000000000E+00  0.35815418080E+03  0.35815418080E+03  0.00000000000E+00 0. -1.
         21   -1    0    0  502  503 -0.00000000000E+00 -0.00000000000E+00 -0.10992138885E+04  0.10992138885E+04  0.00000000000E+00 0. -1.
         -6    2    1    2    0  503 -0.16453824281E+03  0.72977850056E+02 -0.10395359238E+04  0.10689885829E+04  0.17234573842E+03 0.  0.
        -24    2    3    3    0    0 -0.81034079871E+02  0.42349487446E+01 -0.28720750265E+03  0.30891051126E+03  0.79706320327E+02 0.  0.
          6    2    1    2  501    0  0.16453824281E+03 -0.72977850056E+02  0.29847621603E+03  0.38837948647E+03  0.17132417817E+03 0.  0.
         24    2    5    5    0    0  0.13818227094E+03 -0.14616352393E+02  0.12629660880E+03  0.20461711597E+03  0.81297927374E+02 0.  0.
          5    1    5    5  501    0  0.26355971871E+02 -0.58361497663E+02  0.17217960723E+03  0.18376237050E+03  0.47000000000E+01 0. -1.
        -11    1    6    6    0    0 -0.72932778017E+01  0.10916786283E+02  0.12921540620E+02  0.18421029717E+02  0.00000000000E+00 0.  1.
         12    1    6    6    0    0  0.14547554874E+03 -0.25533138676E+02  0.11337506818E+03  0.18619608625E+03  0.00000000000E+00 0. -1.
         -5    1    3    3    0  503 -0.83504162939E+02  0.68742901311E+02 -0.75232842111E+03  0.76007807160E+03  0.47000000000E+01 0.  1.
         11    1    4    4    0    0 -0.74406401529E+02  0.35000402822E+02 -0.21153645655E+03  0.22695597203E+03  0.00000000000E+00 0. -1.
        -12    1    4    4    0    0 -0.66276783421E+01 -0.30765454078E+02 -0.75671046094E+02  0.81954539239E+02  0.00000000000E+00 0.  1.
</event>
<event>
12    1  0.8113184E-002  0.1967436E+03  0.7818608E-02  0.1152641E+00
         21   -1    0    0  503  502  0.00000000000E+00  0.00000000000E+00  0.33333773177E+03  0.33333773177E+03  0.00000000000E+00 0. -1.
         21   -1    0    0  501  503 -0.00000000000E+00 -0.00000000000E+00 -0.32684580956E+03  0.32684580956E+03  0.00000000000E+00 0. -1.
          6    2    1    2  501    0  0.87211219697E+02 -0.38543540476E+02 -0.26201562120E+03  0.32731069690E+03  0.17143134252E+03 0.  0.
         24    2    3    3    0    0  0.11546184150E+02 -0.40217776630E+01 -0.22109623550E+03  0.23450209903E+03  0.77189377730E+02 0.  0.
         -6    2    1    2    0  502 -0.87211219697E+02  0.38543540476E+02  0.26850754341E+03  0.33287284443E+03  0.17209482369E+03 0.  0.
        -24    2    5    5    0    0 -0.97664823285E+02  0.71806407699E+01  0.27278708817E+03  0.29920811795E+03  0.74315025828E+02 0.  0.
          5    1    3    3  501    0  0.75665035547E+02 -0.34521762813E+02 -0.40919385695E+02  0.92808597865E+02  0.47000000000E+01 0. -1.
        -13    1    4    4    0    0  0.86001861542E+01 -0.13871107451E+01  0.38478474621E+01  0.95232981785E+01  0.00000000000E+00 0.  1.
         14    1    4    4    0    0  0.29459979962E+01 -0.26346669179E+01 -0.22494408296E+03  0.22497880085E+03  0.00000000000E+00 0. -1.
         -5    1    5    5    0  502  0.10453603588E+02  0.31362899706E+02 -0.42795447665E+01  0.33664726485E+02  0.47000000000E+01 0.  1.
         13    1    6    6    0    0 -0.73450203604E+02  0.21150539149E+02  0.25467588878E+03  0.26589863866E+03  0.00000000000E+00 0. -1.
        -14    1    6    6    0    0 -0.24214619681E+02 -0.13969898379E+02  0.18111199392E+02  0.33309479287E+02  0.00000000000E+00 0.  1.
</event>
<event>
12    1  0.8113184E-002  0.1891977E+03  0.7818608E-02  0.1159228E+00
         21   -1    0    0  503  502  0.00000000000E+00  0.00000000000E+00  0.81593161400E+03  0.81593161400E+03  0.00000000000E+00 0.  1.
         21   -1    0    0  501  503 -0.00000000000E+00 -0.00000000000E+00 -0.50781372817E+02  0.50781372817E+02  0.00000000000E+00 0.  1.
          6    2    1    2  501    0  0.51920857777E+02 -0.59434859859E+02  0.22207521190E+03  0.29162495667E+03  0.17175400308E+03 0.  0.
         24    2    3    3    0    0  0.40748691337E+02 -0.10223723517E+03  0.11300456113E+03  0.17383124931E+03  0.73036732543E+02 0.  0.
         -6    2    1    2    0  502 -0.51920857777E+02  0.59434859859E+02  0.54307502928E+03  0.57508803015E+03  0.17195196117E+03 0.  0.
        -24    2    5    5    0    0 -0.67963334344E+02  0.99266656214E+02  0.39223031364E+03  0.41817993191E+03  0.80975012580E+02 0.  0.
          5    1    3    3  501    0  0.11172166440E+02  0.42802375306E+02  0.10907065077E+03  0.11779370736E+03  0.47000000000E+01 0. -1.
        -13    1    4    4    0    0  0.33107352130E+01 -0.45966062358E+02  0.49098967138E+01  0.46345948497E+02  0.00000000000E+00 0.  1.
         14    1    4    4    0    0  0.37437956124E+02 -0.56271172807E+02  0.10809466442E+03  0.12748530082E+03  0.00000000000E+00 0. -1.
         -5    1    5    5    0  502  0.16042476567E+02 -0.39831796355E+02  0.15084471565E+03  0.15690809824E+03  0.47000000000E+01 0.  1.
         13    1    6    6    0    0 -0.25765302027E+02 -0.94831649513E+01  0.57792310356E+02  0.63982281472E+02  0.00000000000E+00 0. -1.
        -14    1    6    6    0    0 -0.42198032317E+02  0.10874982117E+03  0.33443800328E+03  0.35419765043E+03  0.00000000000E+00 0.  1.
</event>
<event>
12    1  0.8113184E-002  0.1978479E+03  0.7818608E-02  0.1151636E+00
         21   -1    0    0  501  502  0.00000000000E+00  0.00000000000E+00  0.85353814660E+02  0.85353814660E+02  0.00000000000E+00 0.  1.
         21   -1    0    0  502  503 -0.00000000000E+00 -0.00000000000E+00 -0.46322144750E+03  0.46322144750E+03  0.00000000000E+00 0.  1.
         -6    2    1    2    0  503  0.96873814303E+02  0.28224867255E+02 -0.15927502871E+03  0.25374221073E+03  0.16980988107E+03 0.  0.
        -24    2    3    3    0    0  0.11194806511E+03  0.52738130560E+02 -0.10043052103E+03  0.18806954367E+03  0.99850808743E+02 0.  0.
          6    2    1    2  501    0 -0.96873814303E+02 -0.28224867255E+02 -0.21859260413E+03  0.29483305142E+03  0.17018408445E+03 0.  0.
         24    2    5    5    0    0 -0.12909386669E+03 -0.56649409916E+01 -0.19456074549E+03  0.24850053284E+03  0.84860551262E+02 0.  0.
          5    1    5    5  501    0  0.32220052387E+02 -0.22559926263E+02 -0.24031858635E+02  0.46332518583E+02  0.47000000000E+01 0. -1.
        -11    1    6    6    0    0 -0.87230361858E+02  0.26691168330E+02 -0.16328255698E+03  0.18703675551E+03  0.00000000000E+00 0.  1.
         12    1    6    6    0    0 -0.41863504831E+02 -0.32356109322E+02 -0.31278188516E+02  0.61463777333E+02  0.00000000000E+00 0. -1.
         -5    1    3    3    0  503 -0.15074250806E+02 -0.24513263306E+02 -0.58844507675E+02  0.65672667060E+02  0.47000000000E+01 0.  1.
         11    1    4    4    0    0  0.19947775189E+02  0.54045295633E+02 -0.89106140480E+01  0.58294139995E+02  0.00000000000E+00 0. -1.
        -12    1    4    4    0    0  0.92000289920E+02 -0.13071650727E+01 -0.91519906984E+02  0.12977540368E+03  0.00000000000E+00 0.  1.
</event>
<event>
12    1  0.8113184E-002  0.2148219E+03  0.7818608E-02  0.1137897E+00
         21   -1    0    0  501  502  0.00000000000E+00  0.00000000000E+00  0.31320107887E+03  0.31320107887E+03  0.00000000000E+00 0.  1.
         21   -1    0    0  502  503 -0.00000000000E+00 -0.00000000000E+00 -0.19902322371E+03  0.19902322371E+03  0.00000000000E+00 0.  1.
         -6    2    1    2    0  503 -0.12543854190E+03 -0.26777330311E+02 -0.73883582004E+02  0.22671501989E+03  0.17172379957E+03 0.  0.
        -24    2    3    3    0    0 -0.13866087183E+03  0.22477079404E+02 -0.68748703839E+02  0.17524382543E+03  0.79069321456E+02 0.  0.
          6    2    1    2  501    0  0.12543854190E+03  0.26777330311E+02  0.18806143717E+03  0.28550928269E+03  0.17232699481E+03 0.  0.
         24    2    5    5    0    0  0.11370955689E+03  0.80123688752E+02  0.13881315822E+03  0.21181473725E+03  0.79036201796E+02 0.  0.
          5    1    5    5  501    0  0.11728985012E+02 -0.53346358442E+02  0.49248278944E+02  0.73694545438E+02  0.47000000000E+01 0. -1.
        -11    1    6    6    0    0  0.78212504563E+02  0.29504159724E+02  0.12173799191E+03  0.14767474390E+03  0.00000000000E+00 0.  1.
         12    1    6    6    0    0  0.35497052327E+02  0.50619529029E+02  0.17075166313E+02  0.64139993355E+02  0.00000000000E+00 0. -1.
         -5    1    3    3    0  503  0.13222329930E+02 -0.49254409715E+02 -0.51348781652E+01  0.51471194458E+02  0.47000000000E+01 0.  1.
         13    1    4    4    0    0 -0.50835079784E+02  0.43366570436E+02 -0.10072088945E+02  0.67574490333E+02  0.00000000000E+00 0. -1.
        -14    1    4    4    0    0 -0.87825792048E+02 -0.20889491032E+02 -0.58676614895E+02  0.10766933510E+03  0.00000000000E+00 0.  1.
</event>
<event>
12    1  0.8113184E-002  0.1923622E+03  0.7818608E-02  0.1156513E+00
         21   -1    0    0  503  502  0.00000000000E+00  0.00000000000E+00  0.60414455042E+02  0.60414455042E+02  0.00000000000E+00 0. -1.
         21   -1    0    0  501  503 -0.00000000000E+00 -0.00000000000E+00 -0.79191736576E+03  0.79191736576E+03  0.00000000000E+00 0.  1.
          6    2    1    2  501    0 -0.54655397950E+02 -0.68080208649E+02 -0.57048305461E+03  0.60204163172E+03  0.17140911116E+03 0.  0.
         24    2    3    3    0    0  0.92829961982E+01  0.15704732629E+02 -0.25598374947E+03  0.27031895000E+03  0.84922565272E+02 0.  0.
         -6    2    1    2    0  502  0.54655397950E+02  0.68080208649E+02 -0.16101985611E+03  0.25029018909E+03  0.17057449210E+03 0.  0.
        -24    2    5    5    0    0  0.91022353528E+02  0.59937828773E+02 -0.16684319125E+03  0.21227894022E+03  0.73130608048E+02 0.  0.
          5    1    3    3  501    0 -0.63938394148E+02 -0.83784941278E+02 -0.31449930514E+03  0.33172268171E+03  0.47000000000E+01 0. -1.
        -11    1    4    4    0    0  0.24489982214E+02 -0.18423784519E+02 -0.20406627536E+03  0.20635464570E+03  0.00000000000E+00 0.  1.
         12    1    4    4    0    0 -0.15206986016E+02  0.34128517148E+02 -0.51917474114E+02  0.63964304301E+02  0.00000000000E+00 0. -1.
         -5    1    5    5    0  502 -0.36366955578E+02  0.81423798762E+01  0.58233351435E+01  0.38011248865E+02  0.47000000000E+01 0.  1.
         11    1    6    6    0    0  0.45784126383E+02  0.23727210458E+02 -0.21608736905E+02  0.55911575325E+02  0.00000000000E+00 0. -1.
        -12    1    6    6    0    0  0.45238227145E+02  0.36210618315E+02 -0.14523445435E+03  0.15636736490E+03  0.00000000000E+00 0.  1.
</event>
<event>
12    1  0.8113184E-002  0.1805327E+03  0.7818608E-02  0.1167830E+00
         21   -1    0    0  503  502  0.00000000000E+00  0.00000000000E+00  0.79284055104E+02  0.79284055104E+02  0.00000000000E+00 0. -1.
         21   -1    0    0  501  503 -0.00000000000E+00 -0.00000000000E+00 -0.96851155395E+03  0.96851155395E+03  0.00000000000E+00 0. -1.
          6    2    1    2  501    0 -0.34985448996E+02 -0.32755839381E+02 -0.84502678055E+03  0.86409623727E+03  0.17405493605E+03 0.  0.
         24    2    3    3    0    0 -0.56656392960E+02 -0.67736584795E+02 -0.39304851991E+03  0.41022431651E+03  0.77451010784E+02 0.  0.
         -6    2    1    2    0  502  0.34985448996E+02  0.32755839381E+02 -0.44200718301E+02  0.18369937179E+03  0.17174058647E+03 0.  0.
        -24    2    5    5    0    0  0.34730232674E+02 -0.20234373243E+01  0.35809088498E+02  0.96330484835E+02  0.82383178679E+02 0.  0.
          5    1    3    3  501    0  0.21670943964E+02  0.34980745415E+02 -0.45197826063E+03  0.45387192075E+03  0.47000000000E+01 0. -1.
        -11    1    4    4    0    0 -0.32665788419E+02 -0.52714154598E+02 -0.11427761093E+03  0.13002002995E+03  0.00000000000E+00 0.  1.
         12    1    4    4    0    0 -0.23990604541E+02 -0.15022430198E+02 -0.27877090898E+03  0.28020428656E+03  0.00000000000E+00 0. -1.
         -5    1    5    5    0  502  0.25521632249E+00  0.34779276705E+02 -0.80009806799E+02  0.87368886954E+02  0.47000000000E+01 0.  1.
         11    1    6    6    0    0  0.34408404464E+02  0.49803066418E+01 -0.19982291921E+02  0.40100296039E+02  0.00000000000E+00 0. -1.
        -12    1    6    6    0    0  0.32182820989E+00 -0.70037439660E+01  0.55791380419E+02  0.56230188796E+02  0.00000000000E+00 0.  1.
</event>
<event>
12    1  0.8113184E-002  0.2891991E+03  0.7818608E-02  0.1091085E+00
         21   -1    0    0  503  502  0.00000000000E+00  0.00000000000E+00  0.67602856434E+03  0.67602856434E+03  0.00000000000E+00 0. -1.
         21   -1    0    0  501  503 -0.00000000000E+00 -0.00000000000E+00 -0.18263225552E+03  0.18263225552E+03  0.00000000000E+00 0.  1.
          6    2    1    2  501    0 -0.18022995439E+03 -0.14274095154E+03  0.14257806408E+01  0.28920266351E+03  0.17543754451E+03 0.  0.
         24    2    3    3    0    0 -0.20237407614E+03 -0.10356207202E+03 -0.12605238240E+02  0.24182855434E+03  0.81497166856E+02 0.  0.
         -6    2    1    2    0  502  0.18022995439E+03  0.14274095154E+03  0.49197052817E+03  0.56945815635E+03  0.17143446427E+03 0.  0.
        -24    2    5    5    0    0  0.16954459051E+03  0.79582860518E+02  0.44665571649E+03  0.49085380774E+03  0.79732876781E+02 0.  0.
          5    1    3    3  501    0  0.22144121754E+02 -0.39178879523E+02  0.14031018881E+02  0.47374109172E+02  0.47000000000E+01 0. -1.
        -11    1    4    4    0    0 -0.42870784632E+02 -0.50772135912E+02  0.22559648179E+02  0.70175862560E+02  0.00000000000E+00 0.  1.
         12    1    4    4    0    0 -0.15950329151E+03 -0.52789936106E+02 -0.35164886420E+02  0.17165269178E+03  0.00000000000E+00 0. -1.
         -5    1    5    5    0  502  0.10685363882E+02  0.63158091023E+02  0.45314811676E+02  0.78604348609E+02  0.47000000000E+01 0.  1.
         11    1    6    6    0    0  0.94520666576E+02  0.54895430891E+02  0.16187270375E+03  0.19532136842E+03  0.00000000000E+00 0. -1.
        -12    1    6    6    0    0  0.75023923932E+02  0.24687429628E+02  0.28478301274E+03  0.29553243932E+03  0.00000000000E+00 0.  1.
</event>
<event>
12    1  0.8113184E-002  0.1812966E+03  0.7818608E-02  0.1166749E+00
         21   -1    0    0  503  502  0.00000000000E+00  0.00000000000E+00  0.12916774408E+04  0.12916774408E+04  0.00000000000E+00 0. -1.
         21   -1    0    0  501  503 -0.00000000000E+00 -0.00000000000E+00 -0.10185204716E+03  0.10185204716E+03  0.00000000000E+00 0. -1.
          6    2    1    2  501    0 -0.34432987232E+02 -0.44809078755E+02 -0.93482296032E+01  0.18072865958E+03  0.17141171153E+03 0.  0.
         24    2    3    3    0    0 -0.66563954974E+02 -0.71866936757E+02 -0.32520900581E+02  0.13252503474E+03  0.83124359596E+02 0.  0.
         -6    2    1    2    0  502  0.34432987232E+02  0.44809078755E+02  0.11991736233E+04  0.12128008284E+04  0.17226429254E+03 0.  0.
        -24    2    5    5    0    0  0.71353584928E+02  0.96754091202E+01  0.10426313353E+04  0.10481038849E+04  0.79099333575E+02 0.  0.
          5    1    3    3  501    0  0.32130967742E+02  0.27057858002E+02  0.23172670978E+02  0.48203624842E+02  0.47000000000E+01 0. -1.
        -13    1    4    4    0    0 -0.11295882076E+02  0.51492432149E+01  0.20458279765E+02  0.23930166496E+02  0.00000000000E+00 0.  1.
         14    1    4    4    0    0 -0.55268072898E+02 -0.77016179972E+02 -0.52979180346E+02  0.10859486825E+03  0.00000000000E+00 0. -1.
         -5    1    5    5    0  502 -0.36920597696E+02  0.35133669635E+02  0.15654228796E+03  0.16469694349E+03  0.47000000000E+01 0.  1.
         13    1    6    6    0    0  0.52799214046E+02  0.40826978097E+02  0.52889357166E+03  0.53308818153E+03  0.00000000000E+00 0. -1.
        -14    1    6    6    0    0  0.18554370883E+02 -0.31151568977E+02  0.51373776363E+03  0.51501570336E+03  0.00000000000E+00 0.  1.
</event>
<event>
12    1  0.8113184E-002  0.1976074E+03  0.7818608E-02  0.1152709E+00
         21   -1    0    0  503  502  0.00000000000E+00  0.00000000000E+00  0.59120585203E+03  0.59120585203E+03  0.00000000000E+00 0.  1.
         21   -1    0    0  501  503 -0.00000000000E+00 -0.00000000000E+00 -0.22126656603E+03  0.22126656603E+03  0.00000000000E+00 0.  1.
          6    2    1    2  501    0 -0.20707276494E+02  0.94975587243E+02 -0.15743230607E+03  0.24929440100E+03  0.16707367806E+03 0.  0.
         24    2    3    3    0    0  0.27359892314E+02  0.54548838195E+02 -0.15663294776E+03  0.18630627728E+03  0.80324399617E+02 0.  0.
         -6    2    1    2    0  502  0.20707276494E+02 -0.94975587243E+02  0.52737159207E+03  0.56317801706E+03  0.17204513741E+03 0.  0.
        -24    2    5    5    0    0 -0.18102977812E+02 -0.33293437558E+02  0.44161947590E+03  0.45054392428E+03  0.80783014433E+02 0.  0.
          5    1    3    3  501    0 -0.48067168808E+02  0.40426749048E+02 -0.79935831688E+00  0.62988123718E+02  0.47000000000E+01 0. -1.
        -11    1    4    4    0    0  0.51632866837E+02  0.51289415409E+02 -0.92783058307E+02  0.11792053672E+03  0.00000000000E+00 0.  1.
         12    1    4    4    0    0 -0.24272974523E+02  0.32594227857E+01 -0.63849889450E+02  0.68385740560E+02  0.00000000000E+00 0. -1.
         -5    1    5    5    0  502  0.38810254306E+02 -0.61682149685E+02  0.85752116175E+02  0.11263409278E+03  0.47000000000E+01 0.  1.
         13    1    6    6    0    0 -0.97064867534E+01  0.17161199798E+02  0.30916036232E+02  0.36667750953E+02  0.00000000000E+00 0. -1.
        -14    1    6    6    0    0 -0.83964910584E+01 -0.50454637356E+02  0.41070343967E+03  0.41387617333E+03  0.00000000000E+00 0.  1.
</event>
<event>
12    1  0.8113184E-002  0.1828327E+03  0.7818608E-02  0.1165532E+00
         21   -1    0    0  503  502  0.00000000000E+00  0.00000000000E+00  0.10804545641E+03  0.10804545641E+03  0.00000000000E+00 0.  1.
         21   -1    0    0  501  503 -0.00000000000E+00 -0.00000000000E+00 -0.38872080395E+03  0.38872080395E+03  0.00000000000E+00 0.  1.
          6    2    1    2  501    0  0.47834266489E+02  0.32621917529E+02 -0.25417661275E+03  0.31202323374E+03  0.17146556906E+03 0.  0.
         24    2    3    3    0    0  0.21877574143E+02  0.41761088860E+02 -0.46133950226E+02  0.10211584045E+03  0.77953105861E+02 0.  0.
         -6    2    1    2    0  502 -0.47834266489E+02 -0.32621917529E+02 -0.26498734790E+02  0.18474302661E+03  0.17342288310E+03 0.  0.
        -24    2    5    5    0    0  0.12179369505E+01 -0.29183375271E+02 -0.78059308921E+02  0.11333906986E+03  0.76807136940E+02 0.  0.
          5    1    3    3  501    0  0.25956692346E+02 -0.91391713305E+01 -0.20804266252E+03  0.20990739330E+03  0.47000000000E+01 0. -1.
        -11    1    4    4    0    0  0.34689736823E+02  0.64579764903E+01 -0.53261351299E+02  0.63889395390E+02  0.00000000000E+00 0.  1.
         12    1    4    4    0    0 -0.12812162680E+02  0.35303112369E+02  0.71274010731E+01  0.38226445055E+02  0.00000000000E+00 0. -1.
         -5    1    5    5    0  502 -0.49052203439E+02 -0.34385422582E+01  0.51560574131E+02  0.71403956752E+02  0.47000000000E+01 0.  1.
         11    1    6    6    0    0  0.62274451217E+01  0.18130143411E+02 -0.59085216560E+02  0.62117195597E+02  0.00000000000E+00 0. -1.
        -12    1    6    6    0    0 -0.50095081712E+01 -0.47313518682E+02 -0.18974092360E+02  0.51221874263E+02  0.00000000000E+00 0.  1.
</event>
<event>
12    1  0.8113184E-002  0.1782975E+03  0.7818608E-02  0.1170150E+00
         21   -1    0    0  503  502  0.00000000000E+00  0.00000000000E+00  0.10646025593E+02  0.10646025593E+02  0.00000000000E+00 0. -1.
         21   -1    0    0  501  503 -0.00000000000E+00 -0.00000000000E+00 -0.30730392885E+04  0.30730392885E+04  0.00000000000E+00 0. -1.
          6    2    1    2  501    0 -0.22977199039E+02 -0.30840924875E+02 -0.18409619791E+04  0.18493092099E+04  0.17124377651E+03 0.  0.
         24    2    3    3    0    0 -0.79459111477E+01 -0.65857680436E+02 -0.17002210956E+04  0.17034250124E+04  0.80651270499E+02 0.  0.
         -6    2    1    2    0  502  0.22977199039E+02  0.30840924875E+02 -0.12214312838E+04  0.12343761042E+04  0.17410017583E+03 0.  0.
        -24    2    5    5    0    0 -0.69132274166E+01 -0.21658780382E+02 -0.32412888004E+03  0.33503003596E+03  0.81662100377E+02 0.  0.
          5    1    3    3  501    0 -0.15031287891E+02  0.35016755561E+02 -0.14074088352E+03  0.14588419750E+03  0.47000000000E+01 0. -1.
        -13    1    4    4    0    0 -0.16350147375E+02 -0.81940076346E+02 -0.12179897972E+04  0.12208524274E+04  0.00000000000E+00 0.  1.
         14    1    4    4    0    0  0.84042362273E+01  0.16082395910E+02 -0.48223129836E+03  0.48257258497E+03  0.00000000000E+00 0. -1.
         -5    1    5    5    0  502  0.29890426456E+02  0.52499705257E+02 -0.89730240381E+03  0.89934606828E+03  0.47000000000E+01 0.  1.
         13    1    6    6    0    0  0.31056085560E+02 -0.18181739589E+02 -0.23975959907E+03  0.24244529580E+03  0.00000000000E+00 0. -1.
        -14    1    6    6    0    0 -0.37969312977E+02 -0.34770407932E+01 -0.84369280964E+02  0.92584740162E+02  0.00000000000E+00 0.  1.
</event>
<event>
12    1  0.8113184E-002  0.1844391E+03  0.7818608E-02  0.1164789E+00
         21   -1    0    0  501  502  0.00000000000E+00  0.00000000000E+00  0.18446613950E+03  0.18446613950E+03  0.00000000000E+00 0.  1.
         21   -1    0    0  502  503 -0.00000000000E+00 -0.00000000000E+00 -0.27062166240E+03  0.27062166240E+03  0.00000000000E+00 0. -1.
         -6    2    1    2    0  503 -0.40720859246E+02  0.37254319218E+02 -0.17481739195E+03  0.25044496384E+03  0.17063260739E+03 0.  0.
        -24    2    3    3    0    0 -0.45835073026E+02 -0.35632431261E+02 -0.13485771319E+03  0.16703333692E+03  0.79643008236E+02 0.  0.
          6    2    1    2  501    0  0.40720859246E+02 -0.37254319218E+02  0.88661869050E+02  0.20464283807E+03  0.17598775943E+03 0.  0.
         24    2    5    5    0    0  0.67526690781E+02 -0.58376100660E+02  0.11192147418E+03  0.16307624708E+03  0.78101362868E+02 0.  0.
          5    1    5    5  501    0 -0.26805831535E+02  0.21121781442E+02 -0.23259605132E+02  0.41566590990E+02  0.47000000000E+01 0. -1.
        -11    1    6    6    0    0 -0.29677733728E+01 -0.12995889968E+02  0.66304540738E+02  0.67631301609E+02  0.00000000000E+00 0.  1.
         12    1    6    6    0    0  0.70494464154E+02 -0.45380210692E+02  0.45616933445E+02  0.95444945469E+02  0.00000000000E+00 0. -1.
         -5    1    3    3    0  503  0.51142137806E+01  0.72886750478E+02 -0.39959678762E+02  0.83411626915E+02  0.47000000000E+01 0.  1.
         11    1    4    4    0    0 -0.10193122265E+02  0.21624563729E+02 -0.67944454896E+02  0.72027567286E+02  0.00000000000E+00 0. -1.
        -12    1    4    4    0    0 -0.35641950762E+02 -0.57256994990E+02 -0.66913258291E+02  0.95005769638E+02  0.00000000000E+00 0.  1.
</event>
<event>
12    1  0.8113184E-002  0.2027424E+03  0.7818608E-02  0.1148134E+00
         21   -1    0    0  503  502  0.00000000000E+00  0.00000000000E+00  0.41737276546E+03  0.41737276546E+03  0.00000000000E+00 0. -1.
         21   -1    0    0  501  503 -0.00000000000E+00 -0.00000000000E+00 -0.34533543028E+03  0.34533543028E+03  0.00000000000E+00 0. -1.
          6    2    1    2  501    0 -0.58220194322E+02  0.81498063146E+02 -0.28752209332E+03  0.34992801171E+03  0.17247937240E+03 0.  0.
         24    2    3    3    0    0  0.19922488718E+02  0.92298932114E+02 -0.17131143528E+03  0.20939351514E+03  0.74713036995E+02 0.  0.
         -6    2    1    2    0  502  0.58220194322E+02 -0.81498063146E+02  0.35955942851E+03  0.41278018403E+03  0.17627527444E+03 0.  0.
        -24    2    5    5    0    0  0.38167537494E+02 -0.77572542990E+02  0.37079505638E+03  0.38899262241E+03  0.79699599188E+02 0.  0.
          5    1    3    3  501    0 -0.78142683041E+02 -0.10800868968E+02 -0.11621065804E+03  0.14053449657E+03  0.47000000000E+01 0. -1.
        -11    1    4    4    0    0  0.42704612291E+02  0.25371047809E+02 -0.73222848505E+02  0.88481407770E+02  0.00000000000E+00 0.  1.
         12    1    4    4    0    0 -0.22782123572E+02  0.66927884305E+02 -0.98088586775E+02  0.12091210737E+03  0.00000000000E+00 0. -1.
         -5    1    5    5    0  502  0.20052656829E+02 -0.39255201563E+01 -0.11235627871E+02  0.23787561624E+02  0.47000000000E+01 0.  1.
         13    1    6    6    0    0 -0.11544426635E+02 -0.63825057508E+02  0.23305944602E+03  0.24191654994E+03  0.00000000000E+00 0. -1.
        -14    1    6    6    0    0  0.49711964129E+02 -0.13747485483E+02  0.13773561035E+03  0.14707607247E+03  0.00000000000E+00 0.  1.
</event>
<event>
12    1  0.8113184E-002  0.2015542E+03  0.7818608E-02  0.1148684E+00
         21   -1    0    0  503  502  0.00000000000E+00  0.00000000000E+00  0.56912412611E+02  0.56912412611E+02  0.00000000000E+00 0. -1.
         21   -1    0    0  501  503 -0.00000000000E+00 -0.00000000000E+00 -0.11353532861E+04  0.11353532861E+04  0.00000000000E+00 0. -1.
          6    2    1    2  501    0 -0.91765797151E+02 -0.51770341246E+02 -0.17516038745E+03  0.26703046251E+03  0.17182251545E+03 0.  0.
         24    2    3    3    0    0 -0.69457410460E+02  0.33098776082E+02 -0.12434473462E+03  0.16551813929E+03  0.77555016336E+02 0.  0.
         -6    2    1    2    0  502  0.91765797151E+02  0.51770341246E+02 -0.90328048602E+03  0.92523523618E+03  0.17042146607E+03 0.  0.
        -24    2    5    5    0    0  0.11803945556E+03  0.81032484329E+01 -0.55389996057E+03  0.57212624213E+03  0.80773107581E+02 0.  0.
          5    1    3    3  501    0 -0.22308386691E+02 -0.84869117328E+02 -0.50815652827E+02  0.10151232322E+03  0.47000000000E+01 0. -1.
        -11    1    4    4    0    0  0.16028595915E+02  0.64822947848E+01 -0.34969738862E+02  0.39010494341E+02  0.00000000000E+00 0.  1.
         12    1    4    4    0    0 -0.85486006375E+02  0.26616481297E+02 -0.89374995763E+02  0.12650764495E+03  0.00000000000E+00 0. -1.
         -5    1    5    5    0  502 -0.26273658414E+02  0.43667092813E+02 -0.34938052544E+03  0.35310899405E+03  0.47000000000E+01 0.  1.
         13    1    6    6    0    0  0.94019824462E+02  0.40578053029E+02 -0.41718402837E+03  0.42956817772E+03  0.00000000000E+00 0. -1.
        -14    1    6    6    0    0  0.24019631102E+02 -0.32474804596E+02 -0.13671593220E+03  0.14255806441E+03  0.00000000000E+00 0.  1.
</event>
<event>
12    1  0.8113184E-002  0.1750775E+03  0.7818608E-02  0.1172890E+00
         21   -1    0    0  501  502  0.00000000000E+00  0.00000000000E+00  0.23819061893E+03  0.23819061893E+03  0.00000000000E+00 0. -1.
         21   -1    0    0  502  503 -0.00000000000E+00 -0.00000000000E+00 -0.12906017163E+03  0.12906017163E+03  0.00000000000E+00 0. -1.
         -6    2    1    2    0  503 -0.29025987194E+02 -0.94164477328E+00  0.37776996278E+02  0.17819145797E+03  0.17170235764E+03 0.  0.
        -24    2    3    3    0    0 -0.37372597868E+02 -0.53525724673E+02 -0.89313725768E+01  0.10720897358E+03  0.84571155408E+02 0.  0.
          6    2    1    2  501    0  0.29025987194E+02  0.94164477328E+00  0.71353451016E+02  0.18905933259E+03  0.17265202472E+03 0.  0.
         24    2    5    5    0    0  0.25719364230E+02 -0.32381089825E+02 -0.16512192810E+02  0.94911577646E+02  0.83818460885E+02 0.  0.
          5    1    5    5  501    0  0.33066229636E+01  0.33322734598E+02  0.87865643826E+02  0.94147754947E+02  0.47000000000E+01 0. -1.
        -13    1    6    6    0    0  0.74983830500E+01  0.27089989659E+02  0.60387791119E+01  0.28749958978E+02  0.00000000000E+00 0.  1.
         14    1    6    6    0    0  0.18220981180E+02 -0.59471079484E+02 -0.22550971922E+02  0.66161618668E+02  0.00000000000E+00 0. -1.
         -5    1    3    3    0  503  0.83466106744E+01  0.52584079900E+02  0.46708368854E+02  0.70982484387E+02  0.47000000000E+01 0.  1.
         11    1    4    4    0    0 -0.60718216573E+02 -0.29090307944E+02  0.10629539345E+02  0.68161095552E+02  0.00000000000E+00 0. -1.
        -12    1    4    4    0    0  0.23345618705E+02 -0.24435416729E+02 -0.19560911922E+02  0.39047878030E+02  0.00000000000E+00 0.  1.
</event>
<event>
12    1  0.8113184E-002  0.1812391E+03  0.7818608E-02  0.1166773E+00
         21   -1    0    0  501  502  0.00000000000E+00  0.00000000000E+00  0.18570147540E+03  0.18570147540E+03  0.00000000000E+00 0. -1.
         21   -1    0    0  502  503 -0.00000000000E+00 -0.00000000000E+00 -0.24707568797E+03  0.24707568797E+03  0.00000000000E+00 0. -1.
         -6    2    1    2    0  503 -0.44888248984E+02 -0.35736867142E+02 -0.14652721909E+03  0.23253069178E+03  0.17119643137E+03 0.  0.
        -24    2    3    3    0    0  0.16381628022E+02 -0.72124595240E+02 -0.97289910617E+02  0.14578700538E+03  0.79487164084E+02 0.  0.
          6    2    1    2  501    0  0.44888248984E+02  0.35736867142E+02  0.85153006517E+02  0.20024647159E+03  0.17191723676E+03 0.  0.
         24    2    5    5    0    0  0.74687789093E+02  0.28891831739E+02  0.39689265830E+01  0.11336832742E+03  0.80147498417E+02 0.  0.
          5    1    5    5  501    0 -0.29799540109E+02  0.68450354029E+01  0.81184079934E+02  0.86878144174E+02  0.47000000000E+01 0. -1.
        -13    1    6    6    0    0  0.13398254899E+02 -0.26309412883E+02  0.86089908999E+01  0.30754075582E+02  0.00000000000E+00 0.  1.
         14    1    6    6    0    0  0.61289534194E+02  0.55201244622E+02 -0.46400643169E+01  0.82614251836E+02  0.00000000000E+00 0. -1.
         -5    1    3    3    0  503 -0.61269877005E+02  0.36387728098E+02 -0.49237308475E+02  0.86743686400E+02  0.47000000000E+01 0.  1.
         11    1    4    4    0    0 -0.21584004181E+02 -0.66095591460E+02 -0.55145583645E+02  0.88744193289E+02  0.00000000000E+00 0. -1.
        -12    1    4    4    0    0  0.37965632203E+02 -0.60290037796E+01 -0.42144326972E+02  0.57042812089E+02  0.00000000000E+00 0.  1.
</event>
<event>
12    1  0.8113184E-002  0.2059457E+03  0.7818608E-02  0.1145451E+00
         21   -1    0    0  503  502  0.00000000000E+00  0.00000000000E+00  0.36050975720E+02  0.36050975720E+02  0.00000000000E+00 0. -1.
         21   -1    0    0  501  503 -0.00000000000E+00 -0.00000000000E+00 -0.11773500717E+04  0.11773500717E+04  0.00000000000E+00 0. -1.
          6    2    1    2  501    0  0.40417320619E+02 -0.10597192312E+03 -0.65087375756E+03  0.68267875712E+03  0.17190121827E+03 0.  0.
         24    2    3    3    0    0  0.26384114812E+02  0.57662649855E+00 -0.15254376026E+03  0.17287055740E+03  0.76929687430E+02 0.  0.
         -6    2    1    2    0  502 -0.40417320619E+02  0.10597192312E+03 -0.49042533844E+03  0.53072229033E+03  0.16818302105E+03 0.  0.
        -24    2    5    5    0    0 -0.11383198539E+01  0.40898472568E+02 -0.41276944877E+03  0.42195684973E+03  0.77427284373E+02 0.  0.
          5    1    3    3  501    0  0.14033205807E+02 -0.10654854962E+03 -0.49832999730E+03  0.50980819972E+03  0.47000000000E+01 0. -1.
        -11    1    4    4    0    0 -0.19429404669E+02  0.14687694182E+02 -0.94511322214E+02  0.97599283567E+02  0.00000000000E+00 0.  1.
         12    1    4    4    0    0  0.45813519481E+02 -0.14111067684E+02 -0.58032438044E+02  0.75271273829E+02  0.00000000000E+00 0. -1.
         -5    1    5    5    0  502 -0.39279000765E+02  0.65073450553E+02 -0.77655889678E+02  0.10876544060E+03  0.47000000000E+01 0.  1.
         11    1    6    6    0    0  0.76238362552E+01  0.52821068368E+02 -0.15823122682E+03  0.16698894959E+03  0.00000000000E+00 0. -1.
        -12    1    6    6    0    0 -0.87621561091E+01 -0.11922595801E+02 -0.25453822194E+03  0.25496790014E+03  0.00000000000E+00 0.  1.
</event>
<event>
12    1  0.8113184E-002  0.1819535E+03  0.7818608E-02  0.1165965E+00
         21   -1    0    0  501  502  0.00000000000E+00  0.00000000000E+00  0.20681799897E+03  0.20681799897E+03  0.00000000000E+00 0.  1.
         21   -1    0    0  502  503 -0.00000000000E+00 -0.00000000000E+00 -0.16058553743E+03  0.16058553743E+03  0.00000000000E+00 0. -1.
         -6    2    1    2    0  503  0.12823012822E+02 -0.62068182943E+02  0.11408187344E+02  0.18231081046E+03  0.17055848229E+03 0.  0.
        -24    2    3    3    0    0  0.19724401735E+02 -0.21714029846E+02 -0.58113198333E+02  0.10149373363E+03  0.77867085662E+02 0.  0.
          6    2    1    2  501    0 -0.12823012822E+02  0.62068182943E+02  0.34824274194E+02  0.18509272594E+03  0.17038103806E+03 0.  0.
         24    2    5    5    0    0  0.49282638731E+02  0.40464728308E+02  0.55090637483E+02  0.11612435139E+03  0.79898147224E+02 0.  0.
          5    1    5    5  501    0 -0.62105651553E+02  0.21603454634E+02 -0.20266363289E+02  0.68968374549E+02  0.47000000000E+01 0. -1.
        -11    1    6    6    0    0  0.39765208988E+02  0.21509495773E+02  0.74649518117E+02  0.87272451606E+02  0.00000000000E+00 0.  1.
         12    1    6    6    0    0  0.95174297432E+01  0.18955232535E+02 -0.19558880634E+02  0.28851899782E+02  0.00000000000E+00 0. -1.
         -5    1    3    3    0  503 -0.69013889137E+01 -0.40354153097E+02  0.69521385676E+02  0.80817076831E+02  0.47000000000E+01 0.  1.
         13    1    4    4    0    0  0.34520734868E+02 -0.40036453671E+02 -0.19659334743E+02  0.56401136521E+02  0.00000000000E+00 0. -1.
        -14    1    4    4    0    0 -0.14796333132E+02  0.18322423824E+02 -0.38453863590E+02  0.45092597108E+02  0.00000000000E+00 0.  1.
</event>
<event>
12    1  0.8113184E-002  0.3419316E+03  0.7818608E-02  0.1066088E+00
         21   -1    0    0  501  502  0.00000000000E+00  0.00000000000E+00  0.75597254379E+03  0.75597254379E+03  0.00000000000E+00 0. -1.
         21   -1    0    0  502  503 -0.00000000000E+00 -0.00000000000E+00 -0.22969223999E+03  0.22969223999E+03  0.00000000000E+00 0. -1.
         -6    2    1    2    0  503 -0.17071049688E+03  0.24010595085E+03 -0.19704590307E+02  0.34144686891E+03  0.17147813865E+03 0.  0.
        -24    2    3    3    0    0 -0.14419861582E+03  0.21846374542E+03  0.35391181138E+02  0.27641688411E+03  0.81450041430E+02 0.  0.
          6    2    1    2  501    0  0.17071049688E+03 -0.24010595085E+03  0.54598489410E+03  0.64421791486E+03  0.17356346353E+03 0.  0.
         24    2    5    5    0    0  0.37957050596E+02 -0.17024388640E+03  0.29658379150E+03  0.35313856911E+03  0.79505880694E+02 0.  0.
          5    1    5    5  501    0  0.13275344628E+03 -0.69862064452E+02  0.24940110260E+03  0.29107934576E+03  0.47000000000E+01 0. -1.
        -13    1    6    6    0    0 -0.18242925892E+02 -0.59708221878E+02  0.14084922778E+03  0.15406615810E+03  0.00000000000E+00 0.  1.
         14    1    6    6    0    0  0.56199976487E+02 -0.11053566452E+03  0.15573456372E+03  0.19907241101E+03  0.00000000000E+00 0. -1.
         -5    1    3    3    0  503 -0.26511881061E+02  0.21642205427E+02 -0.55095771445E+02  0.65029984808E+02  0.47000000000E+01 0.  1.
         11    1    4    4    0    0 -0.88109101416E+02  0.17959965699E+03  0.11090057795E+01  0.20005119454E+03  0.00000000000E+00 0. -1.
        -12    1    4    4    0    0 -0.56089514403E+02  0.38864088431E+02  0.34282175358E+02  0.76365689566E+02  0.00000000000E+00 0.  1.
</event>
<event>
12    1  0.8113184E-002  0.1737309E+03  0.7818608E-02  0.1174131E+00
         21   -1    0    0  501  502  0.00000000000E+00  0.00000000000E+00  0.23641987739E+03  0.23641987739E+03  0.00000000000E+00 0. -1.
         21   -1    0    0  502  503 -0.00000000000E+00 -0.00000000000E+00 -0.19433866645E+03  0.19433866645E+03  0.00000000000E+00 0. -1.
         -6    2    1    2    0  503 -0.24627771074E+02 -0.67661587159E+00 -0.10542092818E+03  0.20321416492E+03  0.17197511392E+03 0.  0.
        -24    2    3    3    0    0 -0.16368801244E+02 -0.14484547538E+02 -0.14054742138E+03  0.16429334678E+03  0.82225217334E+02 0.  0.
          6    2    1    2  501    0  0.24627771074E+02  0.67661587159E+00  0.14750213912E+03  0.22754437892E+03  0.17150095748E+03 0.  0.
         24    2    5    5    0    0 -0.11762091942E+02  0.22600124474E+02  0.16159238390E+03  0.18253896416E+03  0.80989273794E+02 0.  0.
          5    1    5    5  501    0  0.36389863016E+02 -0.21923508602E+02 -0.14090244778E+02  0.45005414759E+02  0.47000000000E+01 0. -1.
        -11    1    6    6    0    0 -0.24095731682E+02  0.10625765264E+02  0.73492362118E+01  0.27340856710E+02  0.00000000000E+00 0.  1.
         12    1    6    6    0    0  0.12333639740E+02  0.11974359209E+02  0.15424314769E+03  0.15519810745E+03  0.00000000000E+00 0. -1.
         -5    1    3    3    0  503 -0.82589698298E+01  0.13807931666E+02  0.35126493207E+02  0.38920818139E+02  0.47000000000E+01 0.  1.
         11    1    4    4    0    0 -0.82418484720E+00 -0.23748141605E+02 -0.12178779236E+01  0.23793628076E+02  0.00000000000E+00 0. -1.
        -12    1    4    4    0    0 -0.15544616397E+02  0.92635940676E+01 -0.13932954346E+03  0.14049971870E+03  0.00000000000E+00 0.  1.
</event>
<event>
12    1  0.8113184E-002  0.1906034E+03  0.7818608E-02  0.1158081E+00
         21   -1    0    0  503  502  0.00000000000E+00  0.00000000000E+00  0.21795285635E+03  0.21795285635E+03  0.00000000000E+00 0. -1.
         21   -1    0    0  501  503 -0.00000000000E+00 -0.00000000000E+00 -0.20927814556E+03  0.20927814556E+03  0.00000000000E+00 0.  1.
          6    2    1    2  501    0 -0.74871961411E+02 -0.31031578639E+02  0.10142523076E+03  0.21590912844E+03  0.17251349173E+03 0.  0.
         24    2    3    3    0    0 -0.48169955862E+02 -0.85302132439E+02  0.54672987449E+02  0.13931831721E+03  0.82605444781E+02 0.  0.
         -6    2    1    2    0  502  0.74871961411E+02  0.31031578639E+02 -0.92750519972E+02  0.21132187347E+03  0.17171344086E+03 0.  0.
        -24    2    5    5    0    0  0.16861347987E+02  0.51497808639E+02  0.17356281167E+01  0.98477644457E+02  0.82210125303E+02 0.  0.
          5    1    3    3  501    0 -0.26702005549E+02  0.54270553800E+02  0.46752243310E+02  0.76590811228E+02  0.47000000000E+01 0. -1.
        -11    1    4    4    0    0 -0.69384932715E+02 -0.48274183405E+02  0.28233215119E+02  0.89116665710E+02  0.00000000000E+00 0.  1.
         12    1    4    4    0    0  0.21214976853E+02 -0.37027949034E+02  0.26439772330E+02  0.50201651500E+02  0.00000000000E+00 0. -1.
         -5    1    5    5    0  502  0.58010613424E+02 -0.20466230000E+02 -0.94486148089E+02  0.11284422901E+03  0.47000000000E+01 0.  1.
         13    1    6    6    0    0  0.49528648381E+02  0.21263690223E+02  0.25257909999E+01  0.53959347221E+02  0.00000000000E+00 0. -1.
        -14    1    6    6    0    0 -0.32667300394E+02  0.30234118416E+02 -0.79016288323E+00  0.44518297236E+02  0.00000000000E+00 0.  1.
</event>
<event>
12    1  0.8113184E-002  0.1840395E+03  0.7818608E-02  0.1166101E+00
         21   -1    0    0  501  502  0.00000000000E+00  0.00000000000E+00  0.16472649227E+03  0.16472649227E+03  0.00000000000E+00 0.  1.
         21   -1    0    0  502  503 -0.00000000000E+00 -0.00000000000E+00 -0.29087369380E+03  0.29087369380E+03  0.00000000000E+00 0. -1.
         -6    2    1    2    0  503  0.10882231231E+02 -0.67907132320E+02 -0.19434998045E+03  0.26766108406E+03  0.17070658875E+03 0.  0.
        -24    2    3    3    0    0  0.39151005509E+02  0.16098012232E+02 -0.12496880200E+03  0.15500308020E+03  0.81343753104E+02 0.  0.
          6    2    1    2  501    0 -0.10882231231E+02  0.67907132320E+02  0.68202778919E+02  0.18793910200E+03  0.16105801884E+03 0.  0.
         24    2    5    5    0    0  0.44210690116E+02  0.35815901452E+02  0.78821711965E+02  0.12313224419E+03  0.75573297955E+02 0.  0.
          5    1    5    5  501    0 -0.55092921346E+02  0.32091230868E+02 -0.10618933046E+02  0.64806857817E+02  0.47000000000E+01 0. -1.
        -11    1    6    6    0    0  0.26475059390E+02  0.54305744806E+02  0.28795876597E+02  0.66927163377E+02  0.00000000000E+00 0.  1.
         12    1    6    6    0    0  0.17735630725E+02 -0.18489843354E+02  0.50025835368E+02  0.56205080809E+02  0.00000000000E+00 0. -1.
         -5    1    3    3    0  503 -0.28268774278E+02 -0.84005144552E+02 -0.69381178454E+02  0.11265800386E+03  0.47000000000E+01 0.  1.
         11    1    4    4    0    0  0.50024739934E+02 -0.16106952948E+02 -0.49335153712E+02  0.72082355195E+02  0.00000000000E+00 0. -1.
        -12    1    4    4    0    0 -0.10873734425E+02  0.32204965179E+02 -0.75633648287E+02  0.82920725007E+02  0.00000000000E+00 0.  1.
</event>
<event>
12    1  0.8113184E-002  0.2306843E+03  0.7818608E-02  0.1126197E+00
         21   -1    0    0  503  502  0.00000000000E+00  0.00000000000E+00  0.88750877712E+02  0.88750877712E+02  0.00000000000E+00 0.  1.
         21   -1    0    0  501  503 -0.00000000000E+00 -0.00000000000E+00 -0.63827289880E+03  0.63827289880E+03  0.00000000000E+00 0. -1.
          6    2    1    2  501    0  0.14256334642E+03  0.57679813192E+02 -0.18475657112E+03  0.29555074153E+03  0.17194179728E+03 0.  0.
         24    2    3    3    0    0  0.33855489686E+02  0.45446874144E+02 -0.21980499177E+02  0.99374334916E+02  0.78616178644E+02 0.  0.
         -6    2    1    2    0  502 -0.14256334642E+03 -0.57679813192E+02 -0.36476544998E+03  0.43147303499E+03  0.17165045247E+03 0.  0.
        -24    2    5    5    0    0 -0.16632282342E+03 -0.61947747180E+02 -0.35562874613E+03  0.40523761304E+03  0.79024761786E+02 0.  0.
          5    1    3    3  501    0  0.10870785674E+03  0.12232939048E+02 -0.16277607194E+03  0.19617640661E+03  0.47000000000E+01 0. -1.
        -11    1    4    4    0    0  0.52287106061E+02  0.52057546037E+02 -0.27955981065E+02  0.78901625059E+02  0.00000000000E+00 0.  1.
         12    1    4    4    0    0 -0.18431616375E+02 -0.66106718932E+01  0.59754818876E+01  0.20472709857E+02  0.00000000000E+00 0. -1.
         -5    1    5    5    0  502  0.23759476998E+02  0.42679339874E+01 -0.91367038440E+01  0.26235421950E+02  0.47000000000E+01 0.  1.
         11    1    6    6    0    0 -0.11430875758E+03 -0.12623668822E+01 -0.20519753257E+03  0.23489170484E+03  0.00000000000E+00 0. -1.
        -12    1    6    6    0    0 -0.52014065847E+02 -0.60685380298E+02 -0.15043121356E+03  0.17034590820E+03  0.00000000000E+00 0.  1.
</event>
<event>
12    1  0.8113184E-002  0.1755275E+03  0.7818608E-02  0.1173401E+00
         21   -1    0    0  503  502  0.00000000000E+00  0.00000000000E+00  0.24934506571E+03  0.24934506571E+03  0.00000000000E+00 0.  1.
         21   -1    0    0  501  503 -0.00000000000E+00 -0.00000000000E+00 -0.16100705751E+03  0.16100705751E+03  0.00000000000E+00 0.  1.
          6    2    1    2  501    0 -0.11348439120E+02 -0.97233149670E+01 -0.58588845082E+02  0.18504742855E+03  0.17489016015E+03 0.  0.
         24    2    3    3    0    0  0.53669154880E+02 -0.22356700662E+02 -0.44551241679E+01  0.99376898584E+02  0.80471855893E+02 0.  0.
         -6    2    1    2    0  502  0.11348439120E+02  0.97233149670E+01  0.14692685328E+03  0.22530469468E+03  0.17015103674E+03 0.  0.
        -24    2    5    5    0    0 -0.53924262362E+02  0.15102621879E+02  0.11969514828E+03  0.15421940605E+03  0.79503342207E+02 0.  0.
          5    1    3    3  501    0 -0.65017594001E+02  0.12633385695E+02 -0.54133720914E+02  0.85670529961E+02  0.47000000000E+01 0. -1.
        -13    1    4    4    0    0  0.19614596444E+02  0.27922948892E+02 -0.15792281407E+02  0.37600792817E+02  0.00000000000E+00 0.  1.
         14    1    4    4    0    0  0.34054558437E+02 -0.50279649553E+02  0.11337157239E+02  0.61776105767E+02  0.00000000000E+00 0. -1.
         -5    1    5    5    0  502  0.65272701483E+02 -0.53793069125E+01  0.27231704999E+02  0.71085288625E+02  0.47000000000E+01 0.  1.
         13    1    6    6    0    0 -0.11397913898E+02  0.43791916489E+02  0.46961908647E+02  0.65215529246E+02  0.00000000000E+00 0. -1.
        -14    1    6    6    0    0 -0.42526348465E+02 -0.28689294610E+02  0.72733239633E+02  0.89003876805E+02  0.00000000000E+00 0.  1.
</event>
<event>
12    1  0.8113184E-002  0.1904000E+03  0.7818608E-02  0.1158153E+00
         21   -1    0    0  501  502  0.00000000000E+00  0.00000000000E+00  0.89259047128E+02  0.89259047128E+02  0.00000000000E+00 0.  1.
         21   -1    0    0  502  503 -0.00000000000E+00 -0.00000000000E+00 -0.40599948564E+03  0.40599948564E+03  0.00000000000E+00 0.  1.
         -6    2    1    2    0  503  0.79817628418E+02 -0.98376754720E+01 -0.15122345292E+03  0.24314744149E+03  0.17258189918E+03 0.  0.
        -24    2    3    3    0    0  0.28771792116E+02 -0.50156905548E+02 -0.21932688725E+02  0.98338914723E+02  0.76458930927E+02 0.  0.
          6    2    1    2  501    0 -0.79817628418E+02  0.98376754720E+01 -0.16551698559E+03  0.25211109128E+03  0.17232671343E+03 0.  0.
         24    2    5    5    0    0 -0.63669022746E+01 -0.37991444667E+02 -0.12972417171E+03  0.15731737087E+03  0.80227845160E+02 0.  0.
          5    1    5    5  501    0 -0.73450726143E+02  0.47829120139E+02 -0.35792813888E+02  0.94793720416E+02  0.47000000000E+01 0. -1.
        -13    1    6    6    0    0 -0.38018911921E+02 -0.42468290523E+02 -0.85047440973E+02  0.10238193483E+03  0.00000000000E+00 0.  1.
         14    1    6    6    0    0  0.31652009646E+02  0.44768458560E+01 -0.44676730732E+02  0.54935436035E+02  0.00000000000E+00 0. -1.
         -5    1    3    3    0  503  0.51045836302E+02  0.40319230076E+02 -0.12929076420E+03  0.14480852677E+03  0.47000000000E+01 0.  1.
         13    1    4    4    0    0  0.24144134397E+01 -0.49811270867E+02 -0.42008259125E+02  0.65204953280E+02  0.00000000000E+00 0. -1.
        -14    1    4    4    0    0  0.26357378676E+02 -0.34563468145E+00  0.20075570400E+02  0.33133961443E+02  0.00000000000E+00 0.  1.
</event>
<event>
12    1  0.8113184E-002  0.1734756E+03  0.7818608E-02  0.1174400E+00
         21   -1    0    0  503  502  0.00000000000E+00  0.00000000000E+00  0.12710303605E+03  0.12710303605E+03  0.00000000000E+00 0.  1.
         21   -1    0    0  501  503 -0.00000000000E+00 -0.00000000000E+00 -0.23935118592E+03  0.23935118592E+03  0.00000000000E+00 0.  1.
          6    2    1    2  501    0  0.20537234655E+02 -0.10464575082E+02 -0.77639048994E+02  0.19005687043E+03  0.17193750821E+03 0.  0.
         24    2    3    3    0    0  0.30511539236E+02 -0.55593879287E+02 -0.97460912117E+02  0.13954808795E+03  0.77158317880E+02 0.  0.
         -6    2    1    2    0  502 -0.20537234655E+02  0.10464575082E+02 -0.34609100879E+02  0.17639735155E+03  0.17142622446E+03 0.  0.
        -24    2    5    5    0    0 -0.62546340355E+02  0.19672711726E+02  0.21260703268E+02  0.10573562388E+03  0.80180698268E+02 0.  0.
          5    1    3    3  501    0 -0.99743045809E+01  0.45129304206E+02  0.19821863122E+02  0.50508782480E+02  0.47000000000E+01 0. -1.
        -13    1    4    4    0    0  0.50261856529E+01 -0.22436932286E+02 -0.94904755844E+02  0.97650351533E+02  0.00000000000E+00 0.  1.
         14    1    4    4    0    0  0.25485353583E+02 -0.33156947002E+02 -0.25561562727E+01  0.41897736414E+02  0.00000000000E+00 0. -1.
         -5    1    5    5    0  502  0.42009105701E+02 -0.92081366441E+01 -0.55869804147E+02  0.70661727673E+02  0.47000000000E+01 0.  1.
         11    1    6    6    0    0 -0.28391713047E+02  0.97570580061E+01 -0.30589507541E+02  0.42860325737E+02  0.00000000000E+00 0. -1.
        -12    1    6    6    0    0 -0.34154627308E+02  0.99156537196E+01  0.51850210809E+02  0.62875298140E+02  0.00000000000E+00 0.  1.
</event>
<event>
12    1  0.8113184E-002  0.2668264E+03  0.7818608E-02  0.1105838E+00
         21   -1    0    0  501  502  0.00000000000E+00  0.00000000000E+00  0.12674041689E+03  0.12674041689E+03  0.00000000000E+00 0. -1.
         21   -1    0    0  502  503 -0.00000000000E+00 -0.00000000000E+00 -0.52617199094E+03  0.52617199094E+03  0.00000000000E+00 0. -1.
         -6    2    1    2    0  503 -0.16345537993E+03  0.85860444696E+02 -0.22607758462E+03  0.34972478245E+03  0.19263092171E+03 0.  0.
        -24    2    3    3    0    0 -0.16048041315E+03  0.98995940370E+02 -0.10983060408E+03  0.23260585931E+03  0.80551629267E+02 0.  0.
          6    2    1    2  501    0  0.16345537993E+03 -0.85860444696E+02 -0.17335398943E+03  0.30318762538E+03  0.16667769299E+03 0.  0.
         24    2    5    5    0    0  0.18635422654E+02 -0.56093600027E+02 -0.57572572785E+02  0.11534111488E+03  0.80592808009E+02 0.  0.
          5    1    5    5  501    0  0.14481995728E+03 -0.29766844669E+02 -0.11578141664E+03  0.18784651050E+03  0.47000000000E+01 0. -1.
        -11    1    6    6    0    0 -0.39719528228E+01  0.14001912649E+02  0.81056576705E+01  0.16659281297E+02  0.00000000000E+00 0.  1.
         12    1    6    6    0    0  0.22607375477E+02 -0.70095512676E+02 -0.65678230455E+02  0.98681833581E+02  0.00000000000E+00 0. -1.
         -5    1    3    3    0  503 -0.29749667879E+01 -0.13135495674E+02 -0.11624698054E+03  0.11711892314E+03  0.47000000000E+01 0.  1.
         11    1    4    4    0    0 -0.67190330892E+02  0.39152853216E+02 -0.17320220047E+01  0.77784872440E+02  0.00000000000E+00 0. -1.
        -12    1    4    4    0    0 -0.93290082255E+02  0.59843087154E+02 -0.10809858208E+03  0.15482098687E+03  0.00000000000E+00 0.  1.
</event>
<event>
12    1  0.8113184E-002  0.1971384E+03  0.7818608E-02  0.1152250E+00
         21   -1    0    0  503  502  0.00000000000E+00  0.00000000000E+00  0.19911117405E+03  0.19911117405E+03  0.00000000000E+00 0.  1.
         21   -1    0    0  501  503 -0.00000000000E+00 -0.00000000000E+00 -0.19817714556E+03  0.19817714556E+03  0.00000000000E+00 0.  1.
          6    2    1    2  501    0  0.65683601092E+02  0.69948305957E+02 -0.25285638510E+02  0.19875341257E+03  0.17221049485E+03 0.  0.
         24    2    3    3    0    0  0.19650043204E+02 -0.18133651441E+02 -0.47767050206E+02  0.96748395332E+02  0.79772221991E+02 0.  0.
         -6    2    1    2    0  502 -0.65683601092E+02 -0.69948305957E+02  0.26219666999E+02  0.19853490703E+03  0.17181832677E+03 0.  0.
        -24    2    5    5    0    0 -0.24697389390E+00  0.17712949081E+02 -0.15033927088E+02  0.81528937785E+02  0.78148187256E+02 0.  0.
          5    1    3    3  501    0  0.46033557888E+02  0.88081957398E+02  0.22481411696E+02  0.10200501724E+03  0.47000000000E+01 0. -1.
        -13    1    4    4    0    0  0.32288845855E+02  0.18402092362E+02 -0.44459674197E+02  0.57947124171E+02  0.00000000000E+00 0.  1.
         14    1    4    4    0    0 -0.12638802651E+02 -0.36535743803E+02 -0.33073760089E+01  0.38801271161E+02  0.00000000000E+00 0. -1.
         -5    1    5    5    0  502 -0.65436627198E+02 -0.87661255038E+02  0.41253594087E+02  0.11700596925E+03  0.47000000000E+01 0.  1.
         13    1    6    6    0    0 -0.31875972960E+02  0.28798189139E+02  0.37275700367E+01  0.43119695363E+02  0.00000000000E+00 0. -1.
        -14    1    6    6    0    0  0.31628999066E+02 -0.11085240057E+02 -0.18761497125E+02  0.38409242422E+02  0.00000000000E+00 0.  1.
</event>
<event>
12    1  0.8113184E-002  0.1883424E+03  0.7818608E-02  0.1160347E+00
         21   -1    0    0  501  502  0.00000000000E+00  0.00000000000E+00  0.16763698674E+03  0.16763698674E+03  0.00000000000E+00 0.  1.
         21   -1    0    0  502  503 -0.00000000000E+00 -0.00000000000E+00 -0.35142063149E+03  0.35142063149E+03  0.00000000000E+00 0. -1.
         -6    2    1    2    0  503  0.44654483307E+02 -0.54328842389E+02 -0.25643883124E+03  0.31718727838E+03  0.17291977736E+03 0.  0.
        -24    2    3    3    0    0 -0.21587659425E+02  0.19688990243E+02 -0.13603365223E+03  0.16102659781E+03  0.81060022755E+02 0.  0.
          6    2    1    2  501    0 -0.44654483307E+02  0.54328842389E+02  0.72655186496E+02  0.20187033985E+03  0.17472038231E+03 0.  0.
         24    2    5    5    0    0 -0.85591412184E+02  0.58522848532E+01  0.59816281511E+02  0.13696474489E+03  0.88437631874E+02 0.  0.
          5    1    5    5  501    0  0.40936928877E+02  0.48476557536E+02  0.12838904985E+02  0.64905594964E+02  0.47000000000E+01 0. -1.
        -11    1    6    6    0    0 -0.99486132714E+02  0.13704403816E+02  0.32908934553E+02  0.10568017439E+03  0.00000000000E+00 0.  1.
         12    1    6    6    0    0  0.13894720531E+02 -0.78521189628E+01  0.26907346959E+02  0.31284570497E+02  0.00000000000E+00 0. -1.
         -5    1    3    3    0  503  0.66242142731E+02 -0.74017832632E+02 -0.12040517901E+03  0.15616068057E+03  0.47000000000E+01 0.  1.
         13    1    4    4    0    0  0.91549258182E+01 -0.20369604592E+02 -0.89891804573E+02  0.92624348783E+02  0.00000000000E+00 0. -1.
        -14    1    4    4    0    0 -0.30742585243E+02  0.40058594835E+02 -0.46141847654E+02  0.68402249031E+02  0.00000000000E+00 0.  1.
</event>
<event>
12    1  0.8113184E-002  0.1742626E+03  0.7818608E-02  0.1178733E+00
         21   -1    0    0  503  502  0.00000000000E+00  0.00000000000E+00  0.16503754753E+03  0.16503754753E+03  0.00000000000E+00 0.  1.
         21   -1    0    0  501  503 -0.00000000000E+00 -0.00000000000E+00 -0.22381985522E+03  0.22381985522E+03  0.00000000000E+00 0.  1.
          6    2    1    2  501    0  0.14418604291E+02 -0.24231096809E+02 -0.12854972145E+03  0.20114763662E+03  0.15211935653E+03 0.  0.
         24    2    3    3    0    0 -0.23908237249E+02  0.37755418080E+01 -0.13323314308E+03  0.15321703025E+03  0.71683536610E+02 0.  0.
         -6    2    1    2    0  502 -0.14418604291E+02  0.24231096809E+02  0.69767413760E+02  0.18770976613E+03  0.17196633995E+03 0.  0.
        -24    2    5    5    0    0  0.71637094453E+01 -0.50718027333E+02  0.49959607393E+02  0.10710203282E+03  0.79694705185E+02 0.  0.
          5    1    3    3  501    0  0.38326841540E+02 -0.28006638617E+02  0.46834216220E+01  0.47930606371E+02  0.47000000000E+01 0. -1.
        -13    1    4    4    0    0 -0.41068740223E+02 -0.11595786030E+01 -0.36837087267E+02  0.55181129423E+02  0.00000000000E+00 0.  1.
         14    1    4    4    0    0  0.17160502974E+02  0.49351204110E+01 -0.96396055809E+02  0.98035900829E+02  0.00000000000E+00 0. -1.
         -5    1    5    5    0  502 -0.21582313736E+02  0.74949124142E+02  0.19807806366E+02  0.80607733307E+02  0.47000000000E+01 0.  1.
         11    1    6    6    0    0 -0.88420449405E+01  0.17081865022E+02  0.28169726363E+02  0.34110194293E+02  0.00000000000E+00 0. -1.
        -12    1    6    6    0    0  0.16005754386E+02 -0.67799892355E+02  0.21789881030E+02  0.72991838531E+02  0.00000000000E+00 0.  1.
</event>
<event>
12    1  0.8113184E-002  0.1732277E+03  0.7818608E-02  0.1174916E+00
         21   -1    0    0  501  502  0.00000000000E+00  0.00000000000E+00  0.20274797804E+04  0.20274797804E+04  0.00000000000E+00 0. -1.
         21   -1    0    0  502  503 -0.00000000000E+00 -0.00000000000E+00 -0.14718028628E+02  0.14718028628E+02  0.00000000000E+00 0. -1.
         -6    2    1    2    0  503  0.34702582588E+01  0.83839912623E+01  0.10605316019E+04  0.10743393040E+04  0.17145065606E+03 0.  0.
        -24    2    3    3    0    0 -0.35940336770E+02  0.27047437360E+02  0.96378366300E+03  0.96811419913E+03  0.79642211266E+02 0.  0.
          6    2    1    2  501    0 -0.34702582588E+01 -0.83839912623E+01  0.95223014985E+03  0.96785850502E+03  0.17298986516E+03 0.  0.
         24    2    5    5    0    0 -0.66760757590E+02 -0.89980154054E+01  0.48793313233E+03  0.49924365804E+03  0.81409615095E+02 0.  0.
          5    1    5    5  501    0  0.63290499331E+02  0.61402414304E+00  0.46429701752E+03  0.46861484698E+03  0.47000000000E+01 0. -1.
        -11    1    6    6    0    0 -0.12314584422E+02  0.20757971052E+02  0.37760016304E+02  0.44814742920E+02  0.00000000000E+00 0.  1.
         12    1    6    6    0    0 -0.54446173168E+02 -0.29755986457E+02  0.45017311603E+03  0.45442891512E+03  0.00000000000E+00 0. -1.
         -5    1    3    3    0  503  0.39410595029E+02 -0.18663446098E+02  0.96747938885E+02  0.10622510484E+03  0.47000000000E+01 0.  1.
         13    1    4    4    0    0 -0.54393346300E+02  0.40914259207E+02  0.75331467870E+03  0.75638324801E+03  0.00000000000E+00 0. -1.
        -14    1    4    4    0    0  0.18453009529E+02 -0.13866821847E+02  0.21046898430E+03  0.21173095112E+03  0.00000000000E+00 0.  1.
</event>
<event>
12    1  0.8113184E-002  0.1910052E+03  0.7818608E-02  0.1157845E+00
         21   -1    0    0  501  502  0.00000000000E+00  0.00000000000E+00  0.34871609567E+03  0.34871609567E+03  0.00000000000E+00 0. -1.
         21   -1    0    0  502  503 -0.00000000000E+00 -0.00000000000E+00 -0.16029163680E+03  0.16029163680E+03  0.00000000000E+00 0. -1.
         -6    2    1    2    0  503  0.77724175349E+02  0.28080788741E+02 -0.56508216883E+02  0.19918877714E+03  0.17220166153E+03 0.  0.
        -24    2    3    3    0    0  0.10166432880E+03  0.45010671375E+02 -0.80789749757E+02  0.16082949258E+03  0.83531704941E+02 0.  0.
          6    2    1    2  501    0 -0.77724175349E+02 -0.28080788741E+02  0.24493267575E+03  0.30981895534E+03  0.17078112105E+03 0.  0.
         24    2    5    5    0    0  0.15546090317E+02  0.11129493938E+02  0.15030279450E+03  0.17120548864E+03  0.79717267547E+02 0.  0.
          5    1    5    5  501    0 -0.93270265666E+02 -0.39210282679E+02  0.94629881247E+02  0.13861346670E+03  0.47000000000E+01 0. -1.
        -13    1    6    6    0    0  0.33810998908E+02 -0.17451364100E+02  0.11941530114E+03  0.12533055454E+03  0.00000000000E+00 0.  1.
         14    1    6    6    0    0 -0.18264908590E+02  0.28580858038E+02  0.30887493365E+02  0.45874934097E+02  0.00000000000E+00 0. -1.
         -5    1    3    3    0  503 -0.23940153447E+02 -0.16929882634E+02  0.24281532874E+02  0.38359284558E+02  0.47000000000E+01 0.  1.
         13    1    4    4    0    0  0.33401230811E+02  0.59515450057E+02 -0.30179790019E+02  0.74622722683E+02  0.00000000000E+00 0. -1.
        -14    1    4    4    0    0  0.68263097985E+02 -0.14504778682E+02 -0.50609959739E+02  0.86206769896E+02  0.00000000000E+00 0.  1.
</event>
<event>
12    1  0.8113184E-002  0.1921470E+03  0.7818608E-02  0.1156594E+00
         21   -1    0    0  501  502  0.00000000000E+00  0.00000000000E+00  0.10485129977E+03  0.10485129977E+03  0.00000000000E+00 0.  1.
         21   -1    0    0  502  503 -0.00000000000E+00 -0.00000000000E+00 -0.42922847161E+03  0.42922847161E+03  0.00000000000E+00 0. -1.
         -6    2    1    2    0  503  0.81587297017E+02 -0.20674183306E+01 -0.27579137193E+03  0.33612698807E+03  0.17395318344E+03 0.  0.
        -24    2    3    3    0    0 -0.22320707761E+02  0.78652232317E+01 -0.16270339428E+03  0.18215779793E+03  0.78415515719E+02 0.  0.
          6    2    1    2  501    0 -0.81587297017E+02  0.20674183306E+01 -0.48585799912E+02  0.19795278331E+03  0.17367775682E+03 0.  0.
         24    2    5    5    0    0 -0.43653019594E+02 -0.39578901673E+02  0.28237638080E+02  0.10257272251E+03  0.79067841894E+02 0.  0.
          5    1    5    5  501    0 -0.37934277423E+02  0.41646320004E+02 -0.76823437991E+02  0.95380060801E+02  0.47000000000E+01 0. -1.
        -13    1    6    6    0    0 -0.57359757274E+02 -0.19708431833E+02 -0.57080243325E+01  0.60919172530E+02  0.00000000000E+00 0.  1.
         14    1    6    6    0    0  0.13706737681E+02 -0.19870469840E+02  0.33945662412E+02  0.41653549982E+02  0.00000000000E+00 0. -1.
         -5    1    3    3    0  503  0.10390800478E+03 -0.99326415623E+01 -0.11308797765E+03  0.15396919015E+03  0.47000000000E+01 0.  1.
         13    1    4    4    0    0 -0.24427949592E+02  0.11764627161E+02 -0.17079395809E+03  0.17293266693E+03  0.00000000000E+00 0. -1.
        -14    1    4    4    0    0  0.21072418306E+01 -0.38994039294E+01  0.80905638097E+01  0.92251309962E+01  0.00000000000E+00 0.  1.
</event>
<event>
12    1  0.8113184E-002  0.1853923E+03  0.7818608E-02  0.1163835E+00
         21   -1    0    0  501  502  0.00000000000E+00  0.00000000000E+00  0.16805763473E+03  0.16805763473E+03  0.00000000000E+00 0.  1.
         21   -1    0    0  502  503 -0.00000000000E+00 -0.00000000000E+00 -0.24137058666E+03  0.24137058666E+03  0.00000000000E+00 0. -1.
         -6    2    1    2    0  503  0.45388739135E+02 -0.31036409075E+02 -0.12264504247E+03  0.22228835527E+03  0.17705058633E+03 0.  0.
        -24    2    3    3    0    0  0.11700173239E+02  0.48362679677E+02 -0.92517814271E+02  0.13080680169E+03  0.77942482457E+02 0.  0.
          6    2    1    2  501    0 -0.45388739135E+02  0.31036409075E+02  0.49332090538E+02  0.18713986612E+03  0.17194265907E+03 0.  0.
         24    2    5    5    0    0 -0.46409849239E+02 -0.31166538870E+02  0.71926885241E+02  0.12078578451E+03  0.79312682891E+02 0.  0.
          5    1    5    5  501    0  0.10211101040E+01  0.62202947946E+02 -0.22594794703E+02  0.66354081613E+02  0.47000000000E+01 0. -1.
        -11    1    6    6    0    0 -0.48401392758E+02 -0.26849350906E+01  0.58789982787E+01  0.48830997513E+02  0.00000000000E+00 0.  1.
         12    1    6    6    0    0  0.19915435190E+01 -0.28481603780E+02  0.66047886963E+02  0.71954786996E+02  0.00000000000E+00 0. -1.
         -5    1    3    3    0  503  0.33688565896E+02 -0.79399088753E+02 -0.30127228196E+02  0.91481553581E+02  0.47000000000E+01 0.  1.
         11    1    4    4    0    0  0.10165449755E+02 -0.20853705674E+02 -0.24868046539E+02  0.34009309722E+02  0.00000000000E+00 0. -1.
        -12    1    4    4    0    0  0.15347234843E+01  0.69216385351E+02 -0.67649767732E+02  0.96797491969E+02  0.00000000000E+00 0.  1.
</event>
<event>
12    1  0.8113184E-002  0.2426530E+03  0.7818608E-02  0.1118729E+00
         21   -1    0    0  503  502  0.00000000000E+00  0.00000000000E+00  0.65102087501E+02  0.65102087501E+02  0.00000000000E+00 0.  1.
         21   -1    0    0  501  503 -0.00000000000E+00 -0.00000000000E+00 -0.15093453438E+04  0.15093453438E+04  0.00000000000E+00 0. -1.
          6    2    1    2  501    0 -0.16446807402E+03 -0.10882478718E+02 -0.12231275318E+04  0.12461599835E+04  0.17235303814E+03 0.  0.
         24    2    3    3    0    0 -0.19136653888E+03 -0.15385406685E+02 -0.10062197238E+04  0.10274938203E+04  0.80047206147E+02 0.  0.
         -6    2    1    2    0  502  0.16446807402E+03  0.10882478718E+02 -0.22111572446E+03  0.32828744775E+03  0.17807950199E+03 0.  0.
        -24    2    5    5    0    0  0.10353567688E+03 -0.63986711737E+02 -0.12562927560E+03  0.19242757650E+03  0.80198015203E+02 0.  0.
          5    1    3    3  501    0  0.26898464863E+02  0.45029279669E+01 -0.21690780797E+03  0.21866616321E+03  0.47000000000E+01 0. -1.
        -13    1    4    4    0    0 -0.60402229318E+02 -0.42783363668E+02 -0.33791132669E+03  0.34592327216E+03  0.00000000000E+00 0.  1.
         14    1    4    4    0    0 -0.13096430956E+03  0.27397956983E+02 -0.66830839715E+03  0.68157054816E+03  0.00000000000E+00 0. -1.
         -5    1    5    5    0  502  0.60932397134E+02  0.74869190455E+02 -0.95486448860E+02  0.13585987125E+03  0.47000000000E+01 0.  1.
         11    1    6    6    0    0  0.44951328757E+02 -0.53246275336E+02 -0.22305939721E+02  0.73166541131E+02  0.00000000000E+00 0. -1.
        -12    1    6    6    0    0  0.58584348125E+02 -0.10740436400E+02 -0.10332333588E+03  0.11926103537E+03  0.00000000000E+00 0.  1.
</event>
<event>
12    1  0.8113184E-002  0.3640162E+03  0.7818608E-02  0.1057059E+00
         21   -1    0    0  503  502  0.00000000000E+00  0.00000000000E+00  0.77341995508E+03  0.77341995508E+03  0.00000000000E+00 0.  1.
         21   -1    0    0  501  503 -0.00000000000E+00 -0.00000000000E+00 -0.17461387627E+03  0.17461387627E+03  0.00000000000E+00 0. -1.
          6    2    1    2  501    0  0.26643839242E+03  0.17712276223E+03  0.23204405708E+03  0.43168537977E+03  0.17362584147E+03 0.  0.
         24    2    3    3    0    0  0.90245040876E+02  0.63365666510E+02  0.27962148269E+02  0.13901442211E+03  0.79898389992E+02 0.  0.
         -6    2    1    2    0  502 -0.26643839242E+03 -0.17712276223E+03  0.36676202173E+03  0.51634845159E+03  0.17245130624E+03 0.  0.
        -24    2    5    5    0    0 -0.95559230439E+02 -0.71034056201E+02  0.23733915108E+03  0.27712706670E+03  0.79322977734E+02 0.  0.
          5    1    3    3  501    0  0.17619335154E+03  0.11375709572E+03  0.20408190881E+03  0.29267095766E+03  0.47000000000E+01 0. -1.
        -11    1    4    4    0    0 -0.12880885227E+02  0.98753033496E+01 -0.70270749343E+01  0.17686678677E+02  0.00000000000E+00 0.  1.
         12    1    4    4    0    0  0.10312592610E+03  0.53490363161E+02  0.34989223203E+02  0.12132774343E+03  0.00000000000E+00 0. -1.
         -5    1    5    5    0  502 -0.17087916198E+03 -0.10608870603E+03  0.12942287065E+03  0.23922138489E+03  0.47000000000E+01 0.  1.
         13    1    6    6    0    0 -0.13570701575E+02 -0.54826137668E+02  0.12445837127E+03  0.13667463369E+03  0.00000000000E+00 0. -1.
        -14    1    6    6    0    0 -0.81988528864E+02 -0.16207918533E+02  0.11288077981E+03  0.14045243301E+03  0.00000000000E+00 0.  1.
</event>
<event>
12    1  0.8113184E-002  0.3060018E+03  0.7818608E-02  0.1082315E+00
         21   -1    0    0  501  502  0.00000000000E+00  0.00000000000E+00  0.51421876241E+03  0.51421876241E+03  0.00000000000E+00 0. -1.
         21   -1    0    0  502  503 -0.00000000000E+00 -0.00000000000E+00 -0.83631719148E+03  0.83631719148E+03  0.00000000000E+00 0.  1.
         -6    2    1    2    0  503  0.22936243878E+03  0.10828258188E+03 -0.75835926663E+03  0.81765638709E+03  0.17064859860E+03 0.  0.
        -24    2    3    3    0    0  0.22077794960E+03  0.56274148680E+02 -0.52155365521E+03  0.57500940446E+03  0.81901874931E+02 0.  0.
          6    2    1    2  501    0 -0.22936243878E+03 -0.10828258188E+03  0.43626083756E+03  0.53287956680E+03  0.17118664804E+03 0.  0.
         24    2    5    5    0    0 -0.24702787479E+03 -0.98749738538E+02  0.36745869180E+03  0.46105500280E+03  0.82289389658E+02 0.  0.
          5    1    5    5  501    0  0.17665436012E+02 -0.95328433392E+01  0.68802145765E+02  0.71824563998E+02  0.47000000000E+01 0. -1.
        -13    1    6    6    0    0 -0.42732925991E-01 -0.11627422306E+02  0.25752391518E+01  0.11909266656E+02  0.00000000000E+00 0.  1.
         14    1    6    6    0    0 -0.24698514186E+03 -0.87122316231E+02  0.36488345264E+03  0.44914573615E+03  0.00000000000E+00 0. -1.
         -5    1    3    3    0  503  0.85844891773E+01  0.52008433197E+02 -0.23680561143E+03  0.24264698263E+03  0.47000000000E+01 0.  1.
         11    1    4    4    0    0  0.18194130981E+02 -0.17263206224E+02 -0.37127824193E+02  0.44805357053E+02  0.00000000000E+00 0. -1.
        -12    1    4    4    0    0  0.20258381862E+03  0.73537354904E+02 -0.48442583102E+03  0.53020404741E+03  0.00000000000E+00 0.  1.
</event>
<event>
12    1  0.8113184E-002  0.1773309E+03  0.7818608E-02  0.1170467E+00
         21   -1    0    0  501  502  0.00000000000E+00  0.00000000000E+00  0.27395966384E+03  0.27395966384E+03  0.00000000000E+00 0.  1.
         21   -1    0    0  502  503 -0.00000000000E+00 -0.00000000000E+00 -0.15375177790E+03  0.15375177790E+03  0.00000000000E+00 0.  1.
         -6    2    1    2    0  503 -0.86211910891E+01 -0.43322724203E+02 -0.47729108242E+02  0.18364185862E+03  0.17174132030E+03 0.  0.
        -24    2    3    3    0    0  0.39739522315E+02 -0.65852456457E+02 -0.62714800905E+02  0.12802703667E+03  0.80882632315E+02 0.  0.
          6    2    1    2  501    0  0.86211910891E+01  0.43322724203E+02  0.16793699418E+03  0.24406958311E+03  0.17151076940E+03 0.  0.
         24    2    5    5    0    0  0.47361643106E+02  0.36290817572E+02  0.17761861551E+03  0.20325176685E+03  0.78757599471E+02 0.  0.
          5    1    5    5  501    0 -0.38740452017E+02  0.70319066308E+01 -0.96816213266E+01  0.40817816268E+02  0.47000000000E+01 0. -1.
        -11    1    6    6    0    0  0.46609773604E+02 -0.11781830265E+01  0.42693452897E+02  0.63218589283E+02  0.00000000000E+00 0.  1.
         12    1    6    6    0    0  0.75186950212E+00  0.37469000599E+02  0.13492516261E+03  0.14003317756E+03  0.00000000000E+00 0. -1.
         -5    1    3    3    0  503 -0.48360713404E+02  0.22529732254E+02  0.14985692663E+02  0.55614821954E+02  0.47000000000E+01 0.  1.
         13    1    4    4    0    0  0.19662701358E+02 -0.71533235007E+02 -0.14636592028E+02  0.75616501912E+02  0.00000000000E+00 0. -1.
        -14    1    4    4    0    0  0.20076820957E+02  0.56807785494E+01 -0.48078208876E+02  0.52410534756E+02  0.00000000000E+00 0.  1.
</event>
<event>
12    1  0.8113184E-002  0.2124508E+03  0.7818608E-02  0.1139666E+00
         21   -1    0    0  503  502  0.00000000000E+00  0.00000000000E+00  0.22316490723E+03  0.22316490723E+03  0.00000000000E+00 0.  1.
         21   -1    0    0  501  503 -0.00000000000E+00 -0.00000000000E+00 -0.30258860301E+03  0.30258860301E+03  0.00000000000E+00 0. -1.
          6    2    1    2  501    0  0.11444496228E+03  0.49216892676E+02 -0.19119182146E+03  0.28581404125E+03  0.17209125971E+03 0.  0.
         24    2    3    3    0    0  0.68332066749E+02  0.94184330458E+02 -0.98431180809E+02  0.17278707081E+03  0.81404637658E+02 0.  0.
         -6    2    1    2    0  502 -0.11444496228E+03 -0.49216892676E+02  0.11176812568E+03  0.23993946899E+03  0.17192696980E+03 0.  0.
        -24    2    5    5    0    0 -0.61056495318E+02 -0.70014258874E+02  0.11909207820E+02  0.12471467859E+03  0.82353079840E+02 0.  0.
          5    1    3    3  501    0  0.46112895526E+02 -0.44967437781E+02 -0.92760640649E+02  0.11302697045E+03  0.47000000000E+01 0. -1.
        -11    1    4    4    0    0  0.12480485729E+02  0.29443962526E+02  0.11084901411E+02  0.33846484197E+02  0.00000000000E+00 0.  1.
         12    1    4    4    0    0  0.55851581020E+02  0.64740367932E+02 -0.10951608222E+03  0.13894058661E+03  0.00000000000E+00 0. -1.
         -5    1    5    5    0  502 -0.53388466958E+02  0.20797366198E+02  0.99858917863E+02  0.11522479040E+03  0.47000000000E+01 0.  1.
         13    1    6    6    0    0 -0.40367871821E+02 -0.43705764031E+02 -0.33519451850E+02  0.68288450979E+02  0.00000000000E+00 0. -1.
        -14    1    6    6    0    0 -0.20688623497E+02 -0.26308494844E+02  0.45428659670E+02  0.56426227612E+02  0.00000000000E+00 0.  1.
</event>
<event>
12    1  0.8113184E-002  0.1806781E+03  0.7818608E-02  0.1167540E+00
         21   -1    0    0  501  502  0.00000000000E+00  0.00000000000E+00  0.39060978046E+03  0.39060978046E+03  0.00000000000E+00 0. -1.
         21   -1    0    0  502  503 -0.00000000000E+00 -0.00000000000E+00 -0.18356415945E+03  0.18356415945E+03  0.00000000000E+00 0. -1.
         -6    2    1    2    0  503  0.48263011732E+02  0.13597856774E+02 -0.10936126462E+03  0.20981436886E+03  0.17189520985E+03 0.  0.
        -24    2    3    3    0    0  0.66425838045E+02 -0.20371624659E+02 -0.12859385208E+03  0.16650390420E+03  0.79748205434E+02 0.  0.
          6    2    1    2  501    0 -0.48263011732E+02 -0.13597856774E+02  0.31640688564E+03  0.36435957105E+03  0.17358098897E+03 0.  0.
         24    2    5    5    0    0  0.89854641277E+01 -0.24257315834E+01  0.64179677841E+02  0.10543321333E+03  0.83129469426E+02 0.  0.
          5    1    5    5  501    0 -0.57248475859E+02 -0.11172125191E+02  0.25222720780E+03  0.25892635772E+03  0.47000000000E+01 0. -1.
        -11    1    6    6    0    0 -0.17776699399E+02 -0.35111018167E+02  0.42601889379E+02  0.57997548370E+02  0.00000000000E+00 0.  1.
         12    1    6    6    0    0  0.26762163527E+02  0.32685286584E+02  0.21577788462E+02  0.47435664965E+02  0.00000000000E+00 0. -1.
         -5    1    3    3    0  503 -0.18162826314E+02  0.33969481433E+02  0.19232587460E+02  0.43310464658E+02  0.47000000000E+01 0.  1.
         13    1    4    4    0    0  0.14142529854E+02 -0.16747334589E+01 -0.10535172017E+03  0.10630992816E+03  0.00000000000E+00 0. -1.
        -14    1    4    4    0    0  0.52283308191E+02 -0.18696891200E+02 -0.23242131915E+02  0.60193976044E+02  0.00000000000E+00 0.  1.
</event>
<event>
12    1  0.8113184E-002  0.2021643E+03  0.7818608E-02  0.1151999E+00
         21   -1    0    0  503  502  0.00000000000E+00  0.00000000000E+00  0.27094388668E+02  0.27094388668E+02  0.00000000000E+00 0. -1.
         21   -1    0    0  501  503 -0.00000000000E+00 -0.00000000000E+00 -0.15419696346E+04  0.15419696346E+04  0.00000000000E+00 0. -1.
          6    2    1    2  501    0 -0.45422993154E+02 -0.60120277751E+02 -0.10494997960E+04  0.10687938245E+04  0.18759723191E+03 0.  0.
         24    2    3    3    0    0  0.11333046825E+02 -0.91205344351E+02 -0.45568965906E+03  0.47144962042E+03  0.78516408664E+02 0.  0.
         -6    2    1    2    0  502  0.45422993154E+02  0.60120277751E+02 -0.46537544993E+03  0.50027019875E+03  0.16738657728E+03 0.  0.
        -24    2    5    5    0    0  0.15737267914E+02 -0.29060736929E+02 -0.25985003166E+03  0.27422311689E+03  0.81142410919E+02 0.  0.
          5    1    3    3  501    0 -0.56756039979E+02  0.31085066600E+02 -0.59381013696E+03  0.59734420412E+03  0.47000000000E+01 0. -1.
        -11    1    4    4    0    0 -0.30798511350E+02 -0.35447332871E+02 -0.24537033162E+03  0.24982326023E+03  0.00000000000E+00 0.  1.
         12    1    4    4    0    0  0.42131558176E+02 -0.55758011480E+02 -0.21031932744E+03  0.22162636019E+03  0.00000000000E+00 0. -1.
         -5    1    5    5    0  502  0.29685725240E+02  0.89181014680E+02 -0.20552541827E+03  0.22604708186E+03  0.47000000000E+01 0.  1.
         13    1    6    6    0    0  0.35613682524E+02 -0.34651527314E+02 -0.24162880954E+03  0.24668511169E+03  0.00000000000E+00 0. -1.
        -14    1    6    6    0    0 -0.19876414610E+02  0.55907903857E+01 -0.18221222119E+02  0.27538005201E+02  0.00000000000E+00 0.  1.
</event>
<event>
12    1  0.8113184E-002  0.2221917E+03  0.7818608E-02  0.1132528E+00
         21   -1    0    0  501  502  0.00000000000E+00  0.00000000000E+00  0.29146173496E+02  0.29146173496E+02  0.00000000000E+00 0.  1.
         21   -1    0    0  502  503 -0.00000000000E+00 -0.00000000000E+00 -0.19379067606E+04  0.19379067606E+04  0.00000000000E+00 0.  1.
         -6    2    1    2    0  503 -0.13113517782E+03  0.43765502776E+02 -0.13085177786E+04  0.13270056233E+04  0.17208513374E+03 0.  0.
        -24    2    3    3    0    0 -0.16005401928E+02  0.37635647431E+02 -0.35226433322E+03  0.36381551630E+03  0.81233949739E+02 0.  0.
          6    2    1    2  501    0  0.13113517782E+03 -0.43765502776E+02 -0.60024280846E+03  0.64004731076E+03  0.17394618939E+03 0.  0.
         24    2    5    5    0    0  0.37915928667E+02 -0.33100431751E+02 -0.46810543651E+03  0.47791789572E+03  0.82155700576E+02 0.  0.
          5    1    5    5  501    0  0.93219249149E+02 -0.10665071025E+02 -0.13213737195E+03  0.16212941503E+03  0.47000000000E+01 0. -1.
        -11    1    6    6    0    0  0.59946967310E+02 -0.31058345166E+02 -0.25937207505E+03  0.26801517309E+03  0.00000000000E+00 0.  1.
         12    1    6    6    0    0 -0.22031038643E+02 -0.20420865843E+01 -0.20873336146E+03  0.20990272263E+03  0.00000000000E+00 0. -1.
         -5    1    3    3    0  503 -0.11512977589E+03  0.61298553451E+01 -0.95625344538E+03  0.96319010700E+03  0.47000000000E+01 0.  1.
         13    1    4    4    0    0  0.10697709631E+02  0.22693652945E+02 -0.31315357658E+03  0.31415697573E+03  0.00000000000E+00 0. -1.
        -14    1    4    4    0    0 -0.26703111559E+02  0.14941994486E+02 -0.39110756640E+02  0.49658540565E+02  0.00000000000E+00 0.  1.
</event>
<event>
12    1  0.8113184E-002  0.2057896E+03  0.7818608E-02  0.1145077E+00
         21   -1    0    0  503  502  0.00000000000E+00  0.00000000000E+00  0.22361952562E+03  0.22361952562E+03  0.00000000000E+00 0. -1.
         21   -1    0    0  501  503 -0.00000000000E+00 -0.00000000000E+00 -0.24903733303E+03  0.24903733303E+03  0.00000000000E+00 0.  1.
          6    2    1    2  501    0  0.41361792813E+02  0.10541473740E+03 -0.12897075238E+03  0.24286374533E+03  0.17183212465E+03 0.  0.
         24    2    3    3    0    0  0.19844340203E+02  0.11792508605E+03 -0.15192294439E+03  0.20868183918E+03  0.78532828890E+02 0.  0.
         -6    2    1    2    0  502 -0.41361792813E+02 -0.10541473740E+03  0.10355294497E+03  0.22979311333E+03  0.17105144768E+03 0.  0.
        -24    2    5    5    0    0  0.89644777617E+01 -0.62795959977E+02  0.12251658718E+03  0.16101227715E+03  0.83011714896E+02 0.  0.
          5    1    3    3  501    0  0.21517452609E+02 -0.12510348649E+02  0.22952192008E+02  0.34181906151E+02  0.47000000000E+01 0. -1.
        -11    1    4    4    0    0  0.49245273939E+02  0.58091652347E+02 -0.74938071504E+02  0.10684311695E+03  0.00000000000E+00 0.  1.
         12    1    4    4    0    0 -0.29400933736E+02  0.59833433704E+02 -0.76984872884E+02  0.10183872223E+03  0.00000000000E+00 0. -1.
         -5    1    5    5    0  502 -0.50326270574E+02 -0.42618777425E+02 -0.18963642206E+02  0.68780836174E+02  0.47000000000E+01 0.  1.
         13    1    6    6    0    0 -0.23969286548E+02 -0.59127257369E+02  0.49244053879E+02  0.80594888821E+02  0.00000000000E+00 0. -1.
        -14    1    6    6    0    0  0.32933764310E+02 -0.36687026072E+01  0.73272533296E+02  0.80417388332E+02  0.00000000000E+00 0.  1.
</event>
<event>
12    1  0.8113184E-002  0.1766677E+03  0.7818608E-02  0.1171473E+00
         21   -1    0    0  503  502  0.00000000000E+00  0.00000000000E+00  0.19682641486E+02  0.19682641486E+02  0.00000000000E+00 0. -1.
         21   -1    0    0  501  503 -0.00000000000E+00 -0.00000000000E+00 -0.16303612006E+04  0.16303612006E+04  0.00000000000E+00 0. -1.
          6    2    1    2  501    0 -0.31050388859E+02  0.25019525128E+02 -0.64453648474E+03  0.66788194701E+03  0.17043741285E+03 0.  0.
         24    2    3    3    0    0  0.41361360591E+02  0.45112199625E+02 -0.37541698903E+03  0.38842788997E+03  0.78692041201E+02 0.  0.
         -6    2    1    2    0  502  0.31050388859E+02 -0.25019525128E+02 -0.96614207433E+03  0.98216189503E+03  0.17210861969E+03 0.  0.
        -24    2    5    5    0    0  0.31771911071E+02 -0.69106575459E+02 -0.85766465527E+03  0.86497132780E+03  0.82471594604E+02 0.  0.
          5    1    3    3  501    0 -0.72411749450E+02 -0.20092674498E+02 -0.26911949571E+03  0.27945405704E+03  0.47000000000E+01 0. -1.
        -13    1    4    4    0    0 -0.22681425154E+02  0.20747946865E+02 -0.13356585293E+03  0.13705751134E+03  0.00000000000E+00 0.  1.
         14    1    4    4    0    0  0.64042785745E+02  0.24364252760E+02 -0.24185113610E+03  0.25137037863E+03  0.00000000000E+00 0. -1.
         -5    1    5    5    0  502 -0.72152221206E+00  0.44087050332E+02 -0.10847741906E+03  0.11719056723E+03  0.47000000000E+01 0.  1.
         11    1    6    6    0    0  0.32502777627E+01 -0.23946393070E+02 -0.65314821334E+03  0.65359512134E+03  0.00000000000E+00 0. -1.
        -12    1    6    6    0    0  0.28521633308E+02 -0.45160182389E+02 -0.20451644193E+03  0.21137620646E+03  0.00000000000E+00 0.  1.
</event>
<event>
12    1  0.8113184E-002  0.2724389E+03  0.7818608E-02  0.1099935E+00
         21   -1    0    0  503  502  0.00000000000E+00  0.00000000000E+00  0.22958686143E+03  0.22958686143E+03  0.00000000000E+00 0.  1.
         21   -1    0    0  501  503 -0.00000000000E+00 -0.00000000000E+00 -0.55492111574E+03  0.55492111574E+03  0.00000000000E+00 0.  1.
          6    2    1    2  501    0  0.18404363822E+03  0.10349355648E+03 -0.41623635885E+03  0.49730392368E+03  0.17168432974E+03 0.  0.
         24    2    3    3    0    0  0.15087579592E+03  0.32492615048E+02 -0.18547604661E+03  0.25355476747E+03  0.77906228351E+02 0.  0.
         -6    2    1    2    0  502 -0.18404363822E+03 -0.10349355648E+03  0.90902104541E+02  0.28720405348E+03  0.17216271003E+03 0.  0.
        -24    2    5    5    0    0 -0.45018863141E+02 -0.33141764326E+02  0.85497458163E+02  0.13122789201E+03  0.82376390482E+02 0.  0.
          5    1    3    3  501    0  0.33167842300E+02  0.71000941428E+02 -0.23076031225E+03  0.24374915621E+03  0.47000000000E+01 0. -1.
        -11    1    4    4    0    0  0.59446143200E+02  0.26765412785E+02 -0.27119497556E+02  0.70609478192E+02  0.00000000000E+00 0.  1.
         12    1    4    4    0    0  0.91429652718E+02  0.57272022624E+01 -0.15835654905E+03  0.18294528928E+03  0.00000000000E+00 0. -1.
         -5    1    5    5    0  502 -0.13902477508E+03 -0.70351792150E+02  0.54046463781E+01  0.15597616147E+03  0.47000000000E+01 0.  1.
         13    1    6    6    0    0 -0.16168299850E+02  0.27727100572E+02  0.24915083187E+02  0.40632098105E+02  0.00000000000E+00 0. -1.
        -14    1    6    6    0    0 -0.28850563291E+02 -0.60868864898E+02  0.60582374976E+02  0.90595793908E+02  0.00000000000E+00 0.  1.
</event>
<event>
12    1  0.8113184E-002  0.1915148E+03  0.7818608E-02  0.1159244E+00
         21   -1    0    0  501  502  0.00000000000E+00  0.00000000000E+00  0.52564391416E+03  0.52564391416E+03  0.00000000000E+00 0.  1.
         21   -1    0    0  502  503 -0.00000000000E+00 -0.00000000000E+00 -0.94100798973E+02  0.94100798973E+02  0.00000000000E+00 0.  1.
         -6    2    1    2    0  503  0.56867655244E+02  0.20532952789E+02  0.51533733532E+02  0.19832709357E+03  0.18172060419E+03 0.  0.
        -24    2    3    3    0    0  0.99182885106E+02  0.43668435673E+02  0.11738845344E+02  0.13562500132E+03  0.80697977177E+02 0.  0.
          6    2    1    2  501    0 -0.56867655244E+02 -0.20532952789E+02  0.38000938165E+03  0.42141761956E+03  0.17184338094E+03 0.  0.
         24    2    5    5    0    0 -0.61026775203E+02  0.39348288692E+02  0.31404077118E+03  0.33210351694E+03  0.79991155035E+02 0.  0.
          5    1    5    5  501    0  0.41591199593E+01 -0.59881241480E+02  0.65968610467E+02  0.89314102621E+02  0.47000000000E+01 0. -1.
        -13    1    6    6    0    0 -0.24316195712E+02  0.54646034322E+02  0.12060686942E+03  0.13462348752E+03  0.00000000000E+00 0.  1.
         14    1    6    6    0    0 -0.36710579491E+02 -0.15297745631E+02  0.19343390176E+03  0.19748002942E+03  0.00000000000E+00 0. -1.
         -5    1    3    3    0  503 -0.42315229862E+02 -0.23135482884E+02  0.39794888188E+02  0.62702092249E+02  0.47000000000E+01 0.  1.
         13    1    4    4    0    0 -0.10347600725E+01  0.25885455522E+02  0.21100877336E+02  0.33412191792E+02  0.00000000000E+00 0. -1.
        -14    1    4    4    0    0  0.10021764518E+03  0.17782980151E+02 -0.93620319922E+01  0.10221280953E+03  0.00000000000E+00 0.  1.
</event>
<event>
12    1  0.8113184E-002  0.1803618E+03  0.7818608E-02  0.1167663E+00
         21   -1    0    0  501  502  0.00000000000E+00  0.00000000000E+00  0.16031235060E+03  0.16031235060E+03  0.00000000000E+00 0. -1.
         21   -1    0    0  502  503 -0.00000000000E+00 -0.00000000000E+00 -0.60123729348E+03  0.60123729348E+03  0.00000000000E+00 0. -1.
         -6    2    1    2    0  503 -0.20617546327E+02 -0.45645526175E+02 -0.53059034801E+03  0.56012899546E+03  0.17236524267E+03 0.  0.
        -24    2    3    3    0    0 -0.46616770888E+02 -0.47987502616E+02 -0.52197633751E+03  0.53224108216E+03  0.79657698209E+02 0.  0.
          6    2    1    2  501    0  0.20617546327E+02  0.45645526175E+02  0.89665405127E+02  0.20142064861E+03  0.17326798762E+03 0.  0.
         24    2    5    5    0    0  0.65930267954E+02  0.68351050551E+02  0.84078830217E+02  0.15021436582E+03  0.80476329830E+02 0.  0.
          5    1    5    5  501    0 -0.45312721627E+02 -0.22705524376E+02  0.55865749098E+01  0.51206282795E+02  0.47000000000E+01 0. -1.
        -13    1    6    6    0    0  0.34540051481E+02  0.81407074405E+02  0.72330295543E+02  0.11424446846E+03  0.00000000000E+00 0.  1.
         14    1    6    6    0    0  0.31390216473E+02 -0.13056023854E+02  0.11748534675E+02  0.35969897360E+02  0.00000000000E+00 0. -1.
         -5    1    3    3    0  503  0.25999224561E+02  0.23419764403E+01 -0.86140104994E+01  0.27887913302E+02  0.47000000000E+01 0.  1.
         13    1    4    4    0    0  0.10552872556E+02  0.14628407853E+02 -0.12634871142E+03  0.12762973914E+03  0.00000000000E+00 0. -1.
        -14    1    4    4    0    0 -0.57169643444E+02 -0.62615910469E+02 -0.39562762609E+03  0.40461134302E+03  0.00000000000E+00 0.  1.
</event>
<event>
12    1  0.8113184E-002  0.2612134E+03  0.7818608E-02  0.1107277E+00
         21   -1    0    0  503  502  0.00000000000E+00  0.00000000000E+00  0.33461362415E+03  0.33461362415E+03  0.00000000000E+00 0. -1.
         21   -1    0    0  501  503 -0.00000000000E+00 -0.00000000000E+00 -0.20597637522E+03  0.20597637522E+03  0.00000000000E+00 0. -1.
          6    2    1    2  501    0  0.72864268682E+02  0.17402470518E+03  0.15670356193E+02  0.25599561093E+03  0.17232061133E+03 0.  0.
         24    2    3    3    0    0  0.47997101159E+02  0.19982330971E+03  0.14414503083E+02  0.21983470410E+03  0.76723154286E+02 0.  0.
         -6    2    1    2    0  502 -0.72864268682E+02 -0.17402470518E+03  0.11296689273E+03  0.28459438844E+03  0.18066169327E+03 0.  0.
        -24    2    5    5    0    0 -0.12205729711E+03 -0.13263849061E+03  0.71500305708E+02  0.20795014116E+03  0.75100030109E+02 0.  0.
          5    1    3    3  501    0  0.24867167523E+02 -0.25798604526E+02  0.12558531104E+01  0.36160906835E+02  0.47000000000E+01 0. -1.
        -13    1    4    4    0    0 -0.38894827839E+01 -0.59664650831E+01  0.82486478456E+00  0.71698803217E+01  0.00000000000E+00 0.  1.
         14    1    4    4    0    0  0.51886583943E+02  0.20578977479E+03  0.13589638298E+02  0.21266482378E+03  0.00000000000E+00 0. -1.
         -5    1    5    5    0  502  0.49193028426E+02 -0.41386214577E+02  0.41466587026E+02  0.76644247288E+02  0.47000000000E+01 0.  1.
         11    1    6    6    0    0 -0.76607586209E+02 -0.10150080863E+03  0.82751644367E+02  0.15172004173E+03  0.00000000000E+00 0. -1.
        -12    1    6    6    0    0 -0.45449710899E+02 -0.31137681981E+02 -0.11251338659E+02  0.56230099428E+02  0.00000000000E+00 0.  1.
</event>
<event>
12    1  0.8113184E-002  0.1783597E+03  0.7818608E-02  0.1169557E+00
         21   -1    0    0  501  502  0.00000000000E+00  0.00000000000E+00  0.12325600860E+03  0.12325600860E+03  0.00000000000E+00 0. -1.
         21   -1    0    0  502  503 -0.00000000000E+00 -0.00000000000E+00 -0.31983713451E+03  0.31983713451E+03  0.00000000000E+00 0. -1.
         -6    2    1    2    0  503  0.44788658659E+02 -0.21047937896E+02 -0.36705277824E+00  0.17836012032E+03  0.17135681532E+03 0.  0.
        -24    2    3    3    0    0  0.46190403531E+02 -0.34041562728E+02  0.61153894486E+02  0.11529098264E+03  0.79119090594E+02 0.  0.
          6    2    1    2  501    0 -0.44788658659E+02  0.21047937896E+02 -0.19621407313E+03  0.26473302278E+03  0.17068852106E+03 0.  0.
         24    2    5    5    0    0 -0.55305087556E+02  0.50356423791E+02 -0.41588039463E+02  0.10693288682E+03  0.64114390979E+02 0.  0.
          5    1    5    5  501    0  0.10516428897E+02 -0.29308485894E+02 -0.15462603367E+03  0.15780013596E+03  0.47000000000E+01 0. -1.
        -11    1    6    6    0    0  0.88274796896E+01  0.29611101384E+02 -0.16353917823E+02  0.34959867720E+02  0.00000000000E+00 0.  1.
         12    1    6    6    0    0 -0.64132567246E+02  0.20745322406E+02 -0.25234121640E+02  0.71973019099E+02  0.00000000000E+00 0. -1.
         -5    1    3    3    0  503 -0.14017448723E+01  0.12993624831E+02 -0.61520947264E+02  0.63069137676E+02  0.47000000000E+01 0.  1.
         13    1    4    4    0    0 -0.11947132730E+02 -0.48213075489E+01  0.46957379604E+02  0.48692653309E+02  0.00000000000E+00 0. -1.
        -14    1    4    4    0    0  0.58137536261E+02 -0.29220255179E+02  0.14196514882E+02  0.66598329333E+02  0.00000000000E+00 0.  1.
</event>
<event>
12    1  0.8113184E-002  0.2005950E+03  0.7818608E-02  0.1149445E+00
         21   -1    0    0  503  502  0.00000000000E+00  0.00000000000E+00  0.18100454151E+03  0.18100454151E+03  0.00000000000E+00 0.  1.
         21   -1    0    0  501  503 -0.00000000000E+00 -0.00000000000E+00 -0.34899048677E+03  0.34899048677E+03  0.00000000000E+00 0.  1.
          6    2    1    2  501    0  0.10244048323E+03 -0.14643364678E+02 -0.24446858303E+03  0.31623291627E+03  0.17184262715E+03 0.  0.
         24    2    3    3    0    0  0.14577858475E+01  0.74293706313E+01 -0.51506538258E+02  0.97278237079E+02  0.82175490496E+02 0.  0.
         -6    2    1    2    0  502 -0.10244048323E+03  0.14643364678E+02  0.76482637776E+02  0.21376211201E+03  0.17069319236E+03 0.  0.
        -24    2    5    5    0    0  0.85375383850E+01 -0.52395955095E+01  0.59280704949E+02  0.99615496290E+02  0.79427339117E+02 0.  0.
          5    1    3    3  501    0  0.10098269738E+03 -0.22072735310E+02 -0.19296204477E+03  0.21895467919E+03  0.47000000000E+01 0. -1.
        -11    1    4    4    0    0  0.34822565860E+02 -0.19256583503E+02 -0.25477117869E+02  0.47249451173E+02  0.00000000000E+00 0.  1.
         12    1    4    4    0    0 -0.33364780013E+02  0.26685954134E+02 -0.26029420389E+02  0.50028785905E+02  0.00000000000E+00 0. -1.
         -5    1    5    5    0  502 -0.11097802162E+03  0.19882960188E+02  0.17201932827E+02  0.11414661572E+03  0.47000000000E+01 0.  1.
         13    1    6    6    0    0 -0.87603977864E+01 -0.14376070595E+02  0.73517789813E+02  0.75420696060E+02  0.00000000000E+00 0. -1.
        -14    1    6    6    0    0  0.17297936171E+02  0.91364750859E+01 -0.14237084864E+02  0.24194800231E+02  0.00000000000E+00 0.  1.
</event>
<event>
12    1  0.8113184E-002  0.1916355E+03  0.7818608E-02  0.1158985E+00
         21   -1    0    0  503  502  0.00000000000E+00  0.00000000000E+00  0.37505500363E+02  0.37505500363E+02  0.00000000000E+00 0.  1.
         21   -1    0    0  501  503 -0.00000000000E+00 -0.00000000000E+00 -0.15565070892E+04  0.15565070892E+04  0.00000000000E+00 0. -1.
          6    2    1    2  501    0 -0.58454254352E+02 -0.18100377226E+02 -0.12735793961E+04  0.12879164032E+04  0.18160302885E+03 0.  0.
         24    2    3    3    0    0 -0.39463700303E+01  0.57653303956E+02 -0.60691303791E+03  0.61473303090E+03  0.78827573876E+02 0.  0.
         -6    2    1    2    0  502  0.58454254352E+02  0.18100377226E+02 -0.24542219280E+03  0.30609618638E+03  0.17238996226E+03 0.  0.
        -24    2    5    5    0    0  0.34474211933E+02  0.50681482712E+02 -0.24519695048E+03  0.26536890310E+03  0.80882793151E+02 0.  0.
          5    1    3    3  501    0 -0.54507884322E+02 -0.75753681182E+02 -0.66666635816E+03  0.67318337232E+03  0.47000000000E+01 0. -1.
        -11    1    4    4    0    0  0.26794829848E+02  0.23152382764E+02 -0.44351664097E+03  0.44492809144E+03  0.00000000000E+00 0.  1.
         12    1    4    4    0    0 -0.30741199878E+02  0.34500921191E+02 -0.16339639694E+03  0.16980493946E+03  0.00000000000E+00 0. -1.
         -5    1    5    5    0  502  0.23980042419E+02 -0.32581105485E+02 -0.22524231988E+00  0.40727283278E+02  0.47000000000E+01 0.  1.
         11    1    6    6    0    0  0.49497909365E+02  0.34858408593E+01 -0.15100398794E+03  0.15894778542E+03  0.00000000000E+00 0. -1.
        -12    1    6    6    0    0 -0.15023697432E+02  0.47195641853E+02 -0.94192962549E+02  0.10642111768E+03  0.00000000000E+00 0.  1.
</event>
<event>
12    1  0.8113184E-002  0.2303425E+03  0.7818608E-02  0.1126511E+00
         21   -1    0    0  503  502  0.00000000000E+00  0.00000000000E+00  0.37544803916E+03  0.37544803916E+03  0.00000000000E+00 0. -1.
         21   -1    0    0  501  503 -0.00000000000E+00 -0.00000000000E+00 -0.15268743371E+03  0.15268743371E+03  0.00000000000E+00 0.  1.
          6    2    1    2  501    0 -0.86596089357E+02 -0.12617426811E+03  0.37952906654E+02  0.23281942430E+03  0.17130567002E+03 0.  0.
         24    2    3    3    0    0 -0.41654927203E+02 -0.84105703989E+02 -0.43122470757E+02  0.13091368861E+03  0.80435961972E+02 0.  0.
         -6    2    1    2    0  502  0.86596089357E+02  0.12617426811E+03  0.18480769879E+03  0.29531604857E+03  0.17215938658E+03 0.  0.
        -24    2    5    5    0    0  0.48155430418E+02  0.91893690048E+02  0.20209429178E+03  0.24078386918E+03  0.79820881587E+02 0.  0.
          5    1    3    3  501    0 -0.44941162153E+02 -0.42068564120E+02  0.81075377411E+02  0.10190573568E+03  0.47000000000E+01 0. -1.
        -13    1    4    4    0    0  0.19121846762E+02 -0.70823035610E+01  0.59087962405E+01  0.21230118237E+02  0.00000000000E+00 0.  1.
         14    1    4    4    0    0 -0.60776773966E+02 -0.77023400428E+02 -0.49031266998E+02  0.10968357038E+03  0.00000000000E+00 0. -1.
         -5    1    5    5    0  502  0.38440658938E+02  0.34280578061E+02 -0.17286592990E+02  0.54532179390E+02  0.47000000000E+01 0.  1.
         13    1    6    6    0    0 -0.10012216029E+01  0.35286537062E+02  0.13706857080E+03  0.14154128459E+03  0.00000000000E+00 0. -1.
        -14    1    6    6    0    0  0.49156652021E+02  0.56607152986E+02  0.65025720987E+02  0.99242584594E+02  0.00000000000E+00 0.  1.
</event>
<event>
12    1  0.8113184E-002  0.2045404E+03  0.7818608E-02  0.1146368E+00
         21   -1    0    0  501  502  0.00000000000E+00  0.00000000000E+00  0.68894325394E+02  0.68894325394E+02  0.00000000000E+00 0.  1.
         21   -1    0    0  502  503 -0.00000000000E+00 -0.00000000000E+00 -0.64017046076E+03  0.64017046076E+03  0.00000000000E+00 0.  1.
         -6    2    1    2    0  503 -0.54170934574E+02  0.95305579176E+02 -0.37412060718E+03  0.42638362967E+03  0.17268215704E+03 0.  0.
        -24    2    3    3    0    0 -0.68929700413E+02 -0.81240046969E+00 -0.23746122612E+03  0.25859100882E+03  0.75693542248E+02 0.  0.
          6    2    1    2  501    0  0.54170934574E+02 -0.95305579176E+02 -0.19715552818E+03  0.28268115648E+03  0.17035460182E+03 0.  0.
         24    2    5    5    0    0  0.37740626553E+02 -0.37286965122E+01 -0.34631739338E+02  0.95351627574E+02  0.80338766739E+02 0.  0.
          5    1    5    5  501    0  0.16430308021E+02 -0.91576882664E+02 -0.16252378885E+03  0.18732952891E+03  0.47000000000E+01 0. -1.
        -11    1    6    6    0    0  0.14919233379E+02 -0.37887724453E+02  0.13487301323E+01  0.40741652665E+02  0.00000000000E+00 0.  1.
         12    1    6    6    0    0  0.22821393174E+02  0.34159027941E+02 -0.35980469470E+02  0.54609974909E+02  0.00000000000E+00 0. -1.
         -5    1    3    3    0  503  0.14758765838E+02  0.96117979646E+02 -0.13665938106E+03  0.16779262085E+03  0.47000000000E+01 0.  1.
         13    1    4    4    0    0 -0.78780618969E+01 -0.26206532829E+02 -0.12646841247E+03  0.12939515283E+03  0.00000000000E+00 0. -1.
        -14    1    4    4    0    0 -0.61051638516E+02  0.25394132359E+02 -0.11099281365E+03  0.12919585599E+03  0.00000000000E+00 0.  1.
</event>
<event>
12    1  0.8113184E-002  0.1754482E+03  0.7818608E-02  0.1172488E+00
         21   -1    0    0  503  502  0.00000000000E+00  0.00000000000E+00  0.21182818298E+03  0.21182818298E+03  0.00000000000E+00 0. -1.
         21   -1    0    0  501  503 -0.00000000000E+00 -0.00000000000E+00 -0.14931761220E+03  0.14931761220E+03  0.00000000000E+00 0. -1.
          6    2    1    2  501    0  0.26197431289E+01  0.25902753448E+02 -0.78465520576E+00  0.17462944689E+03  0.17267603293E+03 0.  0.
         24    2    3    3    0    0 -0.15983131347E+02  0.49009251499E+02  0.57330816482E+02  0.10921174867E+03  0.77349959979E+02 0.  0.
         -6    2    1    2    0  502 -0.26197431289E+01 -0.25902753448E+02  0.63295225986E+02  0.18651634828E+03  0.17350575453E+03 0.  0.
        -24    2    5    5    0    0 -0.22092141764E+02 -0.83850409911E+02  0.37061205489E+02  0.11982737596E+03  0.73933166489E+02 0.  0.
          5    1    3    3  501    0  0.18602874476E+02 -0.23106498051E+02 -0.58115471688E+02  0.65417698220E+02  0.47000000000E+01 0. -1.
        -11    1    4    4    0    0 -0.23403084032E+02 -0.52723567242E+01  0.47966219310E+02  0.53630777381E+02  0.00000000000E+00 0.  1.
         12    1    4    4    0    0  0.74199526845E+01  0.54281608223E+02  0.93645971716E+01  0.55580971288E+02  0.00000000000E+00 0. -1.
         -5    1    5    5    0  502  0.19472398635E+02  0.57947656463E+02  0.26234020497E+02  0.66688972324E+02  0.47000000000E+01 0.  1.
         13    1    6    6    0    0 -0.90318729396E+01 -0.21065932347E+02  0.49458668055E+02  0.54511540798E+02  0.00000000000E+00 0. -1.
        -14    1    6    6    0    0 -0.13060268824E+02 -0.62784477564E+02 -0.12397462566E+02  0.65315835161E+02  0.00000000000E+00 0.  1.
</event>
<event>
12    1  0.8113184E-002  0.2577657E+03  0.7818608E-02  0.1108696E+00
         21   -1    0    0  501  502  0.00000000000E+00  0.00000000000E+00  0.57223320258E+02  0.57223320258E+02  0.00000000000E+00 0. -1.
         21   -1    0    0  502  503 -0.00000000000E+00 -0.00000000000E+00 -0.16586760543E+04  0.16586760543E+04  0.00000000000E+00 0.  1.
         -6    2    1    2    0  503  0.17149316173E+03  0.82011458908E+02 -0.12719949482E+04  0.12975866170E+04  0.17211652013E+03 0.  0.
        -24    2    3    3    0    0  0.17843148661E+03  0.77944667281E+02 -0.12706366306E+04  0.12881731069E+04  0.83422655810E+02 0.  0.
          6    2    1    2  501    0 -0.17149316173E+03 -0.82011458908E+02 -0.32945778588E+03  0.41831275758E+03  0.17409005303E+03 0.  0.
         24    2    5    5    0    0 -0.61240445839E+02  0.24013787881E+02 -0.15714515724E+03  0.18785506882E+03  0.79169894684E+02 0.  0.
          5    1    5    5  501    0 -0.11025271589E+03 -0.10602524679E+03 -0.17231262864E+03  0.23045768875E+03  0.47000000000E+01 0. -1.
        -11    1    6    6    0    0  0.14221431076E+01 -0.39546264492E+01 -0.95556307118E+02  0.95648676893E+02  0.00000000000E+00 0.  1.
         12    1    6    6    0    0 -0.62662588947E+02  0.27968414330E+02 -0.61588850120E+02  0.92206391930E+02  0.00000000000E+00 0. -1.
         -5    1    3    3    0  503 -0.69383248835E+01  0.40667916269E+01 -0.13583175080E+01  0.94135101200E+01  0.47000000000E+01 0.  1.
         13    1    4    4    0    0  0.70690780373E+02 -0.10340442408E+02 -0.49486837512E+03  0.49999881987E+03  0.00000000000E+00 0. -1.
        -14    1    4    4    0    0  0.10774070624E+03  0.88285109689E+02 -0.77576825553E+03  0.78817428699E+03  0.00000000000E+00 0.  1.
</event>
<event>
12    1  0.8113184E-002  0.2194986E+03  0.7818608E-02  0.1134365E+00
         21   -1    0    0  501  502  0.00000000000E+00  0.00000000000E+00  0.50015947401E+03  0.50015947401E+03  0.00000000000E+00 0.  1.
         21   -1    0    0  502  503 -0.00000000000E+00 -0.00000000000E+00 -0.11728409116E+03  0.11728409116E+03  0.00000000000E+00 0.  1.
         -6    2    1    2    0  503  0.30351690590E+02 -0.13390528815E+03  0.59957367321E+02  0.22698781717E+03  0.17051900753E+03 0.  0.
        -24    2    3    3    0    0 -0.16714153091E+02 -0.14452174704E+03  0.26728751385E+02  0.16821593820E+03  0.80101669341E+02 0.  0.
          6    2    1    2  501    0 -0.30351690590E+02  0.13390528815E+03  0.32291801553E+03  0.39045574800E+03  0.17125359871E+03 0.  0.
         24    2    5    5    0    0 -0.34192300860E+02  0.60749336454E+02  0.29178966238E+03  0.31072113866E+03  0.80912444156E+02 0.  0.
          5    1    5    5  501    0  0.38406102702E+01  0.73155951700E+02  0.31128353150E+02  0.79734609338E+02  0.47000000000E+01 0. -1.
        -11    1    6    6    0    0 -0.27331828594E+01  0.70010145264E+02  0.15572888082E+03  0.17076409180E+03  0.00000000000E+00 0.  1.
         12    1    6    6    0    0 -0.31459118001E+02 -0.92608088093E+01  0.13606078156E+03  0.13995704686E+03  0.00000000000E+00 0. -1.
         -5    1    3    3    0  503  0.47065843681E+02  0.10616458886E+02  0.33228615936E+02  0.58771878971E+02  0.47000000000E+01 0.  1.
         13    1    4    4    0    0 -0.82630549338E+01  0.80834176336E+01  0.83844422800E+01  0.14280006647E+02  0.00000000000E+00 0. -1.
        -14    1    4    4    0    0 -0.84510981575E+01 -0.15260516467E+03  0.18344309105E+02  0.15393593155E+03  0.00000000000E+00 0.  1.
</event>
<event>
12    1  0.8113184E-002  0.1708701E+03  0.7818608E-02  0.1177650E+00
         21   -1    0    0  501  502  0.00000000000E+00  0.00000000000E+00  0.18446610788E+03  0.18446610788E+03  0.00000000000E+00 0.  1.
         21   -1    0    0  502  503 -0.00000000000E+00 -0.00000000000E+00 -0.17505657643E+03  0.17505657643E+03  0.00000000000E+00 0.  1.
         -6    2    1    2    0  503 -0.12160703812E+02  0.23267560535E+02  0.64388271187E+02  0.18259914170E+03  0.16884115314E+03 0.  0.
        -24    2    3    3    0    0 -0.17803077709E+02 -0.47565366837E+02  0.15077438807E+02  0.95980505294E+02  0.80034458437E+02 0.  0.
          6    2    1    2  501    0  0.12160703812E+02 -0.23267560535E+02 -0.54978739738E+02  0.17692354261E+03  0.16610242628E+03 0.  0.
         24    2    5    5    0    0  0.39925819672E+02 -0.20666247863E+02 -0.92594748803E+02  0.12986270300E+03  0.79179348623E+02 0.  0.
          5    1    5    5  501    0 -0.27765115860E+02 -0.26013126714E+01  0.37616009065E+02  0.47060839605E+02  0.47000000000E+01 0. -1.
        -13    1    6    6    0    0  0.29343606350E+02 -0.11949259302E+02  0.43257991778E+01  0.31977250820E+02  0.00000000000E+00 0.  1.
         14    1    6    6    0    0  0.10582213322E+02 -0.87169885617E+01 -0.96920547980E+02  0.97885452184E+02  0.00000000000E+00 0. -1.
         -5    1    3    3    0  503  0.56423738969E+01  0.70832927372E+02  0.49310832380E+02  0.86618636409E+02  0.47000000000E+01 0.  1.
         11    1    4    4    0    0  0.92624232937E+00 -0.15876256986E+02  0.45516769647E+02  0.48215036865E+02  0.00000000000E+00 0. -1.
        -12    1    4    4    0    0 -0.18729320038E+02 -0.31689109851E+02 -0.30439330840E+02  0.47765468429E+02  0.00000000000E+00 0.  1.
</event>
<event>
12    1  0.8113184E-002  0.2754825E+03  0.7818608E-02  0.1098565E+00
         21   -1    0    0  503  502  0.00000000000E+00  0.00000000000E+00  0.27866577173E+03  0.27866577173E+03  0.00000000000E+00 0.  1.
         21   -1    0    0  501  503 -0.00000000000E+00 -0.00000000000E+00 -0.27163126553E+03  0.27163126553E+03  0.00000000000E+00 0. -1.
          6    2    1    2  501    0 -0.76646930373E+02  0.20167620928E+03 -0.19993794105E+02  0.27620709708E+03  0.17129671144E+03 0.  0.
         24    2    3    3    0    0 -0.57242680319E+02  0.30789838992E+02 -0.15270777845E+02  0.10409354923E+03  0.79859449666E+02 0.  0.
         -6    2    1    2    0  502  0.76646930373E+02 -0.20167620928E+03  0.27028300304E+02  0.27408994018E+03  0.16687336805E+03 0.  0.
        -24    2    5    5    0    0  0.55979414640E+02 -0.22193097973E+03  0.18133049881E+02  0.24345307655E+03  0.80953927380E+02 0.  0.
          5    1    3    3  501    0 -0.19404250053E+02  0.17088637029E+03 -0.47230162608E+01  0.17211354785E+03  0.47000000000E+01 0. -1.
        -13    1    4    4    0    0 -0.35610221137E+02  0.30847960812E+02  0.28645464929E+02  0.55138436654E+02  0.00000000000E+00 0.  1.
         14    1    4    4    0    0 -0.21632459183E+02 -0.58121820288E-01 -0.43916242773E+02  0.48955112581E+02  0.00000000000E+00 0. -1.
         -5    1    5    5    0  502  0.20667515733E+02  0.20254770451E+02  0.88952504232E+01  0.30636863623E+02  0.47000000000E+01 0.  1.
         11    1    6    6    0    0  0.60797783083E+01 -0.17224246474E+03  0.13740795181E+02  0.17289661597E+03  0.00000000000E+00 0. -1.
        -12    1    6    6    0    0  0.49899636331E+02 -0.49688514991E+02  0.43922546996E+01  0.70556460579E+02  0.00000000000E+00 0.  1.
</event>
<event>
12    1  0.8113184E-002  0.2396389E+03  0.7818608E-02  0.1122782E+00
         21   -1    0    0  501  502  0.00000000000E+00  0.00000000000E+00  0.37757285909E+03  0.37757285909E+03  0.00000000000E+00 0.  1.
         21   -1    0    0  502  503 -0.00000000000E+00 -0.00000000000E+00 -0.34384683741E+03  0.34384683741E+03  0.00000000000E+00 0. -1.
         -6    2    1    2    0  503  0.91179488409E+02 -0.11112347729E+03 -0.25955013214E+03  0.34268800438E+03  0.17148373375E+03 0.  0.
        -24    2    3    3    0    0  0.10116679653E+03 -0.14312608752E+03 -0.21177432450E+03  0.28413434369E+03  0.71862111716E+02 0.  0.
          6    2    1    2  501    0 -0.91179488409E+02  0.11112347729E+03  0.29327615381E+03  0.37873169212E+03  0.19174114296E+03 0.  0.
         24    2    5    5    0    0 -0.11774630942E+03  0.11725710949E+03  0.16884143935E+03  0.25125814354E+03  0.83724548057E+02 0.  0.
          5    1    5    5  501    0  0.26566821007E+02 -0.61336321969E+01  0.12443471446E+03  0.12747354857E+03  0.47000000000E+01 0. -1.
        -11    1    6    6    0    0 -0.69104515659E+02  0.11178002159E+03  0.14836732598E+03  0.19819957298E+03  0.00000000000E+00 0.  1.
         12    1    6    6    0    0 -0.48641793757E+02  0.54770878967E+01  0.20474113375E+02  0.53058570563E+02  0.00000000000E+00 0. -1.
         -5    1    3    3    0  503 -0.99873081202E+01  0.32002610222E+02 -0.47775807637E+02  0.58553660688E+02  0.47000000000E+01 0.  1.
         13    1    4    4    0    0  0.83729066356E+02 -0.13976989684E+03 -0.21069617445E+03  0.26634387273E+03  0.00000000000E+00 0. -1.
        -14    1    4    4    0    0  0.17437730173E+02 -0.33561906712E+01 -0.10781500558E+01  0.17790470959E+02  0.00000000000E+00 0.  1.
</event>
<event>
12    1  0.8113184E-002  0.1788273E+03  0.7818608E-02  0.1169380E+00
         21   -1    0    0  503  502  0.00000000000E+00  0.00000000000E+00  0.36207730766E+03  0.36207730766E+03  0.00000000000E+00 0. -1.
         21   -1    0    0  501  503 -0.00000000000E+00 -0.00000000000E+00 -0.10057513852E+03  0.10057513852E+03  0.00000000000E+00 0. -1.
          6    2    1    2  501    0 -0.44393729682E+02  0.27833777174E+02  0.46597550363E+02  0.18307562474E+03  0.16911484348E+03 0.  0.
         24    2    3    3    0    0  0.12844834378E+02 -0.15086635984E+02  0.69413938613E+02  0.10783539179E+03  0.80109802725E+02 0.  0.
         -6    2    1    2    0  502  0.44393729682E+02 -0.27833777174E+02  0.21490461878E+03  0.27957682144E+03  0.17097859961E+03 0.  0.
        -24    2    5    5    0    0  0.72405262604E+02 -0.67182727379E+02  0.17563235411E+03  0.21714776866E+03  0.80934471716E+02 0.  0.
          5    1    3    3  501    0 -0.57238564059E+02  0.42920413158E+02 -0.22816388250E+02  0.75240232948E+02  0.47000000000E+01 0. -1.
        -11    1    4    4    0    0 -0.25976087525E+02 -0.31047524023E+02  0.36281951274E+02  0.54360701424E+02  0.00000000000E+00 0.  1.
         12    1    4    4    0    0  0.38820921903E+02  0.15960888038E+02  0.33131987340E+02  0.53474690363E+02  0.00000000000E+00 0. -1.
         -5    1    5    5    0  502 -0.28011532923E+02  0.39348950204E+02  0.39272264670E+02  0.62429052782E+02  0.47000000000E+01 0.  1.
         11    1    6    6    0    0  0.28391098439E+02 -0.38879393200E+02  0.15252803986E+03  0.15994519258E+03  0.00000000000E+00 0. -1.
        -12    1    6    6    0    0  0.44014164165E+02 -0.28303334178E+02  0.23104314249E+02  0.57202576075E+02  0.00000000000E+00 0.  1.
</event>
<event>
12    1  0.8113184E-002  0.2982677E+03  0.7818608E-02  0.1086187E+00
         21   -1    0    0  501  502  0.00000000000E+00  0.00000000000E+00  0.93925334697E+03  0.93925334697E+03  0.00000000000E+00 0.  1.
         21   -1    0    0  502  503 -0.00000000000E+00 -0.00000000000E+00 -0.94654911523E+02  0.94654911523E+02  0.00000000000E+00 0.  1.
         -6    2    1    2    0  503  0.17839096510E+03  0.16671857042E+03  0.44122579527E+03  0.53223796768E+03  0.17023111843E+03 0.  0.
        -24    2    3    3    0    0  0.20689824111E+02  0.37176621723E+02  0.17208965730E+03  0.19444051787E+03  0.79888014211E+02 0.  0.
          6    2    1    2  501    0 -0.17839096510E+03 -0.16671857042E+03  0.40337264018E+03  0.50167029081E+03  0.17130433645E+03 0.  0.
         24    2    5    5    0    0 -0.15779149385E+03 -0.12226463966E+03  0.39775348582E+03  0.45213086135E+03  0.79797760976E+02 0.  0.
          5    1    5    5  501    0 -0.20599471247E+02 -0.44453930762E+02  0.56191543545E+01  0.49539429463E+02  0.47000000000E+01 0. -1.
        -11    1    6    6    0    0 -0.46263809847E+02 -0.14450997582E+02  0.16847371328E+03  0.17530705491E+03  0.00000000000E+00 0.  1.
         12    1    6    6    0    0 -0.11152768400E+03 -0.10781364208E+03  0.22927977254E+03  0.27682380644E+03  0.00000000000E+00 0. -1.
         -5    1    3    3    0  503  0.15770114098E+03  0.12954194870E+03  0.26913613797E+03  0.33779744981E+03  0.47000000000E+01 0.  1.
         13    1    4    4    0    0 -0.19883939154E+02  0.13557756799E+02  0.10657850205E+02  0.26320592255E+02  0.00000000000E+00 0. -1.
        -14    1    4    4    0    0  0.40573763265E+02  0.23618864924E+02  0.16143180710E+03  0.16811992562E+03  0.00000000000E+00 0.  1.
</event>
<event>
12    1  0.8113184E-002  0.2008475E+03  0.7818608E-02  0.1151345E+00
         21   -1    0    0  501  502  0.00000000000E+00  0.00000000000E+00  0.71304019625E+03  0.71304019625E+03  0.00000000000E+00 0. -1.
         21   -1    0    0  502  503 -0.00000000000E+00 -0.00000000000E+00 -0.70560260790E+02  0.70560260790E+02  0.00000000000E+00 0. -1.
         -6    2    1    2    0  503  0.10420709068E+03 -0.12908695588E+02  0.13585469444E+03  0.24247929012E+03  0.17121318865E+03 0.  0.
        -24    2    3    3    0    0  0.13470594921E+03 -0.37755215724E+02  0.11375930616E+03  0.19711602175E+03  0.79639168898E+02 0.  0.
          6    2    1    2  501    0 -0.10420709068E+03  0.12908695588E+02  0.50662524101E+03  0.54112116691E+03  0.15848416413E+03 0.  0.
         24    2    5    5    0    0 -0.51575510175E+02  0.63177675025E+02  0.26090452933E+03  0.28480532326E+03  0.79946524992E+02 0.  0.
          5    1    5    5  501    0 -0.52631580501E+02 -0.50268979437E+02  0.24572071168E+03  0.25631584365E+03  0.47000000000E+01 0. -1.
        -13    1    6    6    0    0 -0.72065013816E+02  0.54291499268E+02  0.18752292110E+03  0.20810040617E+03  0.00000000000E+00 0.  1.
         14    1    6    6    0    0  0.20489503642E+02  0.88861757568E+01  0.73381608232E+02  0.76704917090E+02  0.00000000000E+00 0. -1.
         -5    1    3    3    0  503 -0.30498858535E+02  0.24846520136E+02  0.22095388280E+02  0.45363268379E+02  0.47000000000E+01 0.  1.
         13    1    4    4    0    0  0.44415698524E+01  0.15263013729E+02 -0.51194517587E+00  0.15904377344E+02  0.00000000000E+00 0. -1.
        -14    1    4    4    0    0  0.13026437936E+03 -0.53018229452E+02  0.11427125134E+03  0.18121164440E+03  0.00000000000E+00 0.  1.
</event>
<event>
12    1  0.8113184E-002  0.2000761E+03  0.7818608E-02  0.1149992E+00
         21   -1    0    0  501  502  0.00000000000E+00  0.00000000000E+00  0.14930626838E+04  0.14930626838E+04  0.00000000000E+00 0.  1.
         21   -1    0    0  502  503 -0.00000000000E+00 -0.00000000000E+00 -0.28703551116E+02  0.28703551116E+02  0.00000000000E+00 0.  1.
         -6    2    1    2    0  503  0.59321695857E+02 -0.77739898048E+02  0.94020470160E+03  0.96125716529E+03  0.17455057024E+03 0.  0.
        -24    2    3    3    0    0 -0.23122919316E+01  0.18780174143E+02  0.34976269102E+03  0.35979334208E+03  0.82214763487E+02 0.  0.
          6    2    1    2  501    0 -0.59321695857E+02  0.77739898048E+02  0.52415443109E+03  0.56050906963E+03  0.17282937874E+03 0.  0.
         24    2    5    5    0    0 -0.10247961938E+03  0.75097672267E+02  0.34506981922E+03  0.37621860344E+03  0.79533167100E+02 0.  0.
          5    1    5    5  501    0  0.43157923520E+02  0.26422257816E+01  0.17908461187E+03  0.18429046619E+03  0.47000000000E+01 0. -1.
        -11    1    6    6    0    0 -0.84518563790E+02  0.70673805596E+02  0.33945654476E+03  0.35688782579E+03  0.00000000000E+00 0.  1.
         12    1    6    6    0    0 -0.17961055587E+02  0.44238666713E+01  0.56132744647E+01  0.19330777645E+02  0.00000000000E+00 0. -1.
         -5    1    3    3    0  503  0.61633987788E+02 -0.96520072191E+02  0.59044201058E+03  0.60146382322E+03  0.47000000000E+01 0.  1.
         11    1    4    4    0    0 -0.92128562818E+01 -0.18409540593E+01  0.33082350424E+03  0.33095688056E+03  0.00000000000E+00 0. -1.
        -12    1    4    4    0    0  0.69005643502E+01  0.20621128202E+02  0.18939186782E+02  0.28836461514E+02  0.00000000000E+00 0.  1.
</event>
<event>
12    1  0.8113184E-002  0.2027567E+03  0.7818608E-02  0.1147434E+00
         21   -1    0    0  501  502  0.00000000000E+00  0.00000000000E+00  0.18519597849E+04  0.18519597849E+04  0.00000000000E+00 0. -1.
         21   -1    0    0  502  503 -0.00000000000E+00 -0.00000000000E+00 -0.28355538118E+02  0.28355538118E+02  0.00000000000E+00 0. -1.
         -6    2    1    2    0  503 -0.19523197541E+02  0.10671382467E+03  0.47369625307E+03  0.51526518868E+03  0.17129237835E+03 0.  0.
        -24    2    3    3    0    0 -0.62162821724E+02  0.89206448335E+02  0.43487680671E+03  0.45481946764E+03  0.76947412569E+02 0.  0.
          6    2    1    2  501    0  0.19523197541E+02 -0.10671382467E+03  0.13499079937E+04  0.13650501343E+04  0.17129297165E+03 0.  0.
         24    2    5    5    0    0  0.13619411381E+01 -0.33789445232E+02  0.11204558034E+04  0.11235585320E+04  0.76282278433E+02 0.  0.
          5    1    5    5  501    0  0.18161256403E+02 -0.72924379439E+02  0.22945219033E+03  0.24149160234E+03  0.47000000000E+01 0. -1.
        -13    1    6    6    0    0 -0.29470227392E+02 -0.35558122198E+02  0.44337469622E+03  0.44577348015E+03  0.00000000000E+00 0.  1.
         14    1    6    6    0    0  0.30832168531E+02  0.17686769663E+01  0.67708110718E+03  0.67778505186E+03  0.00000000000E+00 0. -1.
         -5    1    3    3    0  503  0.42639624183E+02  0.17507376336E+02  0.38819446354E+02  0.60445721039E+02  0.47000000000E+01 0.  1.
         11    1    4    4    0    0 -0.78043055436E+02  0.87111780481E+02  0.37327835462E+03  0.39117248219E+03  0.00000000000E+00 0. -1.
        -12    1    4    4    0    0  0.15880233711E+02  0.20946678539E+01  0.61598452098E+02  0.63646985451E+02  0.00000000000E+00 0.  1.
</event>
<event>
12    1  0.8113184E-002  0.2043158E+03  0.7818608E-02  0.1147812E+00
         21   -1    0    0  501  502  0.00000000000E+00  0.00000000000E+00  0.14498775840E+03  0.14498775840E+03  0.00000000000E+00 0.  1.
         21   -1    0    0  502  503 -0.00000000000E+00 -0.00000000000E+00 -0.54187006670E+03  0.54187006670E+03  0.00000000000E+00 0.  1.
         -6    2    1    2    0  503 -0.85895463748E+02  0.30563901793E+02 -0.44060748680E+03  0.48567470613E+03  0.18284632880E+03 0.  0.
        -24    2    3    3    0    0 -0.61421939871E+01 -0.28424622839E+02 -0.95444677381E+02  0.12650944460E+03  0.77777036475E+02 0.  0.
          6    2    1    2  501    0  0.85895463748E+02 -0.30563901793E+02  0.43725178508E+02  0.20118311897E+03  0.17392691953E+03 0.  0.
         24    2    5    5    0    0  0.12319492042E+03 -0.10741283472E+02  0.12200034773E+02  0.14826705003E+03  0.80882097442E+02 0.  0.
          5    1    5    5  501    0 -0.37299456674E+02 -0.19822618321E+02  0.31525143735E+02  0.52916068947E+02  0.47000000000E+01 0. -1.
        -11    1    6    6    0    0  0.74154412566E+02  0.31886104954E+02  0.19028512672E+02  0.82931808654E+02  0.00000000000E+00 0.  1.
         12    1    6    6    0    0  0.49040507856E+02 -0.42627388425E+02 -0.68284778986E+01  0.65335241372E+02  0.00000000000E+00 0. -1.
         -5    1    3    3    0  503 -0.79753269761E+02  0.58988524632E+02 -0.34516280942E+03  0.35916526152E+03  0.47000000000E+01 0.  1.
         11    1    4    4    0    0  0.47390595573E+01 -0.42295800842E+01 -0.99473420652E+02  0.99676022440E+02  0.00000000000E+00 0. -1.
        -12    1    4    4    0    0 -0.10881253544E+02 -0.24195042755E+02  0.40287432714E+01  0.26833422163E+02  0.00000000000E+00 0.  1.
</event>
<event>
12    1  0.8113184E-002  0.1909158E+03  0.7818608E-02  0.1158241E+00
         21   -1    0    0  503  502  0.00000000000E+00  0.00000000000E+00  0.51019312205E+03  0.51019312205E+03  0.00000000000E+00 0.  1.
         21   -1    0    0  501  503 -0.00000000000E+00 -0.00000000000E+00 -0.98150239635E+02  0.98150239635E+02  0.00000000000E+00 0. -1.
          6    2    1    2  501    0 -0.58078998713E+02  0.55556789287E+02  0.36658039692E+03  0.41208920977E+03  0.17022515231E+03 0.  0.
         24    2    3    3    0    0 -0.47179094017E+02 -0.16164428864E+02  0.29555780074E+03  0.31045732391E+03  0.80883748185E+02 0.  0.
         -6    2    1    2    0  502  0.58078998713E+02 -0.55556789287E+02  0.45462485499E+02  0.19625415191E+03  0.17317369208E+03 0.  0.
        -24    2    5    5    0    0 -0.20642682301E+02 -0.78913824928E+02  0.15697364077E+02  0.10878583406E+03  0.70245557548E+02 0.  0.
          5    1    3    3  501    0 -0.10899904696E+02  0.71721218151E+02  0.71022596178E+02  0.10163188586E+03  0.47000000000E+01 0. -1.
        -13    1    4    4    0    0 -0.17076850502E+02  0.27260202003E+02  0.18673370160E+03  0.18948406991E+03  0.00000000000E+00 0.  1.
         14    1    4    4    0    0 -0.30102243515E+02 -0.43424630867E+02  0.10882409914E+03  0.12097325400E+03  0.00000000000E+00 0. -1.
         -5    1    5    5    0  502  0.78721681014E+02  0.23357035641E+02  0.29765121423E+02  0.87468317858E+02  0.47000000000E+01 0.  1.
         11    1    6    6    0    0 -0.32171924468E+02 -0.17031517981E+02 -0.14232579693E+02  0.39085440428E+02  0.00000000000E+00 0. -1.
        -12    1    6    6    0    0  0.11529242167E+02 -0.61882306946E+02  0.29929943770E+02  0.69700393629E+02  0.00000000000E+00 0.  1.
</event>
<event>
12    1  0.8113184E-002  0.1744211E+03  0.7818608E-02  0.1173623E+00
         21   -1    0    0  501  502  0.00000000000E+00  0.00000000000E+00  0.14709211764E+03  0.14709211764E+03  0.00000000000E+00 0.  1.
         21   -1    0    0  502  503 -0.00000000000E+00 -0.00000000000E+00 -0.45006622452E+03  0.45006622452E+03  0.00000000000E+00 0.  1.
         -6    2    1    2    0  503 -0.86623382363E+01  0.18427263032E+02 -0.37139553965E+03  0.40979719982E+03  0.17200144760E+03 0.  0.
        -24    2    3    3    0    0  0.32567402317E+02 -0.44872464139E+02 -0.22407377354E+03  0.24416948554E+03  0.79595904089E+02 0.  0.
          6    2    1    2  501    0  0.86623382363E+01 -0.18427263032E+02  0.68421432769E+02  0.18736114235E+03  0.17322847651E+03 0.  0.
         24    2    5    5    0    0  0.78143642383E+02 -0.90269080456E+01  0.54631906008E+02  0.11574927637E+03  0.65002583897E+02 0.  0.
          5    1    5    5  501    0 -0.69481304147E+02 -0.94003549864E+01  0.13789526762E+02  0.71611865973E+02  0.47000000000E+01 0. -1.
        -11    1    6    6    0    0  0.37916603650E+02  0.20735293829E+02  0.49091718790E+02  0.65403502172E+02  0.00000000000E+00 0.  1.
         12    1    6    6    0    0  0.40227038733E+02 -0.29762201875E+02  0.55401872177E+01  0.50345774202E+02  0.00000000000E+00 0. -1.
         -5    1    3    3    0  503 -0.41229740553E+02  0.63299727171E+02 -0.14732176611E+03  0.16562771428E+03  0.47000000000E+01 0.  1.
         11    1    4    4    0    0  0.40096121691E+02  0.72109039546E+01 -0.65946765810E+02  0.77515624433E+02  0.00000000000E+00 0. -1.
        -12    1    4    4    0    0 -0.75287193740E+01 -0.52083368093E+02 -0.15812700773E+03  0.16665386111E+03  0.00000000000E+00 0.  1.
</event>
<event>
12    1  0.8113184E-002  0.2848051E+03  0.7818608E-02  0.1093395E+00
         21   -1    0    0  503  502  0.00000000000E+00  0.00000000000E+00  0.11511078019E+03  0.11511078019E+03  0.00000000000E+00 0.  1.
         21   -1    0    0  501  503 -0.00000000000E+00 -0.00000000000E+00 -0.10662719011E+04  0.10662719011E+04  0.00000000000E+00 0. -1.
          6    2    1    2  501    0  0.18678930591E+03 -0.12351622774E+03 -0.82096765639E+03  0.86823053013E+03  0.17230744988E+03 0.  0.
         24    2    3    3    0    0  0.17338956023E+03 -0.46261734907E+02 -0.66859938284E+03  0.69680710514E+03  0.79441294870E+02 0.  0.
         -6    2    1    2    0  502 -0.18678930591E+03  0.12351622774E+03 -0.13019346449E+03  0.31315215113E+03  0.17597564674E+03 0.  0.
        -24    2    5    5    0    0 -0.18814381966E+03  0.10369791973E+03 -0.15914586404E+03  0.27772713907E+03  0.75190440242E+02 0.  0.
          5    1    3    3  501    0  0.13399745675E+02 -0.77254492835E+02 -0.15236827356E+03  0.17142342499E+03  0.47000000000E+01 0. -1.
        -13    1    4    4    0    0  0.15328382138E+02  0.25510011582E+00 -0.10968592145E+02  0.18850315347E+02  0.00000000000E+00 0.  1.
         14    1    4    4    0    0  0.15806117810E+03 -0.46516835023E+02 -0.65763079069E+03  0.67795678979E+03  0.00000000000E+00 0. -1.
         -5    1    5    5    0  502  0.13545137502E+01  0.19818308013E+02  0.28952399547E+02  0.35425012061E+02  0.47000000000E+01 0.  1.
         11    1    6    6    0    0 -0.30806528777E+02  0.53102089228E+02 -0.54644337800E+02  0.82188063302E+02  0.00000000000E+00 0. -1.
        -12    1    6    6    0    0 -0.15733729088E+03  0.50595830501E+02 -0.10450152624E+03  0.19553907577E+03  0.00000000000E+00 0.  1.
</event>
<event>
12    1  0.8113184E-002  0.2024547E+03  0.7818608E-02  0.1147785E+00
         21   -1    0    0  501  502  0.00000000000E+00  0.00000000000E+00  0.15919459302E+03  0.15919459302E+03  0.00000000000E+00 0. -1.
         21   -1    0    0  502  503 -0.00000000000E+00 -0.00000000000E+00 -0.27835439794E+03  0.27835439794E+03  0.00000000000E+00 0.  1.
         -6    2    1    2    0  503 -0.61877653926E+02  0.87130525212E+02 -0.12031420759E+03  0.23509096803E+03  0.17138168578E+03 0.  0.
        -24    2    3    3    0    0 -0.39040978685E+02  0.12676520667E+03 -0.10554257431E+03  0.18679280181E+03  0.78477386415E+02 0.  0.
          6    2    1    2  501    0  0.61877653926E+02 -0.87130525212E+02  0.11544026722E+01  0.20245802294E+03  0.17195158018E+03 0.  0.
         24    2    5    5    0    0 -0.28696176945E+02 -0.64388019752E+02 -0.13429793760E+02  0.10782383684E+03  0.80475665707E+02 0.  0.
          5    1    5    5  501    0  0.90573830871E+02 -0.22742505460E+02  0.14584196432E+02  0.94634186100E+02  0.47000000000E+01 0. -1.
        -11    1    6    6    0    0  0.18496031548E+02 -0.10211007290E+02 -0.27430416109E+02  0.34623627494E+02  0.00000000000E+00 0.  1.
         12    1    6    6    0    0 -0.47192208493E+02 -0.54177012461E+02  0.14000622349E+02  0.73200209343E+02  0.00000000000E+00 0. -1.
         -5    1    3    3    0  503 -0.22836675241E+02 -0.39634681453E+02 -0.14771633282E+02  0.48298166216E+02  0.47000000000E+01 0.  1.
         13    1    4    4    0    0 -0.18250128662E+02  0.25255716267E+02  0.89058747817E+01  0.32407298653E+02  0.00000000000E+00 0. -1.
        -14    1    4    4    0    0 -0.20790850023E+02  0.10150949040E+03 -0.11444844909E+03  0.15438550316E+03  0.00000000000E+00 0.  1.
</event>
<event>
12    1  0.8113184E-002  0.2294627E+03  0.7818608E-02  0.1128702E+00
         21   -1    0    0  503  502  0.00000000000E+00  0.00000000000E+00  0.15148386826E+03  0.15148386826E+03  0.00000000000E+00 0.  1.
         21   -1    0    0  501  503 -0.00000000000E+00 -0.00000000000E+00 -0.44258470108E+03  0.44258470108E+03  0.00000000000E+00 0.  1.
          6    2    1    2  501    0 -0.78427560670E+02 -0.11460319693E+03 -0.29520506653E+03  0.37389727280E+03  0.18267009686E+03 0.  0.
         24    2    3    3    0    0 -0.36722227127E+02  0.18823003418E+02 -0.12573257197E+03  0.15415901442E+03  0.79079040525E+02 0.  0.
         -6    2    1    2    0  502  0.78427560670E+02  0.11460319693E+03  0.41042337057E+01  0.22017129654E+03  0.17080333739E+03 0.  0.
        -24    2    5    5    0    0 -0.25214973378E+01  0.24258051516E+02 -0.38482636982E+02  0.91521668292E+02  0.79375634837E+02 0.  0.
          5    1    3    3  501    0 -0.41705333543E+02 -0.13342620035E+03 -0.16947249456E+03  0.21973825839E+03  0.47000000000E+01 0. -1.
        -13    1    4    4    0    0 -0.67926470092E+01 -0.19359951559E+02 -0.93940968652E+02  0.96155360584E+02  0.00000000000E+00 0.  1.
         14    1    4    4    0    0 -0.29929580117E+02  0.38182954978E+02 -0.31791603314E+02  0.58003653834E+02  0.00000000000E+00 0. -1.
         -5    1    5    5    0  502  0.80949058008E+02  0.90345145415E+02  0.42586870687E+02  0.12864962824E+03  0.47000000000E+01 0.  1.
         11    1    6    6    0    0  0.27165939783E+02  0.77512477706E+01  0.11985131689E+02  0.30687350943E+02  0.00000000000E+00 0. -1.
        -12    1    6    6    0    0 -0.29687437121E+02  0.16506803745E+02 -0.50467768671E+02  0.60834317349E+02  0.00000000000E+00 0.  1.
</event>
<event>
12    1  0.8113184E-002  0.1818280E+03  0.7818608E-02  0.1166376E+00
         21   -1    0    0  503  502  0.00000000000E+00  0.00000000000E+00  0.15507042841E+03  0.15507042841E+03  0.00000000000E+00 0. -1.
         21   -1    0    0  501  503 -0.00000000000E+00 -0.00000000000E+00 -0.37071225408E+03  0.37071225408E+03  0.00000000000E+00 0. -1.
          6    2    1    2  501    0  0.54227530551E+02 -0.16170995320E+02 -0.28028932117E+03  0.33410107707E+03  0.17279843743E+03 0.  0.
         24    2    3    3    0    0  0.82989535581E+02  0.18854334017E+02 -0.11990627020E+03  0.16737123671E+03  0.79955414553E+02 0.  0.
         -6    2    1    2    0  502 -0.54227530551E+02  0.16170995320E+02  0.64647495501E+02  0.19168160543E+03  0.17134880515E+03 0.  0.
        -24    2    5    5    0    0  0.98482009035E+01 -0.44681763649E+02  0.33956166171E+02  0.98018350457E+02  0.79756684619E+02 0.  0.
          5    1    3    3  501    0 -0.28762005031E+02 -0.35025329337E+02 -0.16038305097E+03  0.16672984036E+03  0.47000000000E+01 0. -1.
        -11    1    4    4    0    0  0.14908524137E+02 -0.16692076926E+01  0.10861460657E+02  0.18520844308E+02  0.00000000000E+00 0.  1.
         12    1    4    4    0    0  0.68081011445E+02  0.20523541710E+02 -0.13076773086E+03  0.14885039240E+03  0.00000000000E+00 0. -1.
         -5    1    5    5    0  502 -0.64075731454E+02  0.60852758969E+02  0.30691329330E+02  0.93663254970E+02  0.47000000000E+01 0.  1.
         11    1    6    6    0    0  0.29144900571E+02  0.12396554270E+02  0.12789970187E+02  0.34156743470E+02  0.00000000000E+00 0. -1.
        -12    1    6    6    0    0 -0.19296699668E+02 -0.57078317919E+02  0.21166195984E+02  0.63861606987E+02  0.00000000000E+00 0.  1.
</event>
<event>
12    1  0.8113184E-002  0.2217150E+03  0.7818608E-02  0.1133429E+00
         21   -1    0    0  503  502  0.00000000000E+00  0.00000000000E+00  0.49022999324E+02  0.49022999324E+02  0.00000000000E+00 0.  1.
         21   -1    0    0  501  503 -0.00000000000E+00 -0.00000000000E+00 -0.10625372526E+04  0.10625372526E+04  0.00000000000E+00 0.  1.
          6    2    1    2  501    0  0.13102201185E+03 -0.19225562668E+02 -0.66347988630E+03  0.69954493777E+03  0.17782342533E+03 0.  0.
         24    2    3    3    0    0  0.48580811234E+01  0.19777020370E+02 -0.35468613415E+03  0.36366667074E+03  0.77694672675E+02 0.  0.
         -6    2    1    2    0  502 -0.13102201185E+03  0.19225562668E+02 -0.35003436699E+03  0.41201531416E+03  0.17232577050E+03 0.  0.
        -24    2    5    5    0    0 -0.99783010033E+02  0.58399348365E+02 -0.15306553932E+03  0.20871929896E+03  0.82265141176E+02 0.  0.
          5    1    3    3  501    0  0.12616393073E+03 -0.39002583038E+02 -0.30879375214E+03  0.33587826703E+03  0.47000000000E+01 0. -1.
        -13    1    4    4    0    0  0.12483342339E+02  0.31291130954E+02 -0.61233602386E+02  0.69889360947E+02  0.00000000000E+00 0.  1.
         14    1    4    4    0    0 -0.76252612152E+01 -0.11514110583E+02 -0.29345253177E+03  0.29377730980E+03  0.00000000000E+00 0. -1.
         -5    1    5    5    0  502 -0.31239001819E+02 -0.39173785698E+02 -0.19696882767E+03  0.20329601520E+03  0.47000000000E+01 0.  1.
         13    1    6    6    0    0 -0.60856585734E+02  0.73244448058E+02 -0.12985225673E+03  0.16102758079E+03  0.00000000000E+00 0. -1.
        -14    1    6    6    0    0 -0.38926424299E+02 -0.14845099692E+02 -0.23213282590E+02  0.47691718172E+02  0.00000000000E+00 0.  1.
</event>
<event>
12    1  0.8113184E-002  0.1808313E+03  0.7818608E-02  0.1167142E+00
         21   -1    0    0  501  502  0.00000000000E+00  0.00000000000E+00  0.30347689657E+02  0.30347689657E+02  0.00000000000E+00 0.  1.
         21   -1    0    0  502  503 -0.00000000000E+00 -0.00000000000E+00 -0.11174919867E+04  0.11174919867E+04  0.00000000000E+00 0. -1.
         -6    2    1    2    0  503 -0.47158879471E+02  0.29841769283E+02 -0.65591916174E+03  0.68023399674E+03  0.17138801731E+03 0.  0.
        -24    2    3    3    0    0 -0.74811144471E+01  0.63489230284E+02 -0.22555797517E+03  0.24671431140E+03  0.76842057835E+02 0.  0.
          6    2    1    2  501    0  0.47158879471E+02 -0.29841769283E+02 -0.43122513534E+03  0.46760567966E+03  0.17200425340E+03 0.  0.
         24    2    5    5    0    0 -0.38667216226E+02 -0.76217482715E+01 -0.17524252233E+03  0.19666465987E+03  0.80086216998E+02 0.  0.
          5    1    5    5  501    0  0.85826095697E+02 -0.22220021011E+02 -0.25598261301E+03  0.27094101978E+03  0.47000000000E+01 0. -1.
        -13    1    6    6    0    0  0.56902716811E+01  0.58371270696E+01  0.56558300746E+01  0.99216761721E+01  0.00000000000E+00 0.  1.
         14    1    6    6    0    0 -0.44357487907E+02 -0.13458875341E+02 -0.18089835240E+03  0.18674298370E+03  0.00000000000E+00 0. -1.
         -5    1    3    3    0  503 -0.39677765024E+02 -0.33647461001E+02 -0.43036118657E+03  0.43351968534E+03  0.47000000000E+01 0.  1.
         13    1    4    4    0    0 -0.29706256883E+02  0.67631514508E+02 -0.19630724284E+03  0.20974512401E+03  0.00000000000E+00 0. -1.
        -14    1    4    4    0    0  0.22225142436E+02 -0.41422842239E+01 -0.29250732328E+02  0.36969187395E+02  0.00000000000E+00 0.  1.
</event>
<event>
12    1  0.8113184E-002  0.1968100E+03  0.7818608E-02  0.1153302E+00
         21   -1    0    0  501  502  0.00000000000E+00  0.00000000000E+00  0.69475989765E+02  0.69475989765E+02  0.00000000000E+00 0. -1.
         21   -1    0    0  502  503 -0.00000000000E+00 -0.00000000000E+00 -0.74900494071E+03  0.74900494071E+03  0.00000000000E+00 0. -1.
         -6    2    1    2    0  503  0.35811265626E+02  0.88032086439E+02 -0.55496165836E+03  0.58882646368E+03  0.17234287653E+03 0.  0.
        -24    2    3    3    0    0 -0.10724737975E+02  0.98724409929E+02 -0.49853666571E+03  0.51476030941E+03  0.81103883792E+02 0.  0.
          6    2    1    2  501    0 -0.35811265626E+02 -0.88032086439E+02 -0.12456729259E+03  0.22965446680E+03  0.16790493962E+03 0.  0.
         24    2    5    5    0    0 -0.46103337837E+01 -0.12086374186E+03 -0.10885834910E+03  0.18148521674E+03  0.80358225793E+02 0.  0.
          5    1    5    5  501    0 -0.31200931843E+02  0.32831655422E+02 -0.15708943490E+02  0.48169250059E+02  0.47000000000E+01 0. -1.
        -13    1    6    6    0    0  0.30910863607E+01  0.11728167140E+02 -0.12345109262E+02  0.17306254420E+02  0.00000000000E+00 0.  1.
         14    1    6    6    0    0 -0.77014201444E+01 -0.13259190900E+03 -0.96513239838E+02  0.16417896232E+03  0.00000000000E+00 0. -1.
         -5    1    3    3    0  503  0.46536003602E+02 -0.10692323490E+02 -0.56424992649E+02  0.74066154270E+02  0.47000000000E+01 0.  1.
         11    1    4    4    0    0 -0.94718891344E+01  0.23155174524E+01 -0.34048290649E+01  0.10328173401E+02  0.00000000000E+00 0. -1.
        -12    1    4    4    0    0 -0.12528488409E+01  0.96408892476E+02 -0.49513183664E+03  0.50443213601E+03  0.00000000000E+00 0.  1.
</event>
<event>
12    1  0.8113184E-002  0.2085468E+03  0.7818608E-02  0.1143451E+00
         21   -1    0    0  503  502  0.00000000000E+00  0.00000000000E+00  0.33971049259E+03  0.33971049259E+03  0.00000000000E+00 0. -1.
         21   -1    0    0  501  503 -0.00000000000E+00 -0.00000000000E+00 -0.23944980818E+03  0.23944980818E+03  0.00000000000E+00 0.  1.
          6    2    1    2  501    0 -0.76758837156E+02 -0.78179142805E+02 -0.14912304688E+03  0.25637758182E+03  0.17744825696E+03 0.  0.
         24    2    3    3    0    0 -0.11819696780E+03 -0.37239773503E+02 -0.88407107308E+02  0.17210619909E+03  0.80295723512E+02 0.  0.
         -6    2    1    2    0  502  0.76758837156E+02  0.78179142805E+02  0.24938373128E+03  0.32278271894E+03  0.17318354648E+03 0.  0.
        -24    2    5    5    0    0  0.64890005871E+02  0.11161944695E+03  0.13581361218E+03  0.20370549589E+03  0.79881024047E+02 0.  0.
          5    1    3    3  501    0  0.41438130644E+02 -0.40939369302E+02 -0.60715939568E+02  0.84271382733E+02  0.47000000000E+01 0. -1.
        -11    1    4    4    0    0 -0.33831287621E+01  0.61614625751E+01 -0.39268082887E+02  0.39892248808E+02  0.00000000000E+00 0.  1.
         12    1    4    4    0    0 -0.11481383904E+03 -0.43401236078E+02 -0.49139024420E+02  0.13221395028E+03  0.00000000000E+00 0. -1.
         -5    1    5    5    0  502  0.11868831284E+02 -0.33440304148E+02  0.11357011910E+03  0.11907722305E+03  0.47000000000E+01 0.  1.
         11    1    6    6    0    0  0.35509296153E+02  0.80694800670E+02  0.36129203569E+02  0.95277910971E+02  0.00000000000E+00 0. -1.
        -12    1    6    6    0    0  0.29380709719E+02  0.30924646283E+02  0.99684408616E+02  0.10842758492E+03  0.00000000000E+00 0.  1.
</event>
<event>
12    1  0.8113184E-002  0.2293258E+03  0.7818608E-02  0.1127383E+00
         21   -1    0    0  503  502  0.00000000000E+00  0.00000000000E+00  0.67227822684E+02  0.67227822684E+02  0.00000000000E+00 0. -1.
         21   -1    0    0  501  503 -0.00000000000E+00 -0.00000000000E+00 -0.77917280140E+03  0.77917280140E+03  0.00000000000E+00 0.  1.
          6    2    1    2  501    0  0.11553564876E+03  0.83996089258E+02 -0.33543924566E+03  0.40633707850E+03  0.17940597730E+03 0.  0.
         24    2    3    3    0    0  0.41806473140E+01  0.41789615510E+02 -0.21680085804E+03  0.23817501444E+03  0.89223739432E+02 0.  0.
         -6    2    1    2    0  502 -0.11553564876E+03 -0.83996089258E+02 -0.37650573306E+03  0.44006354559E+03  0.17746979457E+03 0.  0.
        -24    2    5    5    0    0 -0.10986080770E+02 -0.34957323834E+02 -0.77130748641E+02  0.11915408176E+03  0.83101349887E+02 0.  0.
          5    1    3    3  501    0  0.11135500144E+03  0.42206473747E+02 -0.11863838761E+03  0.16816206406E+03  0.47000000000E+01 0. -1.
        -11    1    4    4    0    0  0.22498304089E+02  0.63266272621E+02 -0.17759160508E+03  0.18986198443E+03  0.00000000000E+00 0.  1.
         12    1    4    4    0    0 -0.18317656775E+02 -0.21476657111E+02 -0.39209252965E+02  0.48313030007E+02  0.00000000000E+00 0. -1.
         -5    1    5    5    0  502 -0.10454956799E+03 -0.49038765423E+02 -0.29937498442E+03  0.32090946383E+03  0.47000000000E+01 0.  1.
         11    1    6    6    0    0  0.92434248030E+01 -0.81260364646E+01  0.15977266198E+02  0.20167954926E+02  0.00000000000E+00 0. -1.
        -12    1    6    6    0    0 -0.20229505573E+02 -0.26831287370E+02 -0.93108014839E+02  0.98986126831E+02  0.00000000000E+00 0.  1.
</event>
<event>
12    1  0.8113184E-002  0.1970526E+03  0.7818608E-02  0.1152495E+00
         21   -1    0    0  501  502  0.00000000000E+00  0.00000000000E+00  0.15085984564E+03  0.15085984564E+03  0.00000000000E+00 0.  1.
         21   -1    0    0  502  503 -0.00000000000E+00 -0.00000000000E+00 -0.34993983825E+03  0.34993983825E+03  0.00000000000E+00 0.  1.
         -6    2    1    2    0  503  0.76734694630E+02  0.56724017997E+02  0.30051262805E+02  0.19933090593E+03  0.17240621824E+03 0.  0.
        -24    2    3    3    0    0  0.89671894128E+02 -0.15260376241E+02  0.29790569903E+02  0.12604187466E+03  0.82007002339E+02 0.  0.
          6    2    1    2  501    0 -0.76734694630E+02 -0.56724017997E+02 -0.22913125542E+03  0.30146877796E+03  0.17110366534E+03 0.  0.
         24    2    5    5    0    0 -0.10044583935E+03 -0.52373931692E+02 -0.23794149858E+03  0.27537563672E+03  0.79894863349E+02 0.  0.
          5    1    5    5  501    0  0.23711144721E+02 -0.43500863056E+01  0.88102431605E+01  0.26093141233E+02  0.47000000000E+01 0. -1.
        -13    1    6    6    0    0 -0.92962590096E+02 -0.13846731553E+02 -0.19904208907E+03  0.22011707874E+03  0.00000000000E+00 0.  1.
         14    1    6    6    0    0 -0.74832492557E+01 -0.38527200138E+02 -0.38899409510E+02  0.55258557981E+02  0.00000000000E+00 0. -1.
         -5    1    3    3    0  503 -0.12937199498E+02  0.71984394238E+02  0.26069290204E+00  0.73289031277E+02  0.47000000000E+01 0.  1.
         11    1    4    4    0    0  0.18377985719E+02 -0.38350503800E+02 -0.60809092502E+01  0.42959154532E+02  0.00000000000E+00 0. -1.
        -12    1    4    4    0    0  0.71293908409E+02  0.23090127559E+02  0.35871479153E+02  0.83082720126E+02  0.00000000000E+00 0.  1.
</event>
<event>
12    1  0.8113184E-002  0.1950195E+03  0.7818608E-02  0.1154335E+00
         21   -1    0    0  501  502  0.00000000000E+00  0.00000000000E+00  0.83827876983E+02  0.83827876983E+02  0.00000000000E+00 0.  1.
         21   -1    0    0  502  503 -0.00000000000E+00 -0.00000000000E+00 -0.45889385119E+03  0.45889385119E+03  0.00000000000E+00 0. -1.
         -6    2    1    2    0  503 -0.54969129177E+02 -0.70438646790E+02 -0.15099355560E+03  0.24664071825E+03  0.17334757553E+03 0.  0.
        -24    2    3    3    0    0 -0.10296516492E+03 -0.46716392295E+02 -0.89571566212E+02  0.16502506053E+03  0.80162077271E+02 0.  0.
          6    2    1    2  501    0  0.54969129177E+02  0.70438646790E+02 -0.22407241861E+03  0.29608100993E+03  0.17167500556E+03 0.  0.
         24    2    5    5    0    0  0.53330956769E+01 -0.70006311305E+01 -0.41114246137E+02  0.91248491850E+02  0.80984290352E+02 0.  0.
          5    1    5    5  501    0  0.49636033500E+02  0.77439277920E+02 -0.18295817247E+03  0.20483251808E+03  0.47000000000E+01 0. -1.
        -11    1    6    6    0    0  0.14968084649E+02  0.31806695459E+02 -0.37024899080E+02  0.51054408096E+02  0.00000000000E+00 0.  1.
         12    1    6    6    0    0 -0.96349889722E+01 -0.38807326590E+02 -0.40893470569E+01  0.40194083755E+02  0.00000000000E+00 0. -1.
         -5    1    3    3    0  503  0.47996035742E+02 -0.23722254495E+02 -0.61421989385E+02  0.81615657721E+02  0.47000000000E+01 0.  1.
         13    1    4    4    0    0  0.37164671345E+01 -0.23424621385E+02  0.11809499850E+00  0.23717903816E+02  0.00000000000E+00 0. -1.
        -14    1    4    4    0    0 -0.10668163205E+03 -0.23291770910E+02 -0.89689661211E+02  0.14130715671E+03  0.00000000000E+00 0.  1.
</event>
<event>
12    1  0.8113184E-002  0.2095455E+03  0.7818608E-02  0.1141938E+00
         21   -1    0    0  501  502  0.00000000000E+00  0.00000000000E+00  0.81065883645E+03  0.81065883645E+03  0.00000000000E+00 0. -1.
         21   -1    0    0  502  503 -0.00000000000E+00 -0.00000000000E+00 -0.62361148246E+02  0.62361148246E+02  0.00000000000E+00 0. -1.
         -6    2    1    2    0  503  0.77419014522E+02  0.90606218037E+02  0.21579646261E+03  0.30079467108E+03  0.17235466434E+03 0.  0.
        -24    2    3    3    0    0  0.10315905513E+03  0.10047480948E+03  0.12884078257E+03  0.20945290035E+03  0.80830639099E+02 0.  0.
          6    2    1    2  501    0 -0.77419014522E+02 -0.90606218037E+02  0.53250122560E+03  0.57222531362E+03  0.17228193093E+03 0.  0.
         24    2    5    5    0    0 -0.63395744283E+02 -0.12939922781E+03  0.45985699359E+03  0.48855438582E+03  0.80335252509E+02 0.  0.
          5    1    5    5  501    0 -0.14023270239E+02  0.38793009771E+02  0.72644232007E+02  0.83670927802E+02  0.47000000000E+01 0. -1.
        -11    1    6    6    0    0  0.19043078544E+02 -0.20304971816E+02  0.65772662018E+02  0.71421101853E+02  0.00000000000E+00 0.  1.
         12    1    6    6    0    0 -0.82438822827E+02 -0.10909425599E+03  0.39408433157E+03  0.41713328396E+03  0.00000000000E+00 0. -1.
         -5    1    3    3    0  503 -0.25740040611E+02 -0.98685914471E+01  0.86955680041E+02  0.91341770725E+02  0.47000000000E+01 0.  1.
         13    1    4    4    0    0  0.72510534675E+02  0.34903145599E+02  0.10693016323E+03  0.13382849853E+03  0.00000000000E+00 0. -1.
        -14    1    4    4    0    0  0.30648520459E+02  0.65571663885E+02  0.21910619340E+02  0.75624401821E+02  0.00000000000E+00 0.  1.
</event>
<event>
12    1  0.8113184E-002  0.1838646E+03  0.7818608E-02  0.1164646E+00
         21   -1    0    0  501  502  0.00000000000E+00  0.00000000000E+00  0.60193784665E+03  0.60193784665E+03  0.00000000000E+00 0.  1.
         21   -1    0    0  502  503 -0.00000000000E+00 -0.00000000000E+00 -0.56747819694E+02  0.56747819694E+02  0.00000000000E+00 0.  1.
         -6    2    1    2    0  503 -0.45159162584E+02 -0.40455799924E+02  0.32019784098E+03  0.36812128952E+03  0.17120340159E+03 0.  0.
        -24    2    3    3    0    0 -0.46900673806E+02  0.40213265737E+02  0.19314765035E+03  0.21754117146E+03  0.78748755546E+02 0.  0.
          6    2    1    2  501    0  0.45159162584E+02  0.40455799924E+02  0.22499218598E+03  0.29056437682E+03  0.17358038949E+03 0.  0.
         24    2    5    5    0    0  0.10953367601E+01 -0.86442032399E+01  0.36086747873E+02  0.90414968626E+02  0.82442047326E+02 0.  0.
          5    1    5    5  501    0  0.44063825823E+02  0.49100003164E+02  0.18890543810E+03  0.20014940820E+03  0.47000000000E+01 0. -1.
        -11    1    6    6    0    0  0.15718393824E+01  0.37110233101E+02  0.16366389844E+02  0.40589392659E+02  0.00000000000E+00 0.  1.
         12    1    6    6    0    0 -0.47650262234E+00 -0.45754436341E+02  0.19720358028E+02  0.49825575967E+02  0.00000000000E+00 0. -1.
         -5    1    3    3    0  503  0.17415112219E+01 -0.80669065661E+02  0.12705019063E+03  0.15058011806E+03  0.47000000000E+01 0.  1.
         13    1    4    4    0    0 -0.59524930062E+02  0.63225609372E+01  0.14831935528E+03  0.15994318750E+03  0.00000000000E+00 0. -1.
        -14    1    4    4    0    0  0.12624256256E+02  0.33890704800E+02  0.44828295067E+02  0.57597983962E+02  0.00000000000E+00 0.  1.
</event>
<event>
12    1  0.8113184E-002  0.1843319E+03  0.7818608E-02  0.1163917E+00
         21   -1    0    0  503  502  0.00000000000E+00  0.00000000000E+00  0.19410676871E+02  0.19410676871E+02  0.00000000000E+00 0. -1.
         21   -1    0    0  501  503 -0.00000000000E+00 -0.00000000000E+00 -0.17528633619E+04  0.17528633619E+04  0.00000000000E+00 0. -1.
          6    2    1    2  501    0  0.57212018463E+02 -0.29800892606E+02 -0.93797936385E+03  0.95572271781E+03  0.17157889752E+03 0.  0.
         24    2    3    3    0    0  0.49694374959E+02  0.43919655821E+02 -0.43510382075E+03  0.44739493373E+03  0.80302084793E+02 0.  0.
         -6    2    1    2    0  502 -0.57212018463E+02  0.29800892606E+02 -0.79547332121E+03  0.81655132099E+03  0.17267584313E+03 0.  0.
        -24    2    5    5    0    0 -0.73495501843E+02  0.72770294036E+02 -0.67379870327E+03  0.68640400469E+03  0.80303553083E+02 0.  0.
          5    1    3    3  501    0  0.75176435039E+01 -0.73720548427E+02 -0.50287554310E+03  0.50832778408E+03  0.47000000000E+01 0. -1.
        -11    1    4    4    0    0 -0.67853608867E+01  0.28810989397E+02 -0.51820624196E+02  0.59678231580E+02  0.00000000000E+00 0.  1.
         12    1    4    4    0    0  0.56479735845E+02  0.15108666424E+02 -0.38328319656E+03  0.38771670215E+03  0.00000000000E+00 0. -1.
         -5    1    5    5    0  502  0.16283483381E+02 -0.42969401429E+02 -0.12167461794E+03  0.13014731630E+03  0.47000000000E+01 0.  1.
         11    1    6    6    0    0 -0.71326155095E+02  0.15363713269E+02 -0.40734845731E+03  0.41383116093E+03  0.00000000000E+00 0. -1.
        -12    1    6    6    0    0 -0.21693467484E+01  0.57406580766E+02 -0.26645024596E+03  0.27257284376E+03  0.00000000000E+00 0.  1.
</event>
<event>
12    1  0.8113184E-002  0.2224314E+03  0.7818608E-02  0.1132267E+00
         21   -1    0    0  501  502  0.00000000000E+00  0.00000000000E+00  0.62852428390E+02  0.62852428390E+02  0.00000000000E+00 0. -1.
         21   -1    0    0  502  503 -0.00000000000E+00 -0.00000000000E+00 -0.79484556591E+03  0.79484556591E+03  0.00000000000E+00 0. -1.
         -6    2    1    2    0  503  0.94490581557E+02  0.10395397614E+03 -0.41771496281E+03  0.47324571703E+03  0.17245526775E+03 0.  0.
        -24    2    3    3    0    0  0.76580623492E+02  0.10346936638E+03 -0.42672521681E+03  0.45264775301E+03  0.78899150685E+02 0.  0.
          6    2    1    2  501    0 -0.94490581557E+02 -0.10395397614E+03 -0.31427817471E+03  0.38445227727E+03  0.17116624445E+03 0.  0.
         24    2    5    5    0    0 -0.37419752759E+02  0.81329140626E+01 -0.18605091903E+03  0.20477236867E+03  0.76487883419E+02 0.  0.
          5    1    5    5  501    0 -0.57070828798E+02 -0.11208689020E+03 -0.12822725568E+03  0.17967990860E+03  0.47000000000E+01 0. -1.
        -13    1    6    6    0    0  0.17285944980E+02  0.65443425023E+01 -0.10724737031E+03  0.10882844642E+03  0.00000000000E+00 0.  1.
         14    1    6    6    0    0 -0.54705697739E+02  0.15885715603E+01 -0.78803548728E+02  0.95943922251E+02  0.00000000000E+00 0. -1.
         -5    1    3    3    0  503  0.17909958064E+02  0.48460976396E+00  0.90102539981E+01  0.20597964016E+02  0.47000000000E+01 0.  1.
         13    1    4    4    0    0  0.54099222688E+02  0.43918414242E+02 -0.32698154527E+03  0.33432392070E+03  0.00000000000E+00 0. -1.
        -14    1    4    4    0    0  0.22481400804E+02  0.59550952135E+02 -0.99743671535E+02  0.11832383231E+03  0.00000000000E+00 0.  1.
</event>
<event>
12    1  0.8113184E-002  0.1713240E+03  0.7818608E-02  0.1177860E+00
         21   -1    0    0  501  502  0.00000000000E+00  0.00000000000E+00  0.28596678646E+02  0.28596678646E+02  0.00000000000E+00 0.  1.
         21   -1    0    0  502  503 -0.00000000000E+00 -0.00000000000E+00 -0.11543513683E+04  0.11543513683E+04  0.00000000000E+00 0.  1.
         -6    2    1    2    0  503  0.33075917071E+02  0.19675722257E+02 -0.79020017264E+03  0.80855935470E+03  0.16694540094E+03 0.  0.
        -24    2    3    3    0    0  0.69191291074E+02  0.26070885126E+02 -0.73640007269E+03  0.74327720475E+03  0.68620771111E+02 0.  0.
          6    2    1    2  501    0 -0.33075917071E+02 -0.19675722257E+02 -0.33555451705E+03  0.37438869229E+03  0.16152061373E+03 0.  0.
         24    2    5    5    0    0 -0.63407755111E+02  0.39174585646E+01 -0.13051636845E+03  0.16572774491E+03  0.79970451465E+02 0.  0.
          5    1    5    5  501    0  0.30331838039E+02 -0.23593180821E+02 -0.20503814860E+03  0.20866094738E+03  0.47000000000E+01 0. -1.
        -11    1    6    6    0    0 -0.35968171667E+02  0.38672650124E+02 -0.96054877281E+02  0.10961670808E+03  0.00000000000E+00 0.  1.
         12    1    6    6    0    0 -0.27439583444E+02 -0.34755191559E+02 -0.34461491172E+02  0.56111036826E+02  0.00000000000E+00 0. -1.
         -5    1    3    3    0  503 -0.36115374003E+02 -0.63951628690E+01 -0.53800099944E+02  0.65282149946E+02  0.47000000000E+01 0.  1.
         13    1    4    4    0    0  0.15922520422E+02  0.38372706191E+02 -0.43320503126E+03  0.43519258995E+03  0.00000000000E+00 0. -1.
        -14    1    4    4    0    0  0.53268770653E+02 -0.12301821065E+02 -0.30319504144E+03  0.30808461480E+03  0.00000000000E+00 0.  1.
</event>
<event>
12    1  0.8113184E-002  0.3144522E+03  0.7818608E-02  0.1078486E+00
         21   -1    0    0  501  502  0.00000000000E+00  0.00000000000E+00  0.17980948663E+04  0.17980948663E+04  0.00000000000E+00 0. -1.
         21   -1    0    0  502  503 -0.00000000000E+00 -0.00000000000E+00 -0.20715284081E+03  0.20715284081E+03  0.00000000000E+00 0.  1.
         -6    2    1    2    0  503 -0.16724815120E+03  0.19957329717E+03 -0.64167608958E+02  0.32093247530E+03  0.17629159549E+03 0.  0.
        -24    2    3    3    0    0 -0.44247087963E+02 -0.14378473032E+02 -0.98831140384E+01  0.68200368282E+02  0.48878103592E+02 0.  0.
          6    2    1    2  501    0  0.16724815120E+03 -0.19957329717E+03  0.16551096345E+04  0.16843152319E+04  0.17241941035E+03 0.  0.
         24    2    5    5    0    0  0.37736539908E+02 -0.24051266822E+02  0.36524038770E+03  0.37612334822E+03  0.77882747707E+02 0.  0.
          5    1    5    5  501    0  0.12951161129E+03 -0.17552203035E+03  0.12898692468E+04  0.13081918836E+04  0.47000000000E+01 0. -1.
        -13    1    6    6    0    0 -0.20496493352E+02 -0.42307775541E+01  0.17348824199E+03  0.17474603236E+03  0.00000000000E+00 0.  1.
         14    1    6    6    0    0  0.58233033260E+02 -0.19820489268E+02  0.19175214571E+03  0.20137731586E+03  0.00000000000E+00 0. -1.
         -5    1    3    3    0  503 -0.12300106323E+03  0.21395177020E+03 -0.54284494920E+02  0.25273210702E+03  0.47000000000E+01 0.  1.
         13    1    4    4    0    0  0.92372769381E+01 -0.10130490214E+02 -0.39670712709E+00  0.13715374357E+02  0.00000000000E+00 0. -1.
        -14    1    4    4    0    0 -0.53484364901E+02 -0.42479828182E+01 -0.94864069113E+01  0.54484993925E+02  0.00000000000E+00 0.  1.
</event>
<event>
12    1  0.8113184E-002  0.2285889E+03  0.7818608E-02  0.1127883E+00
         21   -1    0    0  503  502  0.00000000000E+00  0.00000000000E+00  0.19844524579E+03  0.19844524579E+03  0.00000000000E+00 0.  1.
         21   -1    0    0  501  503 -0.00000000000E+00 -0.00000000000E+00 -0.10186817684E+04  0.10186817684E+04  0.00000000000E+00 0.  1.
          6    2    1    2  501    0  0.12990164640E+03  0.75650057819E+02 -0.93439179854E+03  0.96161910316E+03  0.17036988411E+03 0.  0.
         24    2    3    3    0    0  0.13141241322E+03  0.11139213070E+03 -0.81454448025E+03  0.83645821514E+03  0.80636258824E+02 0.  0.
         -6    2    1    2    0  502 -0.12990164640E+03 -0.75650057819E+02  0.11415527593E+03  0.25550791101E+03  0.17220771348E+03 0.  0.
        -24    2    5    5    0    0 -0.10446173229E+03 -0.98672369412E+02  0.34556440755E+02  0.16870191685E+03  0.81349241869E+02 0.  0.
          5    1    3    3  501    0 -0.15107668211E+01 -0.35742072884E+02 -0.11984731829E+03  0.12516088802E+03  0.47000000000E+01 0. -1.
        -11    1    4    4    0    0  0.68555133829E+02  0.10260842345E+03 -0.60739081820E+03  0.61979988785E+03  0.00000000000E+00 0.  1.
         12    1    4    4    0    0  0.62857279391E+02  0.87837072497E+01 -0.20715366204E+03  0.21665832729E+03  0.00000000000E+00 0. -1.
         -5    1    5    5    0  502 -0.25439914112E+02  0.23022311593E+02  0.79598835180E+02  0.86805994166E+02  0.47000000000E+01 0.  1.
         11    1    6    6    0    0  0.56930743292E+01  0.27541647393E+01 -0.10565145844E+02  0.12313359633E+02  0.00000000000E+00 0. -1.
        -12    1    6    6    0    0 -0.11015480662E+03 -0.10142653415E+03  0.45121586599E+02  0.15638855722E+03  0.00000000000E+00 0.  1.
</event>
<event>
12    1  0.8113184E-002  0.1904390E+03  0.7818608E-02  0.1160023E+00
         21   -1    0    0  501  502  0.00000000000E+00  0.00000000000E+00  0.65091636474E+03  0.65091636474E+03  0.00000000000E+00 0.  1.
         21   -1    0    0  502  503 -0.00000000000E+00 -0.00000000000E+00 -0.16077484116E+03  0.16077484116E+03  0.00000000000E+00 0. -1.
         -6    2    1    2    0  503 -0.66786368751E+02  0.28770266886E+02 -0.84933350866E+02  0.20852027227E+03  0.17600818887E+03 0.  0.
        -24    2    3    3    0    0  0.28846497541E+02  0.24681508832E+02 -0.15787709504E+02  0.90344247725E+02  0.80445845306E+02 0.  0.
          6    2    1    2  501    0  0.66786368751E+02 -0.28770266886E+02  0.57507487445E+03  0.60317093362E+03  0.16678104400E+03 0.  0.
         24    2    5    5    0    0  0.96240988051E+02 -0.56184430251E+02  0.39156269163E+03  0.41524030229E+03  0.81756646122E+02 0.  0.
          5    1    5    5  501    0 -0.29454619300E+02  0.27414163365E+02  0.18351218282E+03  0.18793063133E+03  0.47000000000E+01 0. -1.
        -11    1    6    6    0    0  0.35113731410E+02  0.19886654311E+02  0.12672960396E+03  0.13299941982E+03  0.00000000000E+00 0.  1.
         12    1    6    6    0    0  0.61127256641E+02 -0.76071084562E+02  0.26483308767E+03  0.28224088247E+03  0.00000000000E+00 0. -1.
         -5    1    3    3    0  503 -0.95632866292E+02  0.40887580542E+01 -0.69145641362E+02  0.11817602454E+03  0.47000000000E+01 0.  1.
         11    1    4    4    0    0  0.17710643798E+02 -0.29015021002E+02 -0.83438539593E+01  0.35002260589E+02  0.00000000000E+00 0. -1.
        -12    1    4    4    0    0  0.11135853743E+02  0.53696529834E+02 -0.74438555446E+01  0.55341987136E+02  0.00000000000E+00 0.  1.
</event>
<event>
12    1  0.8113184E-002  0.1828918E+03  0.7818608E-02  0.1167180E+00
         21   -1    0    0  503  502  0.00000000000E+00  0.00000000000E+00  0.68571001772E+03  0.68571001772E+03  0.00000000000E+00 0.  1.
         21   -1    0    0  501  503 -0.00000000000E+00 -0.00000000000E+00 -0.84995196178E+02  0.84995196178E+02  0.00000000000E+00 0.  1.
          6    2    1    2  501    0 -0.10412092363E+02 -0.63789935759E+02  0.44973438361E+02  0.18834021789E+03  0.17109020996E+03 0.  0.
         24    2    3    3    0    0 -0.35251376770E+02 -0.34651302760E+02 -0.34710174293E+02  0.99809894790E+02  0.79459716533E+02 0.  0.
         -6    2    1    2    0  502  0.10412092363E+02  0.63789935759E+02  0.55574138318E+03  0.58236499601E+03  0.16162591383E+03 0.  0.
        -24    2    5    5    0    0  0.42299720002E+02  0.92282686972E+02  0.38348280959E+03  0.40481566809E+03  0.80692622047E+02 0.  0.
          5    1    3    3  501    0  0.24839284406E+02 -0.29138632999E+02  0.79683612654E+02  0.88530323101E+02  0.47000000000E+01 0. -1.
        -11    1    4    4    0    0  0.16042434705E+02 -0.14508076120E+02  0.14408593127E+02  0.25989450549E+02  0.00000000000E+00 0.  1.
         12    1    4    4    0    0 -0.51293811474E+02 -0.20143226640E+02 -0.49118767420E+02  0.73820444240E+02  0.00000000000E+00 0. -1.
         -5    1    5    5    0  502 -0.31887627639E+02 -0.28492751214E+02  0.17225857360E+03  0.17754932792E+03  0.47000000000E+01 0.  1.
         13    1    6    6    0    0  0.45368242574E+02  0.88965184220E+01  0.13827715804E+03  0.14580122740E+03  0.00000000000E+00 0. -1.
        -14    1    6    6    0    0 -0.30685225723E+01  0.83386168550E+02  0.24520565154E+03  0.25901444069E+03  0.00000000000E+00 0.  1.
</event>
<event>
12    1  0.8113184E-002  0.2277004E+03  0.7818608E-02  0.1128281E+00
         21   -1    0    0  503  502  0.00000000000E+00  0.00000000000E+00  0.10058173340E+04  0.10058173340E+04  0.00000000000E+00 0.  1.
         21   -1    0    0  501  503 -0.00000000000E+00 -0.00000000000E+00 -0.56449748413E+02  0.56449748413E+02  0.00000000000E+00 0.  1.
          6    2    1    2  501    0  0.14807563841E+03  0.15796756883E+02  0.31785228584E+03  0.39095564847E+03  0.17216361764E+03 0.  0.
         24    2    3    3    0    0  0.14810395121E+02 -0.19019684326E+02  0.92031205259E+02  0.12640119267E+03  0.83225131858E+02 0.  0.
         -6    2    1    2    0  502 -0.14807563841E+03 -0.15796756883E+02  0.63151529979E+03  0.67131143398E+03  0.17225427516E+03 0.  0.
        -24    2    5    5    0    0 -0.76507240406E+02  0.15502629404E+02  0.53794170612E+03  0.54932867042E+03  0.79290728385E+02 0.  0.
          5    1    3    3  501    0  0.13326524329E+03  0.34816441208E+02  0.22582108058E+03  0.26455445580E+03  0.47000000000E+01 0. -1.
        -11    1    4    4    0    0  0.33391446569E+02  0.80541239355E+01  0.86541217238E+02  0.93108753065E+02  0.00000000000E+00 0.  1.
         12    1    4    4    0    0 -0.18581051448E+02 -0.27073808261E+02  0.54899880207E+01  0.33292439609E+02  0.00000000000E+00 0. -1.
         -5    1    5    5    0  502 -0.71568398002E+02 -0.31299386287E+02  0.93573593663E+02  0.12198276356E+03  0.47000000000E+01 0.  1.
         11    1    6    6    0    0  0.14561667169E+02  0.87322694320E+01  0.47165099416E+02  0.50128248355E+02  0.00000000000E+00 0. -1.
        -12    1    6    6    0    0 -0.91068907575E+02  0.67703599725E+01  0.49077660671E+03  0.49920042207E+03  0.00000000000E+00 0.  1.
</event>
<event>
12    1  0.8113184E-002  0.2106739E+03  0.7818608E-02  0.1141252E+00
         21   -1    0    0  503  502  0.00000000000E+00  0.00000000000E+00  0.27541012152E+02  0.27541012152E+02  0.00000000000E+00 0. -1.
         21   -1    0    0  501  503 -0.00000000000E+00 -0.00000000000E+00 -0.21374101386E+04  0.21374101386E+04  0.00000000000E+00 0. -1.
          6    2    1    2  501    0  0.64903123765E+01 -0.11702712385E+03 -0.15982406202E+04  0.16120659277E+04  0.17505999945E+03 0.  0.
         24    2    3    3    0    0 -0.62258474518E+02 -0.65478909004E+02 -0.91055523649E+03  0.91901694597E+03  0.85543574259E+02 0.  0.
         -6    2    1    2    0  502 -0.64903123765E+01  0.11702712385E+03 -0.51162850634E+03  0.55288522312E+03  0.17372642162E+03 0.  0.
        -24    2    5    5    0    0  0.11492200841E+02 -0.11991975270E+02 -0.20783636162E+03  0.22230836985E+03  0.77130927285E+02 0.  0.
          5    1    3    3  501    0  0.68748786895E+02 -0.51548214851E+02 -0.68768538366E+03  0.69304898171E+03  0.47000000000E+01 0. -1.
        -13    1    4    4    0    0 -0.38963695598E+02  0.22721168556E+01 -0.14649514208E+03  0.15160527281E+03  0.00000000000E+00 0.  1.
         14    1    4    4    0    0 -0.23294778921E+02 -0.67751025859E+02 -0.76406009441E+03  0.76741167316E+03  0.00000000000E+00 0. -1.
         -5    1    5    5    0  502 -0.17982513218E+02  0.12901909912E+03 -0.30379214472E+03  0.33057685326E+03  0.47000000000E+01 0.  1.
         11    1    6    6    0    0 -0.32181909649E+02 -0.12911711262E+02 -0.10502943743E+03  0.11060547148E+03  0.00000000000E+00 0. -1.
        -12    1    6    6    0    0  0.43674110490E+02  0.91973599205E+00 -0.10280692419E+03  0.11170289837E+03  0.00000000000E+00 0.  1.
</event>
<event>
12    1  0.8113184E-002  0.2537796E+03  0.7818608E-02  0.1111009E+00
         21   -1    0    0  501  502  0.00000000000E+00  0.00000000000E+00  0.33132892666E+02  0.33132892666E+02  0.00000000000E+00 0. -1.
         21   -1    0    0  502  503 -0.00000000000E+00 -0.00000000000E+00 -0.19967835716E+04  0.19967835716E+04  0.00000000000E+00 0. -1.
         -6    2    1    2    0  503  0.87280233871E+01 -0.18658510895E+03 -0.11515504489E+04  0.11790869507E+04  0.17113567582E+03 0.  0.
        -24    2    3    3    0    0 -0.32746859237E+02 -0.18700547191E+03 -0.10363458743E+04  0.10565531732E+04  0.79047032889E+02 0.  0.
          6    2    1    2  501    0 -0.87280233871E+01  0.18658510895E+03 -0.81210023006E+03  0.85082951365E+03  0.17179608948E+03 0.  0.
         24    2    5    5    0    0 -0.21314694957E+02  0.18773518006E+02 -0.30386486129E+03  0.31543766237E+03  0.79751512281E+02 0.  0.
          5    1    5    5  501    0  0.12586671570E+02  0.16781159094E+03 -0.50823536877E+03  0.53539185129E+03  0.47000000000E+01 0. -1.
        -13    1    6    6    0    0 -0.19505008521E+02  0.58927684482E+01 -0.30153591170E+03  0.30222355323E+03  0.00000000000E+00 0.  1.
         14    1    6    6    0    0 -0.18096864363E+01  0.12880749558E+02 -0.23289495883E+01  0.13214109140E+02  0.00000000000E+00 0. -1.
         -5    1    3    3    0  503  0.41474882624E+02  0.42036296228E+00 -0.11520457461E+03  0.12253377741E+03  0.47000000000E+01 0.  1.
         11    1    4    4    0    0 -0.28845262258E+02 -0.15069629521E+03 -0.95681582532E+03  0.96903970307E+03  0.00000000000E+00 0. -1.
        -12    1    4    4    0    0 -0.39015969784E+01 -0.36309176704E+02 -0.79530048981E+02  0.87513470179E+02  0.00000000000E+00 0.  1.
</event>
<event>
12    1  0.8113184E-002  0.2325819E+03  0.7818608E-02  0.1124994E+00
         21   -1    0    0  501  502  0.00000000000E+00  0.00000000000E+00  0.24498934234E+03  0.24498934234E+03  0.00000000000E+00 0. -1.
         21   -1    0    0  502  503 -0.00000000000E+00 -0.00000000000E+00 -0.65078678035E+03  0.65078678035E+03  0.00000000000E+00 0. -1.
         -6    2    1    2    0  503  0.10373835656E+03  0.11625664908E+03 -0.56746127424E+03  0.61327534467E+03  0.17267627384E+03 0.  0.
        -24    2    3    3    0    0  0.13180153701E+03  0.80407043052E+02 -0.34557683097E+03  0.38671954026E+03  0.79320356688E+02 0.  0.
          6    2    1    2  501    0 -0.10373835656E+03 -0.11625664908E+03  0.16166383622E+03  0.28250077802E+03  0.17144748048E+03 0.  0.
         24    2    5    5    0    0  0.14380308000E+02 -0.38676787645E+02  0.53816553056E+02  0.10467001492E+03  0.79730191775E+02 0.  0.
          5    1    5    5  501    0 -0.11811866456E+03 -0.77579861432E+02  0.10784728317E+03  0.17783076309E+03  0.47000000000E+01 0. -1.
        -13    1    6    6    0    0  0.15393078117E+02 -0.24987798408E+02 -0.16061833156E+02  0.33456231221E+02  0.00000000000E+00 0.  1.
         14    1    6    6    0    0 -0.10127701177E+01 -0.13688989237E+02  0.69878386211E+02  0.71213783702E+02  0.00000000000E+00 0. -1.
         -5    1    3    3    0  503 -0.28063180449E+02  0.35849606025E+02 -0.22188444327E+03  0.22655580441E+03  0.47000000000E+01 0.  1.
         11    1    4    4    0    0  0.26813089589E+02  0.47017404164E+02 -0.60943441250E+02  0.81508779276E+02  0.00000000000E+00 0. -1.
        -12    1    4    4    0    0  0.10498844742E+03  0.33389638887E+02 -0.28463338972E+03  0.30521076099E+03  0.00000000000E+00 0.  1.
</event>
<event>
12    1  0.8113184E-002  0.2302456E+03  0.7818608E-02  0.1127079E+00
         21   -1    0    0  501  502  0.00000000000E+00  0.00000000000E+00  0.11278764257E+04  0.11278764257E+04  0.00000000000E+00 0. -1.
         21   -1    0    0  502  503 -0.00000000000E+00 -0.00000000000E+00 -0.24134973674E+03  0.24134973674E+03  0.00000000000E+00 0.  1.
         -6    2    1    2    0  503 -0.87321604413E+02 -0.11666464048E+03 -0.17282952430E+03  0.28513731186E+03  0.17377439746E+03 0.  0.
        -24    2    3    3    0    0 -0.15825599359E+02 -0.13066157592E+03 -0.11414466538E+03  0.19146983829E+03  0.79427937906E+02 0.  0.
          6    2    1    2  501    0  0.87321604413E+02  0.11666464048E+03  0.10593562133E+04  0.10840888506E+04  0.17826202189E+03 0.  0.
         24    2    5    5    0    0  0.48344323524E+02  0.14244346588E+03  0.69812863980E+03  0.71982078158E+03  0.90172308946E+02 0.  0.
          5    1    5    5  501    0  0.38977280889E+02 -0.25778825398E+02  0.36122757350E+03  0.36426806904E+03  0.47000000000E+01 0. -1.
        -11    1    6    6    0    0  0.71720595531E+01  0.80756540507E+02  0.52857103601E+03  0.53475265066E+03  0.00000000000E+00 0.  1.
         12    1    6    6    0    0  0.41172263971E+02  0.61686925371E+02  0.16955760379E+03  0.18506813093E+03  0.00000000000E+00 0. -1.
         -5    1    3    3    0  503 -0.71496005054E+02  0.13996935443E+02 -0.58684858915E+02  0.93667473578E+02  0.47000000000E+01 0.  1.
         11    1    4    4    0    0  0.14564023609E+02 -0.51333882535E+01 -0.39233138905E+02  0.42162799326E+02  0.00000000000E+00 0. -1.
        -12    1    4    4    0    0 -0.30389622968E+02 -0.12552818767E+03 -0.74911526478E+02  0.14930703896E+03  0.00000000000E+00 0.  1.
</event>
<event>
12    1  0.8113184E-002  0.1833699E+03  0.7818608E-02  0.1164793E+00
         21   -1    0    0  501  502  0.00000000000E+00  0.00000000000E+00  0.52863454941E+03  0.52863454941E+03  0.00000000000E+00 0.  1.
         21   -1    0    0  502  503 -0.00000000000E+00 -0.00000000000E+00 -0.63385153565E+02  0.63385153565E+02  0.00000000000E+00 0.  1.
         -6    2    1    2    0  503 -0.21748299394E+02  0.58480499085E+02  0.24312227172E+03  0.30398326026E+03  0.17147718862E+03 0.  0.
        -24    2    3    3    0    0 -0.34835359479E+02 -0.15119874081E+01  0.22232470882E+03  0.23898327411E+03  0.80429725707E+02 0.  0.
          6    2    1    2  501    0  0.21748299394E+02 -0.58480499085E+02  0.22212712413E+03  0.28803644272E+03  0.17242846562E+03 0.  0.
         24    2    5    5    0    0  0.59885382671E+02 -0.54346843864E+01  0.70276898400E+02  0.12266148502E+03  0.80567999892E+02 0.  0.
          5    1    5    5  501    0 -0.38137083278E+02 -0.53045814698E+02  0.15185022573E+03  0.16537495770E+03  0.47000000000E+01 0. -1.
        -13    1    6    6    0    0  0.35836167207E+02 -0.34714542849E+02  0.68480736771E+02  0.84728635501E+02  0.00000000000E+00 0.  1.
         14    1    6    6    0    0  0.24049215465E+02  0.29279858463E+02  0.17961616297E+01  0.37932849519E+02  0.00000000000E+00 0. -1.
         -5    1    3    3    0  503  0.13087060086E+02  0.59992486493E+02  0.20797562897E+02  0.64999986152E+02  0.47000000000E+01 0.  1.
         11    1    4    4    0    0 -0.23248172798E+02  0.29390005554E+02  0.18668864899E+03  0.19041245134E+03  0.00000000000E+00 0. -1.
        -12    1    4    4    0    0 -0.11587186681E+02 -0.30901992962E+02  0.35636059830E+02  0.48570822768E+02  0.00000000000E+00 0.  1.
</event>
<event>
12    1  0.8113184E-002  0.1755387E+03  0.7818608E-02  0.1172222E+00
         21   -1    0    0  503  502  0.00000000000E+00  0.00000000000E+00  0.17260325287E+04  0.17260325287E+04  0.00000000000E+00 0. -1.
         21   -1    0    0  501  503 -0.00000000000E+00 -0.00000000000E+00 -0.67717961840E+02  0.67717961840E+02  0.00000000000E+00 0. -1.
          6    2    1    2  501    0 -0.33657070140E+02  0.94823198684E+01  0.59362495251E+02  0.18519164089E+03  0.17189917176E+03 0.  0.
         24    2    3    3    0    0 -0.78758666643E+02  0.27340052164E+02  0.41973519962E+02  0.13344689167E+03  0.95372378055E+02 0.  0.
         -6    2    1    2    0  502  0.33657070140E+02 -0.94823198684E+01  0.15989520716E+04  0.16085588497E+04  0.17202073342E+03 0.  0.
        -24    2    5    5    0    0  0.71164340336E+02 -0.72195811978E+01  0.14770693145E+04  0.14809288697E+04  0.79372990111E+02 0.  0.
          5    1    3    3  501    0  0.45101596502E+02 -0.17857732295E+02  0.17388975290E+02  0.51744749216E+02  0.47000000000E+01 0. -1.
        -13    1    4    4    0    0  0.18136977301E+02 -0.11875825436E+02  0.11627692880E+02  0.24600577577E+02  0.00000000000E+00 0.  1.
         14    1    4    4    0    0 -0.96895643944E+02  0.39215877600E+02  0.30345827081E+02  0.10884631410E+03  0.00000000000E+00 0. -1.
         -5    1    5    5    0  502 -0.37507270195E+02 -0.22627386706E+01  0.12188275710E+03  0.12762997995E+03  0.47000000000E+01 0.  1.
         11    1    6    6    0    0  0.48105705458E+02 -0.21278413364E+02  0.39083484034E+03  0.39435872274E+03  0.00000000000E+00 0. -1.
        -12    1    6    6    0    0  0.23058634877E+02  0.14058832167E+02  0.10862344742E+04  0.10865701470E+04  0.00000000000E+00 0.  1.
</event>
<event>
12    1  0.8113184E-002  0.2849583E+03  0.7818608E-02  0.1093094E+00
         21   -1    0    0  503  502  0.00000000000E+00  0.00000000000E+00  0.70885246978E+02  0.70885246978E+02  0.00000000000E+00 0.  1.
         21   -1    0    0  501  503 -0.00000000000E+00 -0.00000000000E+00 -0.13887828494E+04  0.13887828494E+04  0.00000000000E+00 0.  1.
          6    2    1    2  501    0  0.12107199598E+03  0.18961701716E+03 -0.96535827666E+03  0.10063633094E+04  0.17388923734E+03 0.  0.
         24    2    3    3    0    0  0.48583046732E+02  0.12044418206E+03 -0.79156586054E+03  0.80570084962E+03  0.75566090839E+02 0.  0.
         -6    2    1    2    0  502 -0.12107199598E+03 -0.18961701716E+03 -0.35253932576E+03  0.45330478694E+03  0.17489486055E+03 0.  0.
        -24    2    5    5    0    0 -0.12656689741E+03 -0.70245517864E+02 -0.21578961308E+03  0.27163937278E+03  0.79178149926E+02 0.  0.
          5    1    3    3  501    0  0.72488949250E+02  0.69172835104E+02 -0.17379241612E+03  0.20066245982E+03  0.47000000000E+01 0. -1.
        -11    1    4    4    0    0  0.17503642199E+02  0.11702500045E+03 -0.59325672860E+03  0.60494195941E+03  0.00000000000E+00 0.  1.
         12    1    4    4    0    0  0.31079404533E+02  0.34191816038E+01 -0.19830913194E+03  0.20075889021E+03  0.00000000000E+00 0. -1.
         -5    1    5    5    0  502  0.54949014316E+01 -0.11937149930E+03 -0.13674971268E+03  0.18166541417E+03  0.47000000000E+01 0.  1.
         11    1    6    6    0    0 -0.25343676352E+02  0.14762610567E+02 -0.63749868591E+02  0.70173230987E+02  0.00000000000E+00 0. -1.
        -12    1    6    6    0    0 -0.10122322106E+03 -0.85008128431E+02 -0.15203974449E+03  0.20146614179E+03  0.00000000000E+00 0.  1.
</event>
<event>
12    1  0.8113184E-002  0.2229381E+03  0.7818608E-02  0.1131753E+00
         21   -1    0    0  501  502  0.00000000000E+00  0.00000000000E+00  0.30298546074E+03  0.30298546074E+03  0.00000000000E+00 0.  1.
         21   -1    0    0  502  503 -0.00000000000E+00 -0.00000000000E+00 -0.48666852552E+03  0.48666852552E+03  0.00000000000E+00 0. -1.
         -6    2    1    2    0  503 -0.12372482404E+03 -0.68524886371E+02 -0.41341247809E+03  0.46969273220E+03  0.17233076771E+03 0.  0.
        -24    2    3    3    0    0 -0.20177248156E+02  0.19533328806E+02 -0.19169078154E+03  0.20957939065E+03  0.79934304137E+02 0.  0.
          6    2    1    2  501    0  0.12372482404E+03  0.68524886371E+02  0.22972941331E+03  0.31996125407E+03  0.17203519590E+03 0.  0.
         24    2    5    5    0    0  0.15695256556E+03  0.68614784210E+02  0.19569751719E+03  0.27216637106E+03  0.80217945962E+02 0.  0.
          5    1    5    5  501    0 -0.33227741521E+02 -0.89897838872E-01  0.34031896123E+02  0.47794883010E+02  0.47000000000E+01 0. -1.
        -13    1    6    6    0    0  0.39199680815E+02  0.10840302526E+02  0.10526862465E+03  0.11285216201E+03  0.00000000000E+00 0.  1.
         14    1    6    6    0    0  0.11775288474E+03  0.57774481684E+02  0.90428892539E+02  0.15931420905E+03  0.00000000000E+00 0. -1.
         -5    1    3    3    0  503 -0.10354757588E+03 -0.88058215177E+02 -0.22172169655E+03  0.26011334155E+03  0.47000000000E+01 0.  1.
         11    1    4    4    0    0 -0.33722569769E+02  0.18377086223E+01 -0.18229136740E+03  0.18539345057E+03  0.00000000000E+00 0. -1.
        -12    1    4    4    0    0  0.13545321614E+02  0.17695620184E+02 -0.93994141447E+01  0.24185940080E+02  0.00000000000E+00 0.  1.
</event>
<event>
12    1  0.8113184E-002  0.1955496E+03  0.7818608E-02  0.1153725E+00
         21   -1    0    0  503  502  0.00000000000E+00  0.00000000000E+00  0.14160692295E+03  0.14160692295E+03  0.00000000000E+00 0. -1.
         21   -1    0    0  501  503 -0.00000000000E+00 -0.00000000000E+00 -0.27321399502E+03  0.27321399502E+03  0.00000000000E+00 0. -1.
          6    2    1    2  501    0 -0.48554720865E+02 -0.77411453645E+02 -0.91660415417E+02  0.21523291626E+03  0.17196942290E+03 0.  0.
         24    2    3    3    0    0 -0.46695158640E+02 -0.97704953331E+02 -0.11951776543E+03  0.18039893786E+03  0.80824407101E+02 0.  0.
         -6    2    1    2    0  502  0.48554720865E+02  0.77411453645E+02 -0.39946656647E+02  0.19958800171E+03  0.17288591896E+03 0.  0.
        -24    2    5    5    0    0 -0.25614022214E+02  0.19548801144E+02 -0.53581778784E+02  0.10441922763E+03  0.83630941172E+02 0.  0.
          5    1    3    3  501    0 -0.18595622254E+01  0.20293499687E+02  0.27857350010E+02  0.34833978394E+02  0.47000000000E+01 0. -1.
        -13    1    4    4    0    0 -0.67281698618E+01 -0.17205418488E+02  0.11319840010E+02  0.21666413475E+02  0.00000000000E+00 0.  1.
         14    1    4    4    0    0 -0.39966988778E+02 -0.80499534844E+02 -0.13083760544E+03  0.15873252439E+03  0.00000000000E+00 0. -1.
         -5    1    5    5    0  502  0.74168743079E+02  0.57862652501E+02  0.13635122137E+02  0.95168774081E+02  0.47000000000E+01 0.  1.
         11    1    6    6    0    0  0.12713151434E+02  0.34006885363E+02  0.82581581192E+00  0.36314934163E+02  0.00000000000E+00 0. -1.
        -12    1    6    6    0    0 -0.38327173648E+02 -0.14458084219E+02 -0.54407594596E+02  0.68104293468E+02  0.00000000000E+00 0.  1.
</event>
<event>
12    1  0.8113184E-002  0.2849704E+03  0.7818608E-02  0.1093118E+00
         21   -1    0    0  501  502  0.00000000000E+00  0.00000000000E+00  0.21262087355E+04  0.21262087355E+04  0.00000000000E+00 0.  1.
         21   -1    0    0  502  503 -0.00000000000E+00 -0.00000000000E+00 -0.41910364307E+02  0.41910364307E+02  0.00000000000E+00 0. -1.
         -6    2    1    2    0  503  0.55224071257E+02  0.21964139761E+03  0.71584604570E+03  0.77048275340E+03  0.17296262761E+03 0.  0.
        -24    2    3    3    0    0  0.95162896270E+02  0.11973045965E+03  0.37443339288E+03  0.41248555401E+03  0.80948173331E+02 0.  0.
          6    2    1    2  501    0 -0.55224071257E+02 -0.21964139761E+03  0.13684523255E+04  0.13976363464E+04  0.17156208224E+03 0.  0.
         24    2    5    5    0    0 -0.42784216792E+02 -0.12166680963E+03  0.11167446670E+04  0.11272059391E+04  0.82712006558E+02 0.  0.
          5    1    5    5  501    0 -0.12439854465E+02 -0.97974587985E+02  0.25170765851E+03  0.27043040736E+03  0.47000000000E+01 0. -1.
        -11    1    6    6    0    0  0.22300264874E+02 -0.54473353874E+02  0.37638224860E+03  0.38095701221E+03  0.00000000000E+00 0.  1.
         12    1    6    6    0    0 -0.65084481666E+02 -0.67193455751E+02  0.74036241839E+03  0.74624892684E+03  0.00000000000E+00 0. -1.
         -5    1    3    3    0  503 -0.39938825013E+02  0.99910937962E+02  0.34141265282E+03  0.35799719939E+03  0.47000000000E+01 0.  1.
         13    1    4    4    0    0  0.11897619911E+02  0.73044383753E+02  0.20587470318E+03  0.21877255030E+03  0.00000000000E+00 0. -1.
        -14    1    4    4    0    0  0.83265276359E+02  0.46686075896E+02  0.16855868971E+03  0.19371300371E+03  0.00000000000E+00 0.  1.
</event>
<event>
12    1  0.8113184E-002  0.1799768E+03  0.7818608E-02  0.1168072E+00
         21   -1    0    0  503  502  0.00000000000E+00  0.00000000000E+00  0.89825705581E+03  0.89825705581E+03  0.00000000000E+00 0.  1.
         21   -1    0    0  501  503 -0.00000000000E+00 -0.00000000000E+00 -0.49270059461E+02  0.49270059461E+02  0.00000000000E+00 0.  1.
          6    2    1    2  501    0 -0.44012267170E+02  0.24971711329E+02  0.17643395075E+03  0.25130930094E+03  0.17165884695E+03 0.  0.
         24    2    3    3    0    0 -0.58365135931E+02  0.72384568149E+02  0.14956782549E+03  0.19475965444E+03  0.83155118759E+02 0.  0.
         -6    2    1    2    0  502  0.44012267170E+02 -0.24971711329E+02  0.67255304560E+03  0.69621781433E+03  0.17271647233E+03 0.  0.
        -24    2    5    5    0    0  0.65716634654E+02 -0.52748578206E+02  0.63164694227E+03  0.64201418722E+03  0.78123417415E+02 0.  0.
          5    1    3    3  501    0  0.14352868762E+02 -0.47412856819E+02  0.26866125255E+02  0.56549646503E+02  0.47000000000E+01 0. -1.
        -13    1    4    4    0    0  0.29814583632E+01  0.21934551565E+02 -0.34042424883E+01  0.22396484395E+02  0.00000000000E+00 0.  1.
         14    1    4    4    0    0 -0.61346594295E+02  0.50450016583E+02  0.15297206798E+03  0.17236317004E+03  0.00000000000E+00 0. -1.
         -5    1    5    5    0  502 -0.21704367485E+02  0.27776866877E+02  0.40906103332E+02  0.54203627104E+02  0.47000000000E+01 0.  1.
         11    1    6    6    0    0 -0.10944659604E+02  0.44716595525E+01  0.22652583227E+02  0.25552315744E+02  0.00000000000E+00 0. -1.
        -12    1    6    6    0    0  0.76661294259E+02 -0.57220237758E+02  0.60899435904E+03  0.61646187148E+03  0.00000000000E+00 0.  1.
</event>
<event>
12    1  0.8113184E-002  0.1836051E+03  0.7818608E-02  0.1166359E+00
         21   -1    0    0  503  502  0.00000000000E+00  0.00000000000E+00  0.32785380316E+03  0.32785380316E+03  0.00000000000E+00 0.  1.
         21   -1    0    0  501  503 -0.00000000000E+00 -0.00000000000E+00 -0.12466585373E+04  0.12466585373E+04  0.00000000000E+00 0.  1.
          6    2    1    2  501    0 -0.41185497462E+02 -0.49750209784E+02 -0.12158224894E+04  0.12296077316E+04  0.17187064714E+03 0.  0.
         24    2    3    3    0    0 -0.23344141186E+02 -0.18522518559E+02 -0.11595949691E+04  0.11626965462E+04  0.79465298018E+02 0.  0.
         -6    2    1    2    0  502  0.41185497462E+02  0.49750209784E+02  0.29701775525E+03  0.34490460885E+03  0.16299789477E+03 0.  0.
        -24    2    5    5    0    0 -0.12265659595E+02  0.50105499246E+01  0.67527656074E+02  0.10501617859E+03  0.79327557723E+02 0.  0.
          5    1    3    3  501    0 -0.17841356275E+02 -0.31227691225E+02 -0.56227520287E+02  0.66911185392E+02  0.47000000000E+01 0. -1.
        -11    1    4    4    0    0  0.28117647150E+02 -0.79408011053E+01 -0.27631257618E+03  0.27785301538E+03  0.00000000000E+00 0.  1.
         12    1    4    4    0    0 -0.51461788336E+02 -0.10581717454E+02 -0.88328239294E+03  0.88484353084E+03  0.00000000000E+00 0. -1.
         -5    1    5    5    0  502  0.53451157057E+02  0.44739659860E+02  0.22949009918E+03  0.23988843026E+03  0.47000000000E+01 0.  1.
         11    1    6    6    0    0  0.28470097645E+02  0.12742601092E+02  0.52202923443E+02  0.60811722213E+02  0.00000000000E+00 0. -1.
        -12    1    6    6    0    0 -0.40735757240E+02 -0.77320511671E+01  0.15324732631E+02  0.44204456374E+02  0.00000000000E+00 0.  1.
</event>
<event>
12    1  0.8113184E-002  0.2025777E+03  0.7818608E-02  0.1147657E+00
         21   -1    0    0  501  502  0.00000000000E+00  0.00000000000E+00  0.20846674167E+03  0.20846674167E+03  0.00000000000E+00 0.  1.
         21   -1    0    0  502  503 -0.00000000000E+00 -0.00000000000E+00 -0.28433047136E+03  0.28433047136E+03  0.00000000000E+00 0. -1.
         -6    2    1    2    0  503  0.90359215051E+02  0.57071232202E+02 -0.17485020900E+03  0.26732867951E+03  0.17166861685E+03 0.  0.
        -24    2    3    3    0    0  0.62185862542E+02 -0.59367247788E+01 -0.17090886208E+03  0.19803679940E+03  0.78143512684E+02 0.  0.
          6    2    1    2  501    0 -0.90359215051E+02 -0.57071232202E+02  0.98986479316E+02  0.22546853352E+03  0.17209248452E+03 0.  0.
         24    2    5    5    0    0 -0.87098478584E+02 -0.62541315076E+02  0.13048651843E+03  0.19298936061E+03  0.93384156870E+02 0.  0.
          5    1    5    5  501    0 -0.32607364676E+01  0.54700828735E+01 -0.31500039109E+02  0.32479172909E+02  0.47000000000E+01 0. -1.
        -11    1    6    6    0    0 -0.70841835628E+02 -0.87128768121E+02  0.10916021293E+03  0.15660759878E+03  0.00000000000E+00 0.  1.
         12    1    6    6    0    0 -0.16256642956E+02  0.24587453046E+02  0.21326305495E+02  0.36381761826E+02  0.00000000000E+00 0. -1.
         -5    1    3    3    0  503  0.28173352510E+02  0.63007956981E+02 -0.39413469181E+01  0.69291880116E+02  0.47000000000E+01 0.  1.
         11    1    4    4    0    0  0.27394548374E+00  0.27231560594E+02 -0.69815766089E+02  0.74939136191E+02  0.00000000000E+00 0. -1.
        -12    1    4    4    0    0  0.61911917058E+02 -0.33168285373E+02 -0.10109309600E+03  0.12309766320E+03  0.00000000000E+00 0.  1.
</event>
<event>
12    1  0.8113184E-002  0.1871405E+03  0.7818608E-02  0.1161159E+00
         21   -1    0    0  503  502  0.00000000000E+00  0.00000000000E+00  0.52400418856E+02  0.52400418856E+02  0.00000000000E+00 0. -1.
         21   -1    0    0  501  503 -0.00000000000E+00 -0.00000000000E+00 -0.67211822673E+03  0.67211822673E+03  0.00000000000E+00 0. -1.
          6    2    1    2  501    0  0.25701136346E+01  0.72236845674E+02 -0.27827755375E+03  0.33535049366E+03  0.17261746527E+03 0.  0.
         24    2    3    3    0    0  0.61891658002E+02  0.48480182439E+02 -0.11778241175E+03  0.16253786310E+03  0.79780668108E+02 0.  0.
         -6    2    1    2    0  502 -0.25701136346E+01 -0.72236845674E+02 -0.34144025412E+03  0.38916815193E+03  0.17217908114E+03 0.  0.
        -24    2    5    5    0    0  0.54923942461E+02 -0.47120514381E+02 -0.28745244399E+03  0.30626356685E+03  0.77016118402E+02 0.  0.
          5    1    3    3  501    0 -0.59321544367E+02  0.23756663235E+02 -0.16049514200E+03  0.17281263055E+03  0.47000000000E+01 0. -1.
        -13    1    4    4    0    0  0.55714281353E+02  0.32556335477E+01 -0.98029136350E+02  0.11280244621E+03  0.00000000000E+00 0.  1.
         14    1    4    4    0    0  0.61773766487E+01  0.45224548891E+02 -0.19753275404E+02  0.49735416896E+02  0.00000000000E+00 0. -1.
         -5    1    5    5    0  502 -0.57494056096E+02 -0.25116331293E+02 -0.53987810131E+02  0.82904585077E+02  0.47000000000E+01 0.  1.
         11    1    6    6    0    0 -0.14019716803E+01 -0.37741467527E+02 -0.53787413288E+02  0.65722672830E+02  0.00000000000E+00 0. -1.
        -12    1    6    6    0    0  0.56325914142E+02 -0.93790468544E+01 -0.23366503070E+03  0.24054089402E+03  0.00000000000E+00 0.  1.
</event>
<event>
12    1  0.8113184E-002  0.1861674E+03  0.7818608E-02  0.1162279E+00
         21   -1    0    0  501  502  0.00000000000E+00  0.00000000000E+00  0.16406620589E+03  0.16406620589E+03  0.00000000000E+00 0. -1.
         21   -1    0    0  502  503 -0.00000000000E+00 -0.00000000000E+00 -0.22080264135E+03  0.22080264135E+03  0.00000000000E+00 0. -1.
         -6    2    1    2    0  503 -0.59502962104E+02 -0.32846992292E+02 -0.71401515915E+02  0.19812475965E+03  0.17185958369E+03 0.  0.
        -24    2    3    3    0    0 -0.13301943297E+02 -0.53542501140E+02 -0.10163617230E+03  0.13897188421E+03  0.77068359000E+02 0.  0.
          6    2    1    2  501    0  0.59502962104E+02  0.32846992292E+02  0.14665080453E+02  0.18674408760E+03  0.17331694166E+03 0.  0.
         24    2    5    5    0    0  0.56703893404E+02 -0.25699160031E+02  0.54684064784E+02  0.11561676624E+03  0.80629469427E+02 0.  0.
          5    1    5    5  501    0  0.27990686998E+01  0.58546152324E+02 -0.40018984331E+02  0.71127321364E+02  0.47000000000E+01 0. -1.
        -11    1    6    6    0    0 -0.16950423559E+01 -0.19216177290E+02 -0.15022026029E+02  0.24449865117E+02  0.00000000000E+00 0.  1.
         12    1    6    6    0    0  0.58398935760E+02 -0.64829827414E+01  0.69706090814E+02  0.91166901119E+02  0.00000000000E+00 0. -1.
         -5    1    3    3    0  503 -0.46201018807E+02  0.20695508848E+02  0.30234656382E+02  0.59152875431E+02  0.47000000000E+01 0.  1.
         13    1    4    4    0    0 -0.15356082203E+02  0.17695201369E+02 -0.22672915862E+02  0.32603535480E+02  0.00000000000E+00 0. -1.
        -14    1    4    4    0    0  0.20541389059E+01 -0.71237702510E+02 -0.78963256436E+02  0.10636834873E+03  0.00000000000E+00 0.  1.
</event>
<event>
12    1  0.8113184E-002  0.2293826E+03  0.7818608E-02  0.1127689E+00
         21   -1    0    0  503  502  0.00000000000E+00  0.00000000000E+00  0.64624584868E+02  0.64624584868E+02  0.00000000000E+00 0.  1.
         21   -1    0    0  501  503 -0.00000000000E+00 -0.00000000000E+00 -0.80490414270E+03  0.80490414270E+03  0.00000000000E+00 0. -1.
          6    2    1    2  501    0 -0.15183092194E+03  0.11083228413E+02 -0.39354412569E+03  0.45378623228E+03  0.16694160338E+03 0.  0.
         24    2    3    3    0    0 -0.12242243167E+02 -0.10332905329E+02 -0.11180253514E+03  0.13859729867E+03  0.80329091154E+02 0.  0.
         -6    2    1    2    0  502  0.15183092194E+03 -0.11083228413E+02 -0.34673543214E+03  0.41574249528E+03  0.17158349476E+03 0.  0.
        -24    2    5    5    0    0  0.44309557886E+02 -0.57702023574E+02 -0.20743416618E+03  0.23364063234E+03  0.79159025611E+02 0.  0.
          5    1    3    3  501    0 -0.13958867877E+03  0.21416133742E+02 -0.28174159055E+03  0.31518893361E+03  0.47000000000E+01 0. -1.
        -11    1    4    4    0    0 -0.36912720976E+02 -0.24850240774E+02 -0.34936262948E+02  0.56574074496E+02  0.00000000000E+00 0.  1.
         12    1    4    4    0    0  0.24670477809E+02  0.14517335445E+02 -0.76866272188E+02  0.82023224174E+02  0.00000000000E+00 0. -1.
         -5    1    5    5    0  502  0.10752136405E+03  0.46618795161E+02 -0.13930126596E+03  0.18210186294E+03  0.47000000000E+01 0.  1.
         11    1    6    6    0    0  0.62719775429E+02 -0.26231918847E+02 -0.10676707724E+03  0.12657445468E+03  0.00000000000E+00 0. -1.
        -12    1    6    6    0    0 -0.18410217543E+02 -0.31470104727E+02 -0.10066708894E+03  0.10706617766E+03  0.00000000000E+00 0.  1.
</event>
<event>
12    1  0.8113184E-002  0.2349033E+03  0.7818608E-02  0.1123320E+00
         21   -1    0    0  501  502  0.00000000000E+00  0.00000000000E+00  0.14963417657E+04  0.14963417657E+04  0.00000000000E+00 0. -1.
         21   -1    0    0  502  503 -0.00000000000E+00 -0.00000000000E+00 -0.87188305313E+02  0.87188305313E+02  0.00000000000E+00 0.  1.
         -6    2    1    2    0  503 -0.53712589114E+02 -0.15041903901E+03  0.10234905143E+03  0.25578110845E+03  0.17157423345E+03 0.  0.
        -24    2    3    3    0    0 -0.78446311661E+01 -0.14252252486E+03  0.10917933348E+03  0.20850566816E+03  0.10573683588E+03 0.  0.
          6    2    1    2  501    0  0.53712589114E+02  0.15041903901E+03  0.13068044090E+04  0.13277489626E+04  0.17224579761E+03 0.  0.
         24    2    5    5    0    0  0.19709907803E+02  0.15889094117E+03  0.78101127992E+03  0.80076845059E+03  0.74944515751E+02 0.  0.
          5    1    5    5  501    0  0.34002681311E+02 -0.84719021556E+01  0.52579312904E+03  0.52698051199E+03  0.47000000000E+01 0. -1.
        -11    1    6    6    0    0  0.40831438577E+01  0.85607644477E+02  0.24527773470E+03  0.25982014547E+03  0.00000000000E+00 0.  1.
         12    1    6    6    0    0  0.15626763946E+02  0.73283296693E+02  0.53573354523E+03  0.54094830512E+03  0.00000000000E+00 0. -1.
         -5    1    3    3    0  503 -0.45867957948E+02 -0.78965141513E+01 -0.68302820508E+01  0.47275440294E+02  0.47000000000E+01 0.  1.
         13    1    4    4    0    0 -0.48586789346E+02 -0.31502762449E+02  0.48785442006E+02  0.75717365859E+02  0.00000000000E+00 0. -1.
        -14    1    4    4    0    0  0.40742158180E+02 -0.11101976241E+03  0.60393891478E+02  0.13278830230E+03  0.00000000000E+00 0.  1.
</event>
<event>
12    1  0.8113184E-002  0.2262914E+03  0.7818608E-02  0.1129311E+00
         21   -1    0    0  501  502  0.00000000000E+00  0.00000000000E+00  0.65681568584E+03  0.65681568584E+03  0.00000000000E+00 0.  1.
         21   -1    0    0  502  503 -0.00000000000E+00 -0.00000000000E+00 -0.35742485502E+03  0.35742485502E+03  0.00000000000E+00 0.  1.
         -6    2    1    2    0  503 -0.93721719690E+02 -0.11241990934E+03 -0.29878373247E+03  0.37469335201E+03  0.17234091939E+03 0.  0.
        -24    2    3    3    0    0  0.15659705177E+02 -0.18428804557E+02 -0.92329665821E+02  0.12281243666E+03  0.77286998927E+02 0.  0.
          6    2    1    2  501    0  0.93721719690E+02  0.11241990934E+03  0.59817456330E+03  0.63954718885E+03  0.17258563622E+03 0.  0.
         24    2    5    5    0    0  0.89838408026E+02  0.23492585531E+02  0.22084151109E+03  0.25182890025E+03  0.77614308261E+02 0.  0.
          5    1    5    5  501    0  0.38833116641E+01  0.88927323812E+02  0.37733305220E+03  0.38771828860E+03  0.47000000000E+01 0. -1.
        -13    1    6    6    0    0  0.42691783716E+02 -0.26116079522E+02  0.11935168137E+03  0.12941971199E+03  0.00000000000E+00 0.  1.
         14    1    6    6    0    0  0.47146624309E+02  0.49608665053E+02  0.10148982972E+03  0.12240918826E+03  0.00000000000E+00 0. -1.
         -5    1    3    3    0  503 -0.10938142487E+03 -0.93991104786E+02 -0.20645406665E+03  0.25188091536E+03  0.47000000000E+01 0.  1.
         13    1    4    4    0    0 -0.30892551796E+02 -0.74065102999E+00 -0.30455760802E+02  0.43387229532E+02  0.00000000000E+00 0. -1.
        -14    1    4    4    0    0  0.46552256972E+02 -0.17688153527E+02 -0.61873905018E+02  0.79425207124E+02  0.00000000000E+00 0.  1.
</event>
<event>
12    1  0.8113184E-002  0.1879359E+03  0.7818608E-02  0.1161951E+00
         21   -1    0    0  503  502  0.00000000000E+00  0.00000000000E+00  0.26460684806E+03  0.26460684806E+03  0.00000000000E+00 0.  1.
         21   -1    0    0  501  503 -0.00000000000E+00 -0.00000000000E+00 -0.16977648144E+03  0.16977648144E+03  0.00000000000E+00 0.  1.
          6    2    1    2  501    0 -0.72627490109E+02  0.18654822011E+02 -0.60189926170E+02  0.19076231582E+03  0.16475642391E+03 0.  0.
         24    2    3    3    0    0  0.14172960364E+02  0.39361082970E+02 -0.39002334559E+02  0.98925114842E+02  0.80714488089E+02 0.  0.
         -6    2    1    2    0  502  0.72627490109E+02 -0.18654822011E+02  0.15502029280E+03  0.24362101368E+03  0.17232861754E+03 0.  0.
        -24    2    5    5    0    0  0.15505374278E+02  0.53018367747E+02  0.78502471893E+02  0.12413440705E+03  0.78710539137E+02 0.  0.
          5    1    3    3  501    0 -0.86800450473E+02 -0.20706260959E+02 -0.21187591611E+02  0.91837200978E+02  0.47000000000E+01 0. -1.
        -11    1    4    4    0    0 -0.29265596822E+02 -0.37804171670E+01 -0.97839268654E+01  0.31088453422E+02  0.00000000000E+00 0.  1.
         12    1    4    4    0    0  0.43438557186E+02  0.43141500137E+02 -0.29218407694E+02  0.67836661420E+02  0.00000000000E+00 0. -1.
         -5    1    5    5    0  502  0.57122115831E+02 -0.71673189758E+02  0.76517820904E+02  0.11948660663E+03  0.47000000000E+01 0.  1.
         11    1    6    6    0    0 -0.11496397997E+02  0.56175522527E+01 -0.12593567633E+02  0.17953328548E+02  0.00000000000E+00 0. -1.
        -12    1    6    6    0    0  0.27001772275E+02  0.47400815494E+02  0.91096039526E+02  0.10618107851E+03  0.00000000000E+00 0.  1.
</event>
<event>
12    1  0.8113184E-002  0.1931919E+03  0.7818608E-02  0.1155814E+00
         21   -1    0    0  503  502  0.00000000000E+00  0.00000000000E+00  0.35224841116E+04  0.35224841116E+04  0.00000000000E+00 0. -1.
         21   -1    0    0  501  503 -0.00000000000E+00 -0.00000000000E+00 -0.12059108233E+02  0.12059108233E+02  0.00000000000E+00 0.  1.
          6    2    1    2  501    0  0.77029635406E+02 -0.41804689108E+02  0.11328084346E+04  0.11491640732E+04  0.17216829221E+03 0.  0.
         24    2    3    3    0    0  0.30035824635E+02  0.41425921440E+02  0.47314984085E+03  0.48260027048E+03  0.80087398728E+02 0.  0.
         -6    2    1    2    0  502 -0.77029635406E+02  0.41804689108E+02  0.23776165687E+04  0.23853791466E+04  0.17114884871E+03 0.  0.
        -24    2    5    5    0    0 -0.11404854388E+03  0.37841130966E+02  0.21284247058E+04  0.21333775912E+04  0.81665150585E+02 0.  0.
          5    1    3    3  501    0  0.46993810772E+02 -0.83230610547E+02  0.65965859379E+03  0.66656380276E+03  0.47000000000E+01 0. -1.
        -11    1    4    4    0    0  0.56135172576E+02  0.23748465654E+02  0.36078799404E+03  0.36590042890E+03  0.00000000000E+00 0.  1.
         12    1    4    4    0    0 -0.26099347941E+02  0.17677455785E+02  0.11236184681E+03  0.11669984158E+03  0.00000000000E+00 0. -1.
         -5    1    5    5    0  502  0.37018908474E+02  0.39635581413E+01  0.24919186288E+03  0.25200155536E+03  0.47000000000E+01 0.  1.
         11    1    6    6    0    0 -0.81853384270E+02  0.14286782906E+01  0.17398340615E+04  0.17417590474E+04  0.00000000000E+00 0. -1.
        -12    1    6    6    0    0 -0.32195159611E+02  0.36412452676E+02  0.38859064438E+03  0.39161854388E+03  0.00000000000E+00 0.  1.
</event>
<event>
12    1  0.8113184E-002  0.2342038E+03  0.7818608E-02  0.1123840E+00
         21   -1    0    0  501  502  0.00000000000E+00  0.00000000000E+00  0.18187455433E+03  0.18187455433E+03  0.00000000000E+00 0.  1.
         21   -1    0    0  502  503 -0.00000000000E+00 -0.00000000000E+00 -0.36562296013E+03  0.36562296013E+03  0.00000000000E+00 0.  1.
         -6    2    1    2    0  503  0.61000949369E+02  0.14740692378E+03 -0.20737987897E+03  0.31282239618E+03  0.17146871536E+03 0.  0.
        -24    2    3    3    0    0  0.25873912910E+02  0.33700006772E+02 -0.23645898658E+02  0.93862497598E+02  0.80286300863E+02 0.  0.
          6    2    1    2  501    0 -0.61000949369E+02 -0.14740692378E+03  0.23631473169E+02  0.23467511828E+03  0.17048181021E+03 0.  0.
         24    2    5    5    0    0  0.96295300511E+01 -0.34815199678E+02  0.47827463556E+02  0.99497098944E+02  0.79419018191E+02 0.  0.
          5    1    5    5  501    0 -0.70630479420E+02 -0.11259172410E+03 -0.24195990387E+02  0.13517801933E+03  0.47000000000E+01 0. -1.
        -11    1    6    6    0    0  0.11015993009E+01 -0.50465378800E+02  0.59625754005E+02  0.78122970496E+02  0.00000000000E+00 0.  1.
         12    1    6    6    0    0  0.85279307503E+01  0.15650179122E+02 -0.11798290449E+02  0.21374128448E+02  0.00000000000E+00 0. -1.
         -5    1    3    3    0  503  0.35127036459E+02  0.11370691701E+03 -0.18373398031E+03  0.21895989858E+03  0.47000000000E+01 0.  1.
         11    1    4    4    0    0 -0.97282713079E+01 -0.14729528206E+02 -0.28537880903E+02  0.33556056238E+02  0.00000000000E+00 0. -1.
        -12    1    4    4    0    0  0.35602184218E+02  0.48429534978E+02  0.48919822442E+01  0.60306441360E+02  0.00000000000E+00 0.  1.
</event>
<event>
12    1  0.8113184E-002  0.2033964E+03  0.7818608E-02  0.1147100E+00
         21   -1    0    0  503  502  0.00000000000E+00  0.00000000000E+00  0.33348736708E+03  0.33348736708E+03  0.00000000000E+00 0.  1.
         21   -1    0    0  501  503 -0.00000000000E+00 -0.00000000000E+00 -0.13192819913E+03  0.13192819913E+03  0.00000000000E+00 0. -1.
          6    2    1    2  501    0  0.96479030175E+02  0.45834372289E+02  0.15945227324E+03  0.25770639676E+03  0.17198420434E+03 0.  0.
         24    2    3    3    0    0  0.54556638025E+02  0.90175585907E+02  0.71314041596E+02  0.15040277117E+03  0.80170056753E+02 0.  0.
         -6    2    1    2    0  502 -0.96479030175E+02 -0.45834372289E+02  0.42106894718E+02  0.20770916945E+03  0.17309279461E+03 0.  0.
        -24    2    5    5    0    0 -0.12122527869E+03 -0.27337549341E+01  0.46668697737E+01  0.14530816385E+03  0.79935231266E+02 0.  0.
          5    1    3    3  501    0  0.41922392150E+02 -0.44341213617E+02  0.88138231643E+02  0.10730362559E+03  0.47000000000E+01 0. -1.
        -11    1    4    4    0    0 -0.94222438299E+00  0.31940727646E+02  0.61571726500E+02  0.69369844843E+02  0.00000000000E+00 0.  1.
         12    1    4    4    0    0  0.55498862408E+02  0.58234858260E+02  0.97423150958E+01  0.81032926324E+02  0.00000000000E+00 0. -1.
         -5    1    5    5    0  502  0.24746248519E+02 -0.43100617355E+02  0.37440024944E+02  0.62401005601E+02  0.47000000000E+01 0.  1.
         13    1    6    6    0    0 -0.11459813308E+03 -0.23705155206E+02 -0.12105920726E+02  0.11764871358E+03  0.00000000000E+00 0. -1.
        -14    1    6    6    0    0 -0.66271456104E+01  0.20971400272E+02  0.16772790499E+02  0.27659450274E+02  0.00000000000E+00 0.  1.
</event>
<event>
12    1  0.8113184E-002  0.2707123E+03  0.7818608E-02  0.1101004E+00
         21   -1    0    0  503  502  0.00000000000E+00  0.00000000000E+00  0.13686528386E+03  0.13686528386E+03  0.00000000000E+00 0. -1.
         21   -1    0    0  501  503 -0.00000000000E+00 -0.00000000000E+00 -0.59371889184E+03  0.59371889184E+03  0.00000000000E+00 0.  1.
          6    2    1    2  501    0 -0.25338375184E+01 -0.20845098294E+03 -0.34428442145E+03  0.43740001915E+03  0.17125647804E+03 0.  0.
         24    2    3    3    0    0 -0.35314988106E+02 -0.53752585352E+02 -0.18156884227E+03  0.21045366478E+03  0.84776245019E+02 0.  0.
         -6    2    1    2    0  502  0.25338375184E+01  0.20845098294E+03 -0.11256918653E+03  0.29318415656E+03  0.17270464752E+03 0.  0.
        -24    2    5    5    0    0 -0.51886691081E+01  0.66948040890E+02 -0.10843531342E+03  0.15133247830E+03  0.81451453784E+02 0.  0.
          5    1    3    3  501    0  0.32781150587E+02 -0.15469839759E+03 -0.16271557918E+03  0.22694635436E+03  0.47000000000E+01 0. -1.
        -11    1    4    4    0    0 -0.52855559366E+02 -0.61932419836E+02 -0.11348038765E+03  0.13966793893E+03  0.00000000000E+00 0.  1.
         12    1    4    4    0    0  0.17540571260E+02  0.81798344838E+01 -0.68088454620E+02  0.70785725855E+02  0.00000000000E+00 0. -1.
         -5    1    5    5    0  502  0.77225066265E+01  0.14150294205E+03 -0.41338731103E+01  0.14185167826E+03  0.47000000000E+01 0.  1.
         11    1    6    6    0    0 -0.19308769372E+02  0.45526676994E+01  0.55693704575E+01  0.20605175203E+02  0.00000000000E+00 0. -1.
        -12    1    6    6    0    0  0.14120100264E+02  0.62395373190E+02 -0.11400468388E+03  0.13072730309E+03  0.00000000000E+00 0.  1.
</event>
<event>
12    1  0.8113184E-002  0.1977159E+03  0.7818608E-02  0.1151943E+00
         21   -1    0    0  501  502  0.00000000000E+00  0.00000000000E+00  0.13698417807E+03  0.13698417807E+03  0.00000000000E+00 0. -1.
         21   -1    0    0  502  503 -0.00000000000E+00 -0.00000000000E+00 -0.28570443038E+03  0.28570443038E+03  0.00000000000E+00 0.  1.
         -6    2    1    2    0  503  0.50357787061E+02  0.79083108891E+02 -0.92664209633E+02  0.21835347478E+03  0.17407337352E+03 0.  0.
        -24    2    3    3    0    0 -0.20395548555E+02  0.79164904970E+02 -0.16023504351E+02  0.11394117235E+03  0.77735303983E+02 0.  0.
          6    2    1    2  501    0 -0.50357787061E+02 -0.79083108891E+02 -0.56056042677E+02  0.20433513368E+03  0.17268619546E+03 0.  0.
         24    2    5    5    0    0  0.44104727190E+02 -0.54374043433E+02 -0.11359984002E+02  0.96847775463E+02  0.65944513160E+02 0.  0.
          5    1    5    5  501    0 -0.94462514251E+02 -0.24709065458E+02 -0.44696058675E+02  0.10748735821E+03  0.47000000000E+01 0. -1.
        -11    1    6    6    0    0  0.25629852187E+02 -0.31735203452E+02 -0.39137609449E+02  0.56531097059E+02  0.00000000000E+00 0.  1.
         12    1    6    6    0    0  0.18474875003E+02 -0.22638839981E+02  0.27777625447E+02  0.40316678404E+02  0.00000000000E+00 0. -1.
         -5    1    3    3    0  503  0.70753335616E+02 -0.81796078886E-01 -0.76640705282E+02  0.10441230242E+03  0.47000000000E+01 0.  1.
         13    1    4    4    0    0  0.16251350231E+02  0.25712248146E+02  0.23139400226E+02  0.38218554812E+02  0.00000000000E+00 0. -1.
        -14    1    4    4    0    0 -0.36646898786E+02  0.53452656823E+02 -0.39162904577E+02  0.75722617539E+02  0.00000000000E+00 0.  1.
</event>
<event>
12    1  0.8113184E-002  0.1821116E+03  0.7818608E-02  0.1165959E+00
         21   -1    0    0  501  502  0.00000000000E+00  0.00000000000E+00  0.57823092658E+03  0.57823092658E+03  0.00000000000E+00 0. -1.
         21   -1    0    0  502  503 -0.00000000000E+00 -0.00000000000E+00 -0.79582427144E+02  0.79582427144E+02  0.00000000000E+00 0. -1.
         -6    2    1    2    0  503 -0.44153655860E+02 -0.39543444835E+02  0.74937511203E+02  0.19692709406E+03  0.17219587810E+03 0.  0.
        -24    2    3    3    0    0  0.38596023448E+02 -0.89359829390E+01  0.15768965319E+02  0.90591150133E+02  0.79928664434E+02 0.  0.
          6    2    1    2  501    0  0.44153655860E+02  0.39543444835E+02  0.42371098823E+03  0.46088625966E+03  0.17138236035E+03 0.  0.
         24    2    5    5    0    0 -0.75505022365E+01  0.80304260160E+02  0.21724353725E+03  0.24412449563E+03  0.76786916893E+02 0.  0.
          5    1    5    5  501    0  0.51704158096E+02 -0.40760815325E+02  0.20646745098E+03  0.21676176403E+03  0.47000000000E+01 0. -1.
        -11    1    6    6    0    0  0.13829638112E+02  0.76362652208E+02  0.20494612392E+03  0.21914704482E+03  0.00000000000E+00 0.  1.
         12    1    6    6    0    0 -0.21380140348E+02  0.39416079524E+01  0.12297413334E+02  0.24977450816E+02  0.00000000000E+00 0. -1.
         -5    1    3    3    0  503 -0.82749679308E+02 -0.30607461896E+02  0.59168545884E+02  0.10633594393E+03  0.47000000000E+01 0.  1.
         13    1    4    4    0    0  0.23549398296E+02  0.30668362359E+02 -0.11338336199E+02  0.40294918758E+02  0.00000000000E+00 0. -1.
        -14    1    4    4    0    0  0.15046625152E+02 -0.39604345298E+02  0.27107301519E+02  0.50296231376E+02  0.00000000000E+00 0.  1.
</event>
