<event>
12    1  0.2576962E-002  0.1784612E+03  0.7818608E-02  0.1169301E+00
          1   -1    0    0  502    0  0.00000000000E+00  0.00000000000E+00  0.20924407198E+03  0.20924407198E+03  0.00000000000E+00 0.  1.
         -1   -1    0    0    0  501 -0.00000000000E+00 -0.00000000000E+00 -0.15817026142E+03  0.15817026142E+03  0.00000000000E+00 0. -1.
          6    2    1    2  502    0 -0.28955466093E+02 -0.37279429277E+02 -0.10094069944E+02  0.17902517087E+03  0.17239474091E+03 0.  0.
         24    2    3    3    0    0  0.40448418048E+02 -0.56263629040E+02 -0.21442349734E+02  0.10603083939E+03  0.77337533349E+02 0.  0.
         -6    2    1    2    0  501  0.28955466093E+02  0.37279429277E+02  0.61167880503E+02  0.18838916252E+03  0.17181615782E+03 0.  0.
        -24    2    5    5    0    0 -0.31872193313E+02 -0.26786046573E+02  0.38093884698E+02  0.96962204646E+02  0.78849198353E+02 0.  0.
          5    1    3    3  502    0 -0.69403884141E+02  0.18984199763E+02  0.11348279790E+02  0.72994331483E+02  0.47000000000E+01 0. -1.
        -11    1    4    4    0    0  0.42775796432E+02 -0.18879618050E+02 -0.42392453755E+02  0.63113618764E+02  0.00000000000E+00 0.  1.
         12    1    4    4    0    0 -0.23273783844E+01 -0.37384010990E+02  0.20950104021E+02  0.42917220627E+02  0.00000000000E+00 0. -1.
         -5    1    5    5    0  501  0.60827659406E+02  0.64065475849E+02  0.23073995805E+02  0.91426957879E+02  0.47000000000E+01 0.  1.
         13    1    6    6    0    0  0.71313283732E+01 -0.43484843355E+02  0.31164152255E+02  0.53972139403E+02  0.00000000000E+00 0. -1.
        -14    1    6    6    0    0 -0.39003521686E+02  0.16698796782E+02  0.69297324430E+01  0.42990065243E+02  0.00000000000E+00 0.  1.
</event>
<event>
12    1  0.2576962E-002  0.2015613E+03  0.7818608E-02  0.1148428E+00
          4   -1    0    0  502    0  0.00000000000E+00  0.00000000000E+00  0.16884104971E+03  0.16884104971E+03  0.00000000000E+00 0.  1.
         -4   -1    0    0    0  501 -0.00000000000E+00 -0.00000000000E+00 -0.24876726404E+03  0.24876726404E+03  0.00000000000E+00 0. -1.
          6    2    1    2  502    0  0.80775945631E+02 -0.67049244178E+02 -0.19005449413E+01  0.19990663074E+03  0.17011376901E+03 0.  0.
         24    2    3    3    0    0  0.33244215413E+02 -0.16730910804E+02 -0.62526559311E+02  0.10777192681E+03  0.79499159450E+02 0.  0.
         -6    2    1    2    0  501 -0.80775945631E+02  0.67049244178E+02 -0.78025669385E+02  0.21770168301E+03  0.17402776550E+03 0.  0.
        -24    2    5    5    0    0 -0.31736298266E+02 -0.33215383416E+02 -0.29247061723E+02  0.95802851490E+02  0.78818407819E+02 0.  0.
          5    1    3    3  502    0  0.47531730218E+02 -0.50318333374E+02  0.60626014370E+02  0.92134703936E+02  0.47000000000E+01 0. -1.
        -13    1    4    4    0    0 -0.19221421671E+02  0.16706619539E+02 -0.15887325345E+02  0.30016350446E+02  0.00000000000E+00 0.  1.
         14    1    4    4    0    0  0.52465637084E+02 -0.33437530343E+02 -0.46639233967E+02  0.77755576360E+02  0.00000000000E+00 0. -1.
         -5    1    5    5    0  501 -0.49039647365E+02  0.10026462759E+03 -0.48778607662E+02  0.12189883152E+03  0.47000000000E+01 0.  1.
         13    1    6    6    0    0  0.11981964062E+02 -0.10068082458E+02  0.20404031396E+02  0.25714942044E+02  0.00000000000E+00 0. -1.
        -14    1    6    6    0    0 -0.43718262327E+02 -0.23147300959E+02 -0.49651093119E+02  0.70087909446E+02  0.00000000000E+00 0.  1.
</event>
<event>
12    1  0.2576962E-002  0.2316812E+03  0.7818608E-02  0.1125462E+00
         -1   -1    0    0    0  501 -0.00000000000E+00  0.00000000000E+00  0.22772709124E+03  0.22772709124E+03  0.00000000000E+00 0. -1.
          1   -1    0    0  502    0  0.00000000000E+00 -0.00000000000E+00 -0.31799131781E+03  0.31799131781E+03  0.00000000000E+00 0.  1.
          6    2    1    2  502    0 -0.12457330341E+03 -0.90414693000E+02 -0.18378041037E+03  0.29491431336E+03  0.17177278118E+03 0.  0.
         24    2    3    3    0    0 -0.49422410842E+02 -0.62814660661E+02 -0.22563253139E+02  0.11485187912E+03  0.79332196852E+02 0.  0.
         -6    2    1    2    0  501  0.12457330341E+03  0.90414693000E+02  0.93516183801E+02  0.25080409568E+03  0.17453966067E+03 0.  0.
        -24    2    5    5    0    0  0.76187975625E+02  0.12145829630E+03  0.99518783697E+02  0.19281300623E+03  0.81952069483E+02 0.  0.
          5    1    3    3  502    0 -0.75150892572E+02 -0.27600032339E+02 -0.16121715723E+03  0.18006243424E+03  0.47000000000E+01 0. -1.
        -11    1    4    4    0    0  0.75152481884E+01 -0.37880690287E+02 -0.34233755279E+02  0.51607903004E+02  0.00000000000E+00 0.  1.
         12    1    4    4    0    0 -0.56937659031E+02 -0.24933970374E+02  0.11670502141E+02  0.63243976114E+02  0.00000000000E+00 0. -1.
         -5    1    5    5    0  501  0.48385327790E+02 -0.31043603297E+02 -0.60025998955E+01  0.57991089458E+02  0.47000000000E+01 0.  1.
         11    1    6    6    0    0  0.47810824153E+02  0.10050510309E+03  0.30657726078E+02  0.11544282924E+03  0.00000000000E+00 0. -1.
        -12    1    6    6    0    0  0.28377151472E+02  0.20953193204E+02  0.68861057618E+02  0.77370176990E+02  0.00000000000E+00 0.  1.
</event>
<event>
12    1  0.2576962E-002  0.2148918E+03  0.7818608E-02  0.1137750E+00
          1   -1    0    0  502    0  0.00000000000E+00  0.00000000000E+00  0.39398177916E+03  0.39398177916E+03  0.00000000000E+00 0. -1.
         -1   -1    0    0    0  501 -0.00000000000E+00 -0.00000000000E+00 -0.13964171661E+03  0.13964171661E+03  0.00000000000E+00 0.  1.
          6    2    1    2  502    0  0.72159493962E+02 -0.10433280248E+03  0.20190371298E+02  0.21575434729E+03  0.17334924586E+03 0.  0.
         24    2    3    3    0    0  0.19915184481E+02 -0.13209731992E+03  0.17459145823E+02  0.15634150445E+03  0.79319151148E+02 0.  0.
         -6    2    1    2    0  501 -0.72159493962E+02  0.10433280248E+03  0.23414969125E+03  0.31786914848E+03  0.17355803467E+03 0.  0.
        -24    2    5    5    0    0 -0.10540630563E+03  0.75456946934E+02  0.22652943401E+03  0.27293226118E+03  0.79826027166E+02 0.  0.
          5    1    3    3  502    0  0.52244309482E+02  0.27764517436E+02  0.27312254752E+01  0.59412842840E+02  0.47000000000E+01 0. -1.
        -13    1    4    4    0    0  0.36347933200E+02 -0.67015801404E+02 -0.20872096312E+02  0.79043875728E+02  0.00000000000E+00 0.  1.
         14    1    4    4    0    0 -0.16432748719E+02 -0.65081518511E+02  0.38331242135E+02  0.77297628720E+02  0.00000000000E+00 0. -1.
         -5    1    5    5    0  501  0.33246811672E+02  0.28875855544E+02  0.76202572485E+01  0.44936887301E+02  0.47000000000E+01 0.  1.
         13    1    6    6    0    0 -0.46798934074E+02  0.18384174714E+02  0.15929740390E+03  0.16704424862E+03  0.00000000000E+00 0. -1.
        -14    1    6    6    0    0 -0.58607371560E+02  0.57072772221E+02  0.67232030110E+02  0.10588801256E+03  0.00000000000E+00 0.  1.
</event>
<event>
12    1  0.2576962E-002  0.1782082E+03  0.7818608E-02  0.1169548E+00
          2   -1    0    0  502    0  0.00000000000E+00  0.00000000000E+00  0.12321475512E+04  0.12321475512E+04  0.00000000000E+00 0.  1.
         -2   -1    0    0    0  501 -0.00000000000E+00 -0.00000000000E+00 -0.41613748510E+02  0.41613748510E+02  0.00000000000E+00 0. -1.
          6    2    1    2  502    0  0.34201413428E+01  0.46630390392E+02  0.20191522810E+03  0.26917216758E+03  0.17174925266E+03 0.  0.
         24    2    3    3    0    0  0.53033322641E+01  0.19314758611E+02  0.22027318807E+03  0.23587359642E+03  0.81944437719E+02 0.  0.
         -6    2    1    2    0  501 -0.34201413428E+01 -0.46630390392E+02  0.98861857460E+03  0.10045891321E+04  0.17218172868E+03 0.  0.
        -24    2    5    5    0    0 -0.42939997322E+02  0.25774499282E+02  0.44269738010E+03  0.45245117142E+03  0.78885511883E+02 0.  0.
          5    1    3    3  502    0 -0.18831909213E+01  0.27315631781E+02 -0.18357959965E+02  0.33298571166E+02  0.47000000000E+01 0. -1.
        -13    1    4    4    0    0 -0.18359763916E+02 -0.26784196720E+02  0.89462054373E+02  0.95173175304E+02  0.00000000000E+00 0.  1.
         14    1    4    4    0    0  0.23663096180E+02  0.46098955331E+02  0.13081113369E+03  0.14070042111E+03  0.00000000000E+00 0. -1.
         -5    1    5    5    0  501  0.39519855979E+02 -0.72404889674E+02  0.54592119450E+03  0.55213796072E+03  0.47000000000E+01 0.  1.
         11    1    6    6    0    0 -0.18317564029E+01 -0.26666426147E+02  0.11853450832E+03  0.12151083605E+03  0.00000000000E+00 0. -1.
        -12    1    6    6    0    0 -0.41108240919E+02  0.52440925429E+02  0.32416287178E+03  0.33094033537E+03  0.00000000000E+00 0.  1.
</event>
<event>
12    1  0.2576962E-002  0.2333778E+03  0.7818608E-02  0.1124285E+00
          2   -1    0    0  502    0  0.00000000000E+00  0.00000000000E+00  0.29085030629E+02  0.29085030629E+02  0.00000000000E+00 0.  1.
         -2   -1    0    0    0  501 -0.00000000000E+00 -0.00000000000E+00 -0.19413776462E+04  0.19413776462E+04  0.00000000000E+00 0. -1.
          6    2    1    2  502    0 -0.10293172860E+03  0.12392935648E+03 -0.76671435391E+03  0.80114779966E+03  0.16743198696E+03 0.  0.
         24    2    3    3    0    0 -0.51856301735E+02  0.10092045841E+03 -0.70117422808E+03  0.71480136538E+03  0.80135378324E+02 0.  0.
         -6    2    1    2    0  501  0.10293172860E+03 -0.12392935648E+03 -0.11455782617E+04  0.11693148772E+04  0.17027713361E+03 0.  0.
        -24    2    5    5    0    0  0.55610081045E+02 -0.89509449147E+02 -0.10411852838E+04  0.10495482200E+04  0.79876456186E+02 0.  0.
          5    1    3    3  502    0 -0.51075426865E+02  0.23008898071E+02 -0.65540125821E+02  0.86346434278E+02  0.47000000000E+01 0. -1.
        -13    1    4    4    0    0 -0.59900552151E+02  0.87784248489E+02 -0.42108032856E+03  0.43428423127E+03  0.00000000000E+00 0.  1.
         14    1    4    4    0    0  0.80442504163E+01  0.13136209921E+02 -0.28009389952E+03  0.28051713410E+03  0.00000000000E+00 0. -1.
         -5    1    5    5    0  501  0.47321647555E+02 -0.34419907334E+02 -0.10439297785E+03  0.11976665718E+03  0.47000000000E+01 0.  1.
         13    1    6    6    0    0 -0.22803833475E+01 -0.91046120945E+01 -0.45150185298E+03  0.45159939920E+03  0.00000000000E+00 0. -1.
        -14    1    6    6    0    0  0.57890464393E+02 -0.80404837052E+02 -0.58968343083E+03  0.59794882079E+03  0.00000000000E+00 0.  1.
</event>
<event>
12    1  0.2576962E-002  0.2161154E+03  0.7818608E-02  0.1136813E+00
          1   -1    0    0  502    0  0.00000000000E+00  0.00000000000E+00  0.56593468727E+02  0.56593468727E+02  0.00000000000E+00 0. -1.
         -1   -1    0    0    0  501 -0.00000000000E+00 -0.00000000000E+00 -0.11806145059E+04  0.11806145059E+04  0.00000000000E+00 0.  1.
          6    2    1    2  502    0 -0.12220122677E+03  0.41121672246E+02 -0.89969376462E+03  0.92507170561E+03  0.17229236399E+03 0.  0.
         24    2    3    3    0    0 -0.64401031043E+02  0.66296970782E+02 -0.32990975243E+03  0.35179117322E+03  0.79836105067E+02 0.  0.
         -6    2    1    2    0  501  0.12220122677E+03 -0.41121672246E+02 -0.22432727258E+03  0.31213626903E+03  0.17459150458E+03 0.  0.
        -24    2    5    5    0    0 -0.59638870857E+01  0.83792150815E+00 -0.64590886355E+02  0.10303173297E+03  0.80045520408E+02 0.  0.
          5    1    3    3  502    0 -0.57800195726E+02 -0.25175298535E+02 -0.56978401218E+03  0.57328053239E+03  0.47000000000E+01 0. -1.
        -11    1    4    4    0    0 -0.22620393617E+02 -0.21273367108E+00 -0.19000164837E+03  0.19134354927E+03  0.00000000000E+00 0.  1.
         12    1    4    4    0    0 -0.41780637426E+02  0.66509704453E+02 -0.13990810406E+03  0.16044762395E+03  0.00000000000E+00 0. -1.
         -5    1    5    5    0  501  0.12816511385E+03 -0.41959593755E+02 -0.15973638622E+03  0.20910453606E+03  0.47000000000E+01 0.  1.
         11    1    6    6    0    0 -0.12809406709E+02 -0.24029229839E+02  0.59940071173E+01  0.27882125245E+02  0.00000000000E+00 0. -1.
        -12    1    6    6    0    0  0.68455196230E+01  0.24867151347E+02 -0.70584893472E+02  0.75149607727E+02  0.00000000000E+00 0.  1.
</event>
<event>
12    1  0.2576962E-002  0.2232829E+03  0.7818608E-02  0.1131459E+00
          2   -1    0    0  502    0  0.00000000000E+00  0.00000000000E+00  0.42943150108E+04  0.42943150108E+04  0.00000000000E+00 0. -1.
         -2   -1    0    0    0  501 -0.00000000000E+00 -0.00000000000E+00 -0.21288621337E+02  0.21288621337E+02  0.00000000000E+00 0.  1.
          6    2    1    2  502    0 -0.13467357591E+03  0.44072745263E+02  0.35941876128E+04  0.36011487750E+04  0.17322968798E+03 0.  0.
         24    2    3    3    0    0 -0.14019602518E+03  0.26496958659E+02  0.35396158268E+04  0.35433597142E+04  0.78491073537E+02 0.  0.
         -6    2    1    2    0  501  0.13467357591E+03 -0.44072745263E+02  0.67883877664E+03  0.71445485711E+03  0.17188449393E+03 0.  0.
        -24    2    5    5    0    0  0.23483401850E+02  0.13062017888E+02  0.16845089906E+03  0.18895936564E+03  0.81288683081E+02 0.  0.
          5    1    3    3  502    0  0.55224492756E+01  0.17575786604E+02  0.54571785970E+02  0.57789060770E+02  0.47000000000E+01 0. -1.
        -11    1    4    4    0    0  0.32476306552E+01 -0.10659246602E+02  0.51069334401E+03  0.51081489628E+03  0.00000000000E+00 0.  1.
         12    1    4    4    0    0 -0.14344365584E+03  0.37156205261E+02  0.30289224828E+04  0.30325448179E+04  0.00000000000E+00 0. -1.
         -5    1    5    5    0  501  0.11119017405E+03 -0.57134763151E+02  0.51038787758E+03  0.52549549146E+03  0.47000000000E+01 0.  1.
         13    1    6    6    0    0 -0.26623352942E+02  0.12088499944E+02  0.99580533684E+02  0.10378447592E+03  0.00000000000E+00 0. -1.
        -14    1    6    6    0    0  0.50106754792E+02  0.97351794418E+00  0.68870365375E+02  0.85174889727E+02  0.00000000000E+00 0.  1.
</event>
<event>
12    1  0.2576962E-002  0.1727947E+03  0.7818608E-02  0.1174964E+00
         -2   -1    0    0    0  501 -0.00000000000E+00  0.00000000000E+00  0.12432531420E+03  0.12432531420E+03  0.00000000000E+00 0.  1.
          2   -1    0    0  502    0  0.00000000000E+00 -0.00000000000E+00 -0.28331348904E+03  0.28331348904E+03  0.00000000000E+00 0. -1.
          6    2    1    2  502    0 -0.29388082858E+02 -0.12543292683E+02 -0.15840830343E+03  0.23326961203E+03  0.16822760682E+03 0.  0.
         24    2    3    3    0    0  0.44594872132E+02  0.83710494629E+01 -0.76960952598E+02  0.12116854917E+03  0.81853845319E+02 0.  0.
         -6    2    1    2    0  501  0.29388082858E+02  0.12543292683E+02 -0.57987141422E+00  0.17436919121E+03  0.17141553310E+03 0.  0.
        -24    2    5    5    0    0  0.26044912899E+02  0.64195920436E+02 -0.35754236546E+02  0.11161174781E+03  0.79870915422E+02 0.  0.
          5    1    3    3  502    0 -0.73982954991E+02 -0.20914342145E+02 -0.81447350834E+02  0.11210106286E+03  0.47000000000E+01 0. -1.
        -11    1    4    4    0    0 -0.10562994527E+02  0.20230076435E+02  0.33032527099E+01  0.23059582052E+02  0.00000000000E+00 0.  1.
         12    1    4    4    0    0  0.55157866660E+02 -0.11859026972E+02 -0.80264205308E+02  0.98108967118E+02  0.00000000000E+00 0. -1.
         -5    1    5    5    0  501  0.33431699590E+01 -0.51652627753E+02  0.35174365131E+02  0.62757443396E+02  0.47000000000E+01 0.  1.
         13    1    6    6    0    0 -0.71357796202E+00  0.47050239171E+01 -0.45419239428E+02  0.45667863468E+02  0.00000000000E+00 0. -1.
        -14    1    6    6    0    0  0.26758490861E+02  0.59490896519E+02  0.96650028821E+01  0.65943884345E+02  0.00000000000E+00 0.  1.
</event>
<event>
12    1  0.2576962E-002  0.1817694E+03  0.7818608E-02  0.1166102E+00
         -2   -1    0    0    0  501 -0.00000000000E+00  0.00000000000E+00  0.28160712986E+02  0.28160712986E+02  0.00000000000E+00 0. -1.
          2   -1    0    0  502    0  0.00000000000E+00 -0.00000000000E+00 -0.13437160097E+04  0.13437160097E+04  0.00000000000E+00 0.  1.
          6    2    1    2  502    0 -0.51609301466E+02  0.25532764379E+02 -0.41463437720E+03  0.45287391837E+03  0.17279374156E+03 0.  0.
         24    2    3    3    0    0 -0.84491781850E+02  0.15574968626E+02 -0.39702456787E+03  0.41398162354E+03  0.79817518661E+02 0.  0.
         -6    2    1    2    0  501  0.51609301466E+02 -0.25532764379E+02 -0.90092091956E+03  0.91900280437E+03  0.17202386195E+03 0.  0.
        -24    2    5    5    0    0 -0.17381174974E+02 -0.49142470292E+02 -0.67532475318E+03  0.68186819209E+03  0.78508735202E+02 0.  0.
          5    1    3    3  502    0  0.32882480384E+02  0.99577957527E+01 -0.17609809334E+02  0.38892294831E+02  0.47000000000E+01 0. -1.
        -13    1    4    4    0    0 -0.49184327683E+02 -0.17980599125E+01 -0.75936742886E+02  0.90491546728E+02  0.00000000000E+00 0.  1.
         14    1    4    4    0    0 -0.35307454167E+02  0.17373028539E+02 -0.32108782498E+03  0.32349007681E+03  0.00000000000E+00 0. -1.
         -5    1    5    5    0  501  0.68990476441E+02  0.23609705913E+02 -0.22559616638E+03  0.23713461227E+03  0.47000000000E+01 0.  1.
         11    1    6    6    0    0 -0.20736791784E+02 -0.35460822860E+01 -0.42777240428E+02  0.47670552039E+02  0.00000000000E+00 0. -1.
        -12    1    6    6    0    0  0.33556168099E+01 -0.45596388006E+02 -0.63254751275E+03  0.63419764005E+03  0.00000000000E+00 0.  1.
</event>
<event>
12    1  0.2576962E-002  0.2027050E+03  0.7818608E-02  0.1147477E+00
         -2   -1    0    0    0  501 -0.00000000000E+00  0.00000000000E+00  0.37518207809E+03  0.37518207809E+03  0.00000000000E+00 0.  1.
          2   -1    0    0  502    0  0.00000000000E+00 -0.00000000000E+00 -0.11108398794E+03  0.11108398794E+03  0.00000000000E+00 0. -1.
          6    2    1    2  502    0  0.44157329921E+02 -0.93911584722E+02  0.10421487654E+03  0.22927928487E+03  0.17589483917E+03 0.  0.
         24    2    3    3    0    0  0.85757057253E+02 -0.66513485384E+02  0.11619579373E+03  0.17783197650E+03  0.79651947741E+02 0.  0.
         -6    2    1    2    0  501 -0.44157329921E+02  0.93911584722E+02  0.15988321362E+03  0.25698678116E+03  0.17236678381E+03 0.  0.
        -24    2    5    5    0    0 -0.74439657836E+02  0.74973018758E+02  0.17453313896E+03  0.21809720701E+03  0.77086697357E+02 0.  0.
          5    1    3    3  502    0 -0.41599727332E+02 -0.27398099338E+02 -0.11980917194E+02  0.51447308367E+02  0.47000000000E+01 0. -1.
        -11    1    4    4    0    0 -0.13342893978E+02 -0.22559480091E+02  0.22843582051E+02  0.34767689060E+02  0.00000000000E+00 0.  1.
         12    1    4    4    0    0  0.99099951232E+02 -0.43954005294E+02  0.93352211679E+02  0.14306428744E+03  0.00000000000E+00 0. -1.
         -5    1    5    5    0  501  0.30282327915E+02  0.18938565964E+02 -0.14649925346E+02  0.38889574147E+02  0.47000000000E+01 0.  1.
         11    1    6    6    0    0 -0.11714716518E+02 -0.88708977617E+01  0.15388104800E+00  0.14695274396E+02  0.00000000000E+00 0. -1.
        -12    1    6    6    0    0 -0.62724941319E+02  0.83843916520E+02  0.17437925791E+03  0.20340193261E+03  0.00000000000E+00 0.  1.
</event>
<event>
12    1  0.2576962E-002  0.2141854E+03  0.7818608E-02  0.1138294E+00
          1   -1    0    0  502    0  0.00000000000E+00  0.00000000000E+00  0.24611519718E+03  0.24611519718E+03  0.00000000000E+00 0.  1.
         -1   -1    0    0    0  501 -0.00000000000E+00 -0.00000000000E+00 -0.18660298462E+03  0.18660298462E+03  0.00000000000E+00 0. -1.
          6    2    1    2  502    0  0.11677167308E+03 -0.48949385437E+02  0.22519293245E+02  0.21436393703E+03  0.17150251591E+03 0.  0.
         24    2    3    3    0    0  0.11651417417E+03 -0.77916417199E+02  0.55847457882E+02  0.16995659763E+03  0.78229059009E+02 0.  0.
         -6    2    1    2    0  501 -0.11677167308E+03  0.48949385437E+02  0.36992919311E+02  0.21835424477E+03  0.17400699458E+03 0.  0.
        -24    2    5    5    0    0 -0.86710236240E+02  0.35208369820E+02 -0.43925341145E+02  0.13081933533E+03  0.80162138995E+02 0.  0.
          5    1    3    3  502    0  0.25749890877E+00  0.28967031762E+02 -0.33328164636E+02  0.44407339403E+02  0.47000000000E+01 0. -1.
        -11    1    4    4    0    0  0.36237482607E+02 -0.37212759876E+02  0.60613199304E+02  0.79824210445E+02  0.00000000000E+00 0.  1.
         12    1    4    4    0    0  0.80276691566E+02 -0.40703657322E+02 -0.47657414221E+01  0.90132387184E+02  0.00000000000E+00 0. -1.
         -5    1    5    5    0  501 -0.30061436842E+02  0.13741015616E+02  0.80918260456E+02  0.87534909438E+02  0.47000000000E+01 0.  1.
         11    1    6    6    0    0 -0.11512658406E+02  0.44732486777E+02 -0.25708531561E+02  0.52862702086E+02  0.00000000000E+00 0. -1.
        -12    1    6    6    0    0 -0.75197577834E+02 -0.95241169564E+01 -0.18216809585E+02  0.77956633248E+02  0.00000000000E+00 0.  1.
</event>
<event>
12    1  0.2576962E-002  0.1816521E+03  0.7818608E-02  0.1166214E+00
         -1   -1    0    0    0  501 -0.00000000000E+00  0.00000000000E+00  0.51178000279E+02  0.51178000279E+02  0.00000000000E+00 0.  1.
          1   -1    0    0  502    0  0.00000000000E+00 -0.00000000000E+00 -0.64581168450E+03  0.64581168450E+03  0.00000000000E+00 0. -1.
          6    2    1    2  502    0 -0.21385388052E+02  0.55205060559E+02 -0.31066460849E+03  0.35965983253E+03  0.17128269800E+03 0.  0.
         24    2    3    3    0    0  0.46867359343E+02 -0.28245607376E+01 -0.16588186796E+03  0.18933659151E+03  0.78275304235E+02 0.  0.
         -6    2    1    2    0  501  0.21385388052E+02 -0.55205060559E+02 -0.28396907573E+03  0.33732985225E+03  0.17218611940E+03 0.  0.
        -24    2    5    5    0    0 -0.26156080623E+00  0.12530665499E+02 -0.24412977139E+03  0.25568440443E+03  0.74953875133E+02 0.  0.
          5    1    3    3  502    0 -0.68252747396E+02  0.58029621297E+02 -0.14478274053E+03  0.17032324102E+03  0.47000000000E+01 0. -1.
        -11    1    4    4    0    0 -0.16109579967E+02 -0.19442199549E+02 -0.35155587689E+02  0.43283172663E+02  0.00000000000E+00 0.  1.
         12    1    4    4    0    0  0.62976939311E+02  0.16617638811E+02 -0.13072628027E+03  0.14605341885E+03  0.00000000000E+00 0. -1.
         -5    1    5    5    0  501  0.21646948859E+02 -0.67735726058E+02 -0.39839304345E+02  0.81645447823E+02  0.47000000000E+01 0.  1.
         11    1    6    6    0    0 -0.30289913359E+02  0.19016529165E+02 -0.19093724286E+03  0.19425791604E+03  0.00000000000E+00 0. -1.
        -12    1    6    6    0    0  0.30028352552E+02 -0.64858636665E+01 -0.53192528527E+02  0.61426488387E+02  0.00000000000E+00 0.  1.
</event>
<event>
12    1  0.2576962E-002  0.2403396E+03  0.7818608E-02  0.1119567E+00
          1   -1    0    0  502    0  0.00000000000E+00  0.00000000000E+00  0.37659962415E+03  0.37659962415E+03  0.00000000000E+00 0. -1.
         -1   -1    0    0    0  501 -0.00000000000E+00 -0.00000000000E+00 -0.29563143287E+03  0.29563143287E+03  0.00000000000E+00 0.  1.
          6    2    1    2  502    0  0.10572211667E+03 -0.12881474933E+03 -0.19267238513E+03  0.30800158703E+03  0.17312401343E+03 0.  0.
         24    2    3    3    0    0  0.28785829396E+02 -0.28212036194E+02 -0.14855627514E+03  0.17380613498E+03  0.80715938407E+02 0.  0.
         -6    2    1    2    0  501 -0.10572211667E+03  0.12881474933E+03  0.27364057641E+03  0.36422947000E+03  0.17324415188E+03 0.  0.
        -24    2    5    5    0    0 -0.44984971596E+02  0.61737982427E+01  0.16789044568E+03  0.19121217657E+03  0.79455215462E+02 0.  0.
          5    1    3    3  502    0  0.76936287272E+02 -0.10060271314E+03 -0.44116109981E+02  0.13419545205E+03  0.47000000000E+01 0. -1.
        -13    1    4    4    0    0  0.35535780822E+02 -0.44575460654E+02 -0.14492876619E+03  0.15573731306E+03  0.00000000000E+00 0.  1.
         14    1    4    4    0    0 -0.67499514267E+01  0.16363424460E+02 -0.36275089542E+01  0.18068821919E+02  0.00000000000E+00 0. -1.
         -5    1    5    5    0  501 -0.60737145071E+02  0.12264095109E+03  0.10575013073E+03  0.17301729343E+03  0.47000000000E+01 0.  1.
         11    1    6    6    0    0 -0.66660265548E+02  0.31600815760E+01  0.10298787052E+03  0.12271951187E+03  0.00000000000E+00 0. -1.
        -12    1    6    6    0    0  0.21675293951E+02  0.30137166667E+01  0.64902575154E+02  0.68492664699E+02  0.00000000000E+00 0.  1.
</event>
<event>
12    1  0.2576962E-002  0.2707129E+03  0.7818608E-02  0.1100872E+00
         -2   -1    0    0    0  501 -0.00000000000E+00  0.00000000000E+00  0.14311446970E+03  0.14311446970E+03  0.00000000000E+00 0.  1.
          2   -1    0    0  502    0  0.00000000000E+00 -0.00000000000E+00 -0.52978279409E+03  0.52978279409E+03  0.00000000000E+00 0. -1.
          6    2    1    2  502    0 -0.20002732361E+03 -0.60556084147E+02 -0.25455521325E+03  0.37129484969E+03  0.17141627488E+03 0.  0.
         24    2    3    3    0    0 -0.15274562733E+03 -0.53335357821E+02 -0.26640000011E+03  0.32179649954E+03  0.80050858818E+02 0.  0.
         -6    2    1    2    0  501  0.20002732361E+03  0.60556084147E+02 -0.13211311114E+03  0.30160241410E+03  0.17271992514E+03 0.  0.
        -24    2    5    5    0    0  0.15554397004E+03 -0.36367658327E+01 -0.13876977087E+03  0.22307922102E+03  0.79373401470E+02 0.  0.
          5    1    3    3  502    0 -0.47281696276E+02 -0.72207263261E+01  0.11844786855E+02  0.49498350145E+02  0.47000000000E+01 0. -1.
        -11    1    4    4    0    0 -0.10293062802E+03 -0.61069752754E+02 -0.13162904785E+03  0.17790569165E+03  0.00000000000E+00 0.  1.
         12    1    4    4    0    0 -0.49814999313E+02  0.77343949340E+01 -0.13477095226E+03  0.14389080789E+03  0.00000000000E+00 0. -1.
         -5    1    5    5    0  501  0.44483353567E+02  0.64192849979E+02  0.66566597376E+01  0.78523193083E+02  0.47000000000E+01 0.  1.
         11    1    6    6    0    0  0.22221074329E+02 -0.27447766382E+02 -0.11260414746E+02  0.37066871515E+02  0.00000000000E+00 0. -1.
        -12    1    6    6    0    0  0.13332289571E+03  0.23811000549E+02 -0.12750935613E+03  0.18601234950E+03  0.00000000000E+00 0.  1.
</event>
<event>
12    1  0.2806178E-002  0.2022303E+03  0.7818608E-02  0.1147871E+00
         -3   -1    0    0    0  501 -0.00000000000E+00  0.00000000000E+00  0.43858532136E+02  0.43858532136E+02  0.00000000000E+00 0. -1.
          3   -1    0    0  502    0  0.00000000000E+00 -0.00000000000E+00 -0.95983330418E+03  0.95983330418E+03  0.00000000000E+00 0.  1.
          6    2    1    2  502    0  0.52296709522E+02 -0.74179021464E+02 -0.55843238164E+03  0.59685543935E+03  0.19013736498E+03 0.  0.
         24    2    3    3    0    0 -0.23952464266E+02 -0.26421490210E+01 -0.38740925862E+03  0.39634993013E+03  0.80166276872E+02 0.  0.
         -6    2    1    2    0  501 -0.52296709522E+02  0.74179021464E+02 -0.35754239041E+03  0.40683639697E+03  0.17158618800E+03 0.  0.
        -24    2    5    5    0    0  0.36545715779E+02  0.35951655716E+02 -0.15241637195E+03  0.18000368003E+03  0.80885496208E+02 0.  0.
          5    1    3    3  502    0  0.76249173787E+02 -0.71536872443E+02 -0.17102312301E+03  0.20050550922E+03  0.47000000000E+01 0. -1.
        -13    1    4    4    0    0  0.86460782118E+01 -0.41535287200E+01 -0.33131442118E+03  0.33145324278E+03  0.00000000000E+00 0.  1.
         14    1    4    4    0    0 -0.32598542478E+02  0.15113796991E+01 -0.56094837442E+02  0.64896687342E+02  0.00000000000E+00 0. -1.
         -5    1    5    5    0  501 -0.88842425301E+02  0.38227365748E+02 -0.20512601846E+03  0.22683271694E+03  0.47000000000E+01 0.  1.
         13    1    6    6    0    0  0.26164843284E+02  0.34064871557E+02 -0.20374390844E+02  0.47540827722E+02  0.00000000000E+00 0. -1.
        -14    1    6    6    0    0  0.10380872495E+02  0.18867841592E+01 -0.13204198111E+03  0.13246285231E+03  0.00000000000E+00 0.  1.
</event>
<event>
12    1  0.2576962E-002  0.1677499E+03  0.7818608E-02  0.1180215E+00
          2   -1    0    0  502    0  0.00000000000E+00  0.00000000000E+00  0.27022325181E+03  0.27022325181E+03  0.00000000000E+00 0. -1.
         -2   -1    0    0    0  501 -0.00000000000E+00 -0.00000000000E+00 -0.11260958995E+03  0.11260958995E+03  0.00000000000E+00 0.  1.
          6    2    1    2  502    0 -0.58211331333E+01  0.85785329475E+01  0.28219972850E+02  0.17407056915E+03  0.17145471518E+03 0.  0.
         24    2    3    3    0    0 -0.31952792676E+02 -0.47810745227E+02  0.47418282426E+02  0.10885339799E+03  0.79332971881E+02 0.  0.
         -6    2    1    2    0  501  0.58211331333E+01 -0.85785329475E+01  0.12939368901E+03  0.20876227260E+03  0.16349765407E+03 0.  0.
        -24    2    5    5    0    0  0.43344147002E+02  0.23514230935E+02  0.12933709972E+03  0.15916373164E+03  0.78570821360E+02 0.  0.
          5    1    3    3  502    0  0.26131659543E+02  0.56389278175E+02 -0.19198309576E+02  0.65217171160E+02  0.47000000000E+01 0. -1.
        -13    1    4    4    0    0 -0.30904467937E+02 -0.25371502553E-01 -0.11509709015E+02  0.32978177387E+02  0.00000000000E+00 0.  1.
         14    1    4    4    0    0 -0.10483247392E+01 -0.47785373725E+02  0.58927991440E+02  0.75875220606E+02  0.00000000000E+00 0. -1.
         -5    1    5    5    0  501 -0.37523013868E+02 -0.32092763883E+02  0.56589291666E-01  0.49598540964E+02  0.47000000000E+01 0.  1.
         11    1    6    6    0    0  0.61171109491E+02  0.33696722927E+02  0.11337373957E+03  0.13315772076E+03  0.00000000000E+00 0. -1.
        -12    1    6    6    0    0 -0.17826962489E+02 -0.10182491992E+02  0.15963360146E+02  0.26006010880E+02  0.00000000000E+00 0.  1.
</event>
<event>
12    1  0.2576962E-002  0.1897020E+03  0.7818608E-02  0.1158730E+00
          2   -1    0    0  502    0  0.00000000000E+00  0.00000000000E+00  0.89935992915E+03  0.89935992915E+03  0.00000000000E+00 0. -1.
         -2   -1    0    0    0  501 -0.00000000000E+00 -0.00000000000E+00 -0.40074553613E+02  0.40074553613E+02  0.00000000000E+00 0.  1.
          6    2    1    2  502    0 -0.65439481727E+02  0.53619797990E+02  0.41512815677E+03  0.45704599721E+03  0.17147083868E+03 0.  0.
         24    2    3    3    0    0 -0.55362231014E+02  0.10177330909E+03  0.28704516754E+03  0.31975923986E+03  0.80176431703E+02 0.  0.
         -6    2    1    2    0  501  0.65439481727E+02 -0.53619797990E+02  0.44415721877E+03  0.48238848555E+03  0.16812378626E+03 0.  0.
        -24    2    5    5    0    0 -0.15587116890E+01 -0.77890122420E+02  0.20825497140E+03  0.23591380758E+03  0.78840920474E+02 0.  0.
          5    1    3    3  502    0 -0.10077250713E+02 -0.48153511105E+02  0.12808298924E+03  0.13728675736E+03  0.47000000000E+01 0. -1.
        -13    1    4    4    0    0  0.20287433629E+02  0.21076301676E+02  0.76994785577E+02  0.82364965014E+02  0.00000000000E+00 0.  1.
         14    1    4    4    0    0 -0.75649664643E+02  0.80697007419E+02  0.21005038196E+03  0.23739427484E+03  0.00000000000E+00 0. -1.
         -5    1    5    5    0  501  0.66998193416E+02  0.24270324430E+02  0.23590224737E+03  0.24647467797E+03  0.47000000000E+01 0.  1.
         13    1    6    6    0    0 -0.10412272216E+02  0.19852134770E+01  0.10271052630E+03  0.10325603469E+03  0.00000000000E+00 0. -1.
        -14    1    6    6    0    0  0.88535605266E+01 -0.79875335897E+02  0.10554444509E+03  0.13265777289E+03  0.00000000000E+00 0.  1.
</event>
<event>
12    1  0.2576962E-002  0.1874808E+03  0.7818608E-02  0.1160753E+00
          1   -1    0    0  502    0  0.00000000000E+00  0.00000000000E+00  0.90343573659E+03  0.90343573659E+03  0.00000000000E+00 0.  1.
         -1   -1    0    0    0  501 -0.00000000000E+00 -0.00000000000E+00 -0.39231506011E+02  0.39231506011E+02  0.00000000000E+00 0. -1.
          6    2    1    2  502    0  0.59861047996E+02  0.44488523353E+02  0.47200249635E+03  0.50740553990E+03  0.17062078298E+03 0.  0.
         24    2    3    3    0    0  0.11259513381E+03  0.23890596571E+02  0.32888696468E+03  0.35342728235E+03  0.59125152070E+02 0.  0.
         -6    2    1    2    0  501 -0.59861047996E+02 -0.44488523353E+02  0.39220173423E+03  0.43526170270E+03  0.17340119875E+03 0.  0.
        -24    2    5    5    0    0  0.11487544321E+02 -0.16891900479E+02  0.82481065040E+02  0.11619873377E+03  0.79257300379E+02 0.  0.
          5    1    3    3  502    0 -0.52734085816E+02  0.20597926783E+02  0.14311553167E+03  0.15397825755E+03  0.47000000000E+01 0. -1.
        -13    1    4    4    0    0  0.20604579537E+02  0.15366087263E+02  0.14903410134E+03  0.15123435026E+03  0.00000000000E+00 0.  1.
         14    1    4    4    0    0  0.91990554275E+02  0.85245093074E+01  0.17985286334E+03  0.20219293209E+03  0.00000000000E+00 0. -1.
         -5    1    5    5    0  501 -0.71348592317E+02 -0.27596622874E+02  0.30972066919E+03  0.31906296893E+03  0.47000000000E+01 0.  1.
         11    1    6    6    0    0 -0.18117664356E+02  0.23480536559E+02  0.43965421565E+02  0.53033420144E+02  0.00000000000E+00 0. -1.
        -12    1    6    6    0    0  0.29605208677E+02 -0.40372437038E+02  0.38515643476E+02  0.63165313626E+02  0.00000000000E+00 0.  1.
</event>
<event>
12    1  0.2576962E-002  0.1908016E+03  0.7818608E-02  0.1157740E+00
          2   -1    0    0  502    0  0.00000000000E+00  0.00000000000E+00  0.59640654889E+03  0.59640654889E+03  0.00000000000E+00 0. -1.
         -2   -1    0    0    0  501 -0.00000000000E+00 -0.00000000000E+00 -0.64532567191E+02  0.64532567191E+02  0.00000000000E+00 0.  1.
          6    2    1    2  502    0  0.18774371792E+01  0.83078654401E+02  0.18900374465E+03  0.26853155379E+03  0.17170088032E+03 0.  0.
         24    2    3    3    0    0  0.97914023884E+01 -0.22953081595E+02  0.97297622709E+02  0.12804147341E+03  0.79404508770E+02 0.  0.
         -6    2    1    2    0  501 -0.18774371792E+01 -0.83078654401E+02  0.34287023705E+03  0.39240756229E+03  0.17180834643E+03 0.  0.
        -24    2    5    5    0    0 -0.19855811796E+01 -0.95329712395E+02  0.35393240089E+03  0.37524476572E+03  0.80304378466E+02 0.  0.
          5    1    3    3  502    0 -0.79139652092E+01  0.10603173600E+03  0.91706121945E+02  0.14049008038E+03  0.47000000000E+01 0. -1.
        -13    1    4    4    0    0  0.44353524706E+02 -0.17500550497E+02  0.48673282496E+02  0.68136574984E+02  0.00000000000E+00 0.  1.
         14    1    4    4    0    0 -0.34562122318E+02 -0.54525310981E+01  0.48624340213E+02  0.59904898427E+02  0.00000000000E+00 0. -1.
         -5    1    5    5    0  501  0.10814400036E+00  0.12251057995E+02 -0.11062163846E+02  0.17162796569E+02  0.47000000000E+01 0.  1.
         13    1    6    6    0    0  0.36654673922E+02 -0.31293342774E+02  0.16966191834E+03  0.17637461540E+03  0.00000000000E+00 0. -1.
        -14    1    6    6    0    0 -0.38640255102E+02 -0.64036369621E+02  0.18427048255E+03  0.19887015032E+03  0.00000000000E+00 0.  1.
</event>
<event>
12    1  0.2576962E-002  0.2371301E+03  0.7818608E-02  0.1121720E+00
         -2   -1    0    0    0  501 -0.00000000000E+00  0.00000000000E+00  0.51106427979E+02  0.51106427979E+02  0.00000000000E+00 0.  1.
          2   -1    0    0  502    0  0.00000000000E+00 -0.00000000000E+00 -0.11003295488E+04  0.11003295488E+04  0.00000000000E+00 0. -1.
          6    2    1    2  502    0 -0.16225282915E+03  0.17367809563E+02 -0.52040583439E+03  0.57191143210E+03  0.17214189592E+03 0.  0.
         24    2    3    3    0    0 -0.18877156706E+03  0.22398843136E+02 -0.41933785611E+03  0.46719571699E+03  0.79317007668E+02 0.  0.
         -6    2    1    2    0  501  0.16225282915E+03 -0.17367809563E+02 -0.52881728648E+03  0.57952454472E+03  0.17196904976E+03 0.  0.
        -24    2    5    5    0    0  0.65394394848E+02  0.53367592578E+02 -0.23619370793E+03  0.26324033371E+03  0.79896675838E+02 0.  0.
          5    1    3    3  502    0  0.26518737901E+02 -0.50310335734E+01 -0.10106797827E+03  0.10471571511E+03  0.47000000000E+01 0. -1.
        -13    1    4    4    0    0 -0.49037364229E+02  0.15708471941E+02 -0.48055601895E+02  0.70432663265E+02  0.00000000000E+00 0.  1.
         14    1    4    4    0    0 -0.13973420283E+03  0.66903711957E+01 -0.37128225422E+03  0.39676305373E+03  0.00000000000E+00 0. -1.
         -5    1    5    5    0  501  0.96858434305E+02 -0.70735402141E+02 -0.29262357855E+03  0.31628421101E+03  0.47000000000E+01 0.  1.
         11    1    6    6    0    0  0.16505613851E+02  0.11674800269E+02 -0.16924180960E+03  0.17044508314E+03  0.00000000000E+00 0. -1.
        -12    1    6    6    0    0  0.48888780997E+02  0.41692792309E+02 -0.66951898329E+02  0.92795250567E+02  0.00000000000E+00 0.  1.
</event>
<event>
12    1  0.2576962E-002  0.1896756E+03  0.7818608E-02  0.1158754E+00
         -1   -1    0    0    0  501 -0.00000000000E+00  0.00000000000E+00  0.35596040524E+02  0.35596040524E+02  0.00000000000E+00 0.  1.
          1   -1    0    0  502    0  0.00000000000E+00 -0.00000000000E+00 -0.10113592050E+04  0.10113592050E+04  0.00000000000E+00 0. -1.
          6    2    1    2  502    0 -0.45579522004E+02 -0.68074009796E+02 -0.50236807131E+03  0.53714145287E+03  0.17156834698E+03 0.  0.
         24    2    3    3    0    0 -0.86969418271E+02 -0.42728884822E+02 -0.23845141100E+03  0.26875815894E+03  0.77346204024E+02 0.  0.
         -6    2    1    2    0  501  0.45579522004E+02  0.68074009796E+02 -0.47339509312E+03  0.50981379261E+03  0.17057439815E+03 0.  0.
        -24    2    5    5    0    0  0.58439784298E+02  0.10801501632E+03 -0.36416870300E+03  0.39271057041E+03  0.80748348163E+02 0.  0.
          5    1    3    3  502    0  0.41389896266E+02 -0.25345124974E+02 -0.26391666031E+03  0.26838329393E+03  0.47000000000E+01 0. -1.
        -13    1    4    4    0    0 -0.19081997419E+02 -0.48629115121E+01 -0.19250465147E+01  0.19785760990E+02  0.00000000000E+00 0.  1.
         14    1    4    4    0    0 -0.67887420851E+02 -0.37865973310E+02 -0.23652636449E+03  0.24897239795E+03  0.00000000000E+00 0. -1.
         -5    1    5    5    0  501 -0.12860262294E+02 -0.39941006525E+02 -0.10922639013E+03  0.11710322219E+03  0.47000000000E+01 0.  1.
         11    1    6    6    0    0  0.40897671520E+02  0.11068279735E+03 -0.35185271370E+03  0.37111134893E+03  0.00000000000E+00 0. -1.
        -12    1    6    6    0    0  0.17542112778E+02 -0.26677810316E+01 -0.12315989299E+02  0.21599221486E+02  0.00000000000E+00 0.  1.
</event>
<event>
12    1  0.2576962E-002  0.2579377E+03  0.7818608E-02  0.1108389E+00
         -2   -1    0    0    0  501 -0.00000000000E+00  0.00000000000E+00  0.34871618750E+02  0.34871618750E+02  0.00000000000E+00 0.  1.
          2   -1    0    0  502    0  0.00000000000E+00 -0.00000000000E+00 -0.19079134546E+04  0.19079134546E+04  0.00000000000E+00 0. -1.
          6    2    1    2  502    0 -0.28388347101E+02 -0.18954684620E+03 -0.93493279638E+03  0.96985683219E+03  0.17259500589E+03 0.  0.
         24    2    3    3    0    0  0.48004487680E+02 -0.76827533593E+02 -0.47430466710E+03  0.48950084741E+03  0.80245009961E+02 0.  0.
         -6    2    1    2    0  501  0.28388347101E+02  0.18954684620E+03 -0.93810903949E+03  0.97292824117E+03  0.17264671251E+03 0.  0.
        -24    2    5    5    0    0  0.26943881437E+02  0.19947527076E+03 -0.93711994096E+03  0.96180491383E+03  0.79740530056E+02 0.  0.
          5    1    3    3  502    0 -0.76392834781E+02 -0.11271931261E+03 -0.46062812927E+03  0.48035598478E+03  0.47000000000E+01 0. -1.
        -13    1    4    4    0    0  0.32416352385E+00  0.12039979904E+02 -0.13471536340E+03  0.13525270915E+03  0.00000000000E+00 0.  1.
         14    1    4    4    0    0  0.47680324156E+02 -0.88867513496E+02 -0.33958930371E+03  0.35424813826E+03  0.00000000000E+00 0. -1.
         -5    1    5    5    0  501  0.14444656639E+01 -0.99284245589E+01 -0.98909853223E+00  0.11123327343E+02  0.47000000000E+01 0.  1.
         13    1    6    6    0    0  0.22954188519E+02  0.14072019318E+03 -0.47470300439E+03  0.49565311450E+03  0.00000000000E+00 0. -1.
        -14    1    6    6    0    0  0.39896929180E+01  0.58755077582E+02 -0.46241693657E+03  0.46615179933E+03  0.00000000000E+00 0.  1.
</event>
<event>
12    1  0.2576962E-002  0.1902378E+03  0.7818608E-02  0.1158247E+00
          1   -1    0    0  502    0  0.00000000000E+00  0.00000000000E+00  0.37069160266E+02  0.37069160266E+02  0.00000000000E+00 0.  1.
         -1   -1    0    0    0  501 -0.00000000000E+00 -0.00000000000E+00 -0.13368354875E+04  0.13368354875E+04  0.00000000000E+00 0. -1.
          6    2    1    2  502    0  0.81645752021E+02 -0.51804186708E+01 -0.10077942107E+04  0.10256790497E+04  0.17226571413E+03 0.  0.
         24    2    3    3    0    0  0.98984786106E+02 -0.23964634715E+02 -0.97638006960E+03  0.98490617713E+03  0.79685919940E+02 0.  0.
         -6    2    1    2    0  501 -0.81645752021E+02  0.51804186708E+01 -0.29197211654E+03  0.34822559810E+03  0.17123225389E+03 0.  0.
        -24    2    5    5    0    0 -0.11059853295E+03  0.19351718525E+02 -0.15949690541E+03  0.21180396921E+03  0.82553825089E+02 0.  0.
          5    1    3    3  502    0 -0.17339034085E+02  0.18784216044E+02 -0.31414141137E+02  0.40772872584E+02  0.47000000000E+01 0. -1.
        -11    1    4    4    0    0  0.57473525116E+02 -0.20714173388E+02 -0.25084415516E+03  0.25817643821E+03  0.00000000000E+00 0.  1.
         12    1    4    4    0    0  0.41511260990E+02 -0.32504613265E+01 -0.72553591444E+03  0.72672973892E+03  0.00000000000E+00 0. -1.
         -5    1    5    5    0  501  0.28952780933E+02 -0.14171299854E+02 -0.13247521114E+03  0.13642162889E+03  0.47000000000E+01 0.  1.
         13    1    6    6    0    0 -0.33778010523E+02  0.42766425670E+02 -0.91849705294E+02  0.10680023184E+03  0.00000000000E+00 0. -1.
        -14    1    6    6    0    0 -0.76820522432E+02 -0.23414707145E+02 -0.67647200111E+02  0.10500373736E+03  0.00000000000E+00 0.  1.
</event>
<event>
12    1  0.2576962E-002  0.3376129E+03  0.7818608E-02  0.1067817E+00
          1   -1    0    0  502    0  0.00000000000E+00  0.00000000000E+00  0.66894134598E+02  0.66894134598E+02  0.00000000000E+00 0. -1.
         -1   -1    0    0    0  501 -0.00000000000E+00 -0.00000000000E+00 -0.17484628347E+04  0.17484628347E+04  0.00000000000E+00 0.  1.
          6    2    1    2  502    0 -0.23508494588E+03 -0.17182208027E+03 -0.69683203805E+03  0.77447519446E+03  0.17160762960E+03 0.  0.
         24    2    3    3    0    0 -0.37477750831E+02 -0.61165948494E+02 -0.28754920017E+03  0.30668473451E+03  0.78899485444E+02 0.  0.
         -6    2    1    2    0  501  0.23508494588E+03  0.17182208027E+03 -0.98473666208E+03  0.10408817749E+04  0.17012000634E+03 0.  0.
        -24    2    5    5    0    0  0.11440889675E+03  0.16431039937E+03 -0.67278003958E+03  0.70628028278E+03  0.78176423500E+02 0.  0.
          5    1    3    3  502    0 -0.19760719505E+03 -0.11065613177E+03 -0.40928283788E+03  0.46779045995E+03  0.47000000000E+01 0. -1.
        -13    1    4    4    0    0 -0.43586583780E+02 -0.98632501913E+00 -0.15444615707E+03  0.16048170786E+03  0.00000000000E+00 0.  1.
         14    1    4    4    0    0  0.61088329490E+01 -0.60179623475E+02 -0.13310304310E+03  0.14620302666E+03  0.00000000000E+00 0. -1.
         -5    1    5    5    0  501  0.12067604913E+03  0.75116808988E+01 -0.31195662250E+03  0.33460149209E+03  0.47000000000E+01 0.  1.
         11    1    6    6    0    0  0.90069989643E+02  0.11217396177E+03 -0.34999739079E+03  0.37840953251E+03  0.00000000000E+00 0. -1.
        -12    1    6    6    0    0  0.24338907105E+02  0.52136437603E+02 -0.32278264878E+03  0.32787075027E+03  0.00000000000E+00 0.  1.
</event>
<event>
12    1  0.2576962E-002  0.1807269E+03  0.7818608E-02  0.1167101E+00
         -3   -1    0    0    0  501 -0.00000000000E+00  0.00000000000E+00  0.60815391852E+02  0.60815391852E+02  0.00000000000E+00 0. -1.
          3   -1    0    0  502    0  0.00000000000E+00 -0.00000000000E+00 -0.57685047432E+03  0.57685047432E+03  0.00000000000E+00 0.  1.
          6    2    1    2  502    0  0.23510390247E+02 -0.50108405570E+02 -0.34169183824E+03  0.38652492508E+03  0.17200178672E+03 0.  0.
         24    2    3    3    0    0  0.53085490738E+02  0.40546603739E+01 -0.29149404305E+03  0.30683657636E+03  0.79658005618E+02 0.  0.
         -6    2    1    2    0  501 -0.23510390247E+02  0.50108405570E+02 -0.17434324423E+03  0.25114094109E+03  0.17208316223E+03 0.  0.
        -24    2    5    5    0    0 -0.27222596804E+02  0.23497730099E+02 -0.19696925142E+03  0.21570177168E+03  0.80231883955E+02 0.  0.
          5    1    3    3  502    0 -0.29575100491E+02 -0.54163065944E+02 -0.50197795188E+02  0.79688348730E+02  0.47000000000E+01 0. -1.
        -11    1    4    4    0    0  0.70876217284E+02 -0.10121599593E+02 -0.24193217993E+03  0.25230351690E+03  0.00000000000E+00 0.  1.
         12    1    4    4    0    0 -0.17790726546E+02  0.14176259967E+02 -0.49561863118E+02  0.54533059454E+02  0.00000000000E+00 0. -1.
         -5    1    5    5    0  501  0.37122065563E+01  0.26610675471E+02  0.22626007195E+02  0.35439169405E+02  0.47000000000E+01 0.  1.
         13    1    6    6    0    0 -0.16630951964E+02  0.16789127827E+02 -0.60802576112E+01  0.24401493992E+02  0.00000000000E+00 0. -1.
        -14    1    6    6    0    0 -0.10591644840E+02  0.67086022726E+01 -0.19088899381E+03  0.19130027769E+03  0.00000000000E+00 0.  1.
</event>
<event>
12    1  0.2576962E-002  0.2065645E+03  0.7818608E-02  0.1144316E+00
         -1   -1    0    0    0  501 -0.00000000000E+00  0.00000000000E+00  0.45416979381E+03  0.45416979381E+03  0.00000000000E+00 0. -1.
          1   -1    0    0  502    0  0.00000000000E+00 -0.00000000000E+00 -0.95221426670E+02  0.95221426670E+02  0.00000000000E+00 0.  1.
          6    2    1    2  502    0  0.10067683046E+03 -0.66324127064E+02  0.14511466474E+03  0.24967055117E+03  0.16353104958E+03 0.  0.
         24    2    3    3    0    0  0.33526989213E+02 -0.95099103288E+02  0.69645542334E+02  0.14452884264E+03  0.76617141262E+02 0.  0.
         -6    2    1    2    0  501 -0.10067683046E+03  0.66324127064E+02  0.21383370240E+03  0.29972066931E+03  0.17196776822E+03 0.  0.
        -24    2    5    5    0    0 -0.11506340551E+03  0.30570626855E+02  0.21811277457E+03  0.26066062863E+03  0.78718678679E+02 0.  0.
          5    1    3    3  502    0  0.67149841252E+02  0.28774976224E+02  0.75469122411E+02  0.10514170854E+03  0.47000000000E+01 0. -1.
        -11    1    4    4    0    0  0.39045648875E+02 -0.41287549106E+02  0.70345251852E+02  0.90430519546E+02  0.00000000000E+00 0.  1.
         12    1    4    4    0    0 -0.55186596615E+01 -0.53811554181E+02 -0.69970951776E+00  0.54098323091E+02  0.00000000000E+00 0. -1.
         -5    1    5    5    0  501  0.14386575049E+02  0.35753500208E+02 -0.42790721739E+01  0.39060040674E+02  0.47000000000E+01 0.  1.
         11    1    6    6    0    0 -0.91213890908E+02  0.54304786370E+02  0.18593129307E+03  0.21410144665E+03  0.00000000000E+00 0. -1.
        -12    1    6    6    0    0 -0.23849514606E+02 -0.23734159514E+02  0.32181481504E+02  0.46559181979E+02  0.00000000000E+00 0.  1.
</event>
<event>
12    1  0.2576962E-002  0.1979013E+03  0.7818608E-02  0.1151522E+00
         -2   -1    0    0    0  501 -0.00000000000E+00  0.00000000000E+00  0.64638744187E+02  0.64638744187E+02  0.00000000000E+00 0.  1.
          2   -1    0    0  502    0  0.00000000000E+00 -0.00000000000E+00 -0.93476305703E+03  0.93476305703E+03  0.00000000000E+00 0. -1.
          6    2    1    2  502    0 -0.96123530726E+02  0.29092684866E+02 -0.73255429663E+03  0.75901887696E+03  0.17142852911E+03 0.  0.
         24    2    3    3    0    0 -0.90836871875E+02 -0.14676773796E+02 -0.67415124411E+03  0.68569275053E+03  0.85017075991E+02 0.  0.
         -6    2    1    2    0  501  0.96123530726E+02 -0.29092684866E+02 -0.13757001621E+03  0.24038292426E+03  0.16962406504E+03 0.  0.
        -24    2    5    5    0    0  0.10574314863E+03 -0.59310166073E+02 -0.14834853109E+03  0.20656133940E+03  0.77207454140E+02 0.  0.
          5    1    3    3  502    0 -0.52866588509E+01  0.43769458662E+02 -0.58403052519E+02  0.73326126428E+02  0.47000000000E+01 0. -1.
        -11    1    4    4    0    0 -0.73068049317E+02 -0.34638042314E+02 -0.30376385294E+03  0.31434250772E+03  0.00000000000E+00 0.  1.
         12    1    4    4    0    0 -0.17768822558E+02  0.19961268519E+02 -0.37038739118E+03  0.37135024282E+03  0.00000000000E+00 0. -1.
         -5    1    5    5    0  501 -0.96196179062E+01  0.30217481207E+02  0.10778514883E+02  0.33821584857E+02  0.47000000000E+01 0.  1.
         13    1    6    6    0    0  0.46910850725E+02 -0.63283453124E+02 -0.11320741314E+03  0.13791788044E+03  0.00000000000E+00 0. -1.
        -14    1    6    6    0    0  0.58832297907E+02  0.39732870509E+01 -0.35141117952E+02  0.68643458959E+02  0.00000000000E+00 0.  1.
</event>
<event>
12    1  0.2576962E-002  0.1967274E+03  0.7818608E-02  0.1152530E+00
         -2   -1    0    0    0  501 -0.00000000000E+00  0.00000000000E+00  0.16988188576E+03  0.16988188576E+03  0.00000000000E+00 0. -1.
          2   -1    0    0  502    0  0.00000000000E+00 -0.00000000000E+00 -0.30119063012E+03  0.30119063012E+03  0.00000000000E+00 0.  1.
          6    2    1    2  502    0 -0.83683224995E+02 -0.37873577512E+02  0.50872929362E+02  0.20213129025E+03  0.17271859638E+03 0.  0.
         24    2    3    3    0    0 -0.17277746150E+01 -0.68109968102E+02  0.35058756499E+01  0.10264931731E+03  0.76698358652E+02 0.  0.
         -6    2    1    2    0  501  0.83683224995E+02  0.37873577512E+02 -0.18218167373E+03  0.26894122563E+03  0.17521966380E+03 0.  0.
        -24    2    5    5    0    0  0.81223309315E+02  0.88821471587E+00 -0.19834907772E+03  0.22822951726E+03  0.78411357711E+02 0.  0.
          5    1    3    3  502    0 -0.81955450380E+02  0.30236390590E+02  0.47367053713E+02  0.99481972941E+02  0.47000000000E+01 0. -1.
        -11    1    4    4    0    0  0.14698165738E+01 -0.77820674460E+02 -0.17060165320E+02  0.79682287711E+02  0.00000000000E+00 0.  1.
         12    1    4    4    0    0 -0.31975911888E+01  0.97107063576E+01  0.20566040969E+02  0.22967029598E+02  0.00000000000E+00 0. -1.
         -5    1    5    5    0  501  0.24599156791E+01  0.36985362797E+02  0.16167403986E+02  0.40711708365E+02  0.47000000000E+01 0.  1.
         11    1    6    6    0    0  0.18441657861E+01 -0.16548442868E+02 -0.33672396066E+01  0.16987943118E+02  0.00000000000E+00 0. -1.
        -12    1    6    6    0    0  0.79379143529E+02  0.17436657584E+02 -0.19498183811E+03  0.21124157415E+03  0.00000000000E+00 0.  1.
</event>
<event>
12    1  0.2576962E-002  0.1849579E+03  0.7818608E-02  0.1163089E+00
          2   -1    0    0  502    0  0.00000000000E+00  0.00000000000E+00  0.77151909988E+03  0.77151909988E+03  0.00000000000E+00 0. -1.
         -2   -1    0    0    0  501 -0.00000000000E+00 -0.00000000000E+00 -0.44379697070E+02  0.44379697070E+02  0.00000000000E+00 0.  1.
          6    2    1    2  502    0 -0.67259686752E+02 -0.89774646786E+00  0.37537117894E+03  0.41838779456E+03  0.17210506456E+03 0.  0.
         24    2    3    3    0    0  0.18248056287E+02 -0.29635165157E+02  0.24474484579E+03  0.25957110065E+03  0.79157325499E+02 0.  0.
         -6    2    1    2    0  501  0.67259686752E+02  0.89774646786E+00  0.35176822387E+03  0.39751100239E+03  0.17248026636E+03 0.  0.
        -24    2    5    5    0    0  0.74271261542E+01  0.30796159101E+02  0.30382843473E+03  0.31508428482E+03  0.77219318658E+02 0.  0.
          5    1    3    3  502    0 -0.85507743039E+02  0.28737418689E+02  0.13062633315E+03  0.15881669391E+03  0.47000000000E+01 0. -1.
        -13    1    4    4    0    0  0.22416014105E+02  0.84147336972E+01  0.18896038689E+02  0.30501568970E+02  0.00000000000E+00 0.  1.
         14    1    4    4    0    0 -0.41679578179E+01 -0.38049898854E+02  0.22584880710E+03  0.22906953168E+03  0.00000000000E+00 0. -1.
         -5    1    5    5    0  501  0.59832560598E+02 -0.29898412633E+02  0.47939789139E+02  0.82426717564E+02  0.47000000000E+01 0.  1.
         11    1    6    6    0    0  0.30204194488E+02  0.35608019234E+02  0.27007319429E+03  0.27407983266E+03  0.00000000000E+00 0. -1.
        -12    1    6    6    0    0 -0.22777068334E+02 -0.48118601328E+01  0.33755240440E+02  0.41004452161E+02  0.00000000000E+00 0.  1.
</event>
<event>
12    1  0.2576962E-002  0.2164886E+03  0.7818608E-02  0.1136528E+00
          2   -1    0    0  502    0  0.00000000000E+00  0.00000000000E+00  0.11662178198E+04  0.11662178198E+04  0.00000000000E+00 0. -1.
         -2   -1    0    0    0  501 -0.00000000000E+00 -0.00000000000E+00 -0.41784255445E+02  0.41784255445E+02  0.00000000000E+00 0.  1.
          6    2    1    2  502    0 -0.51979642367E+02 -0.12060820773E+03  0.68013614892E+03  0.71374043482E+03  0.17202326654E+03 0.  0.
         24    2    3    3    0    0 -0.10234027723E+03 -0.86769714548E+02  0.50483009951E+03  0.52817228527E+03  0.78166603181E+02 0.  0.
         -6    2    1    2    0  501  0.51979642367E+02  0.12060820773E+03  0.44429741538E+03  0.49426164038E+03  0.17218058207E+03 0.  0.
        -24    2    5    5    0    0  0.84034686995E+02  0.27337563533E+02  0.24218972491E+03  0.26932487703E+03  0.77915695081E+02 0.  0.
          5    1    3    3  502    0  0.50360634863E+02 -0.33838493181E+02  0.17530604942E+03  0.18556814955E+03  0.47000000000E+01 0. -1.
        -13    1    4    4    0    0 -0.49609325914E+02 -0.61249771661E+01  0.97089779597E+02  0.10920176677E+03  0.00000000000E+00 0.  1.
         14    1    4    4    0    0 -0.52730951316E+02 -0.80644737382E+02  0.40774031991E+03  0.41897051850E+03  0.00000000000E+00 0. -1.
         -5    1    5    5    0  501 -0.32055044628E+02  0.93270644195E+02  0.20210769048E+03  0.22493676334E+03  0.47000000000E+01 0.  1.
         11    1    6    6    0    0 -0.12977020627E+02  0.73180499948E+01  0.61350499936E+02  0.63133515366E+02  0.00000000000E+00 0. -1.
        -12    1    6    6    0    0  0.97011707622E+02  0.20019513539E+02  0.18083922497E+03  0.20619136167E+03  0.00000000000E+00 0.  1.
</event>
<event>
12    1  0.2576962E-002  0.3027940E+03  0.7818608E-02  0.1083852E+00
          2   -1    0    0  502    0  0.00000000000E+00  0.00000000000E+00  0.15264126944E+04  0.15264126944E+04  0.00000000000E+00 0.  1.
         -2   -1    0    0    0  501 -0.00000000000E+00 -0.00000000000E+00 -0.71416683101E+02  0.71416683101E+02  0.00000000000E+00 0. -1.
          6    2    1    2  502    0 -0.21789653346E+03 -0.12110444703E+03  0.40930258802E+03  0.50922307473E+03  0.17214628922E+03 0.  0.
         24    2    3    3    0    0 -0.18232062153E+03 -0.14406972765E+03  0.27684477340E+03  0.37008209487E+03  0.79503666089E+02 0.  0.
         -6    2    1    2    0  501  0.21789653346E+03  0.12110444703E+03  0.10456934233E+04  0.10886063028E+04  0.17159184291E+03 0.  0.
        -24    2    5    5    0    0  0.23367747728E+03  0.94424908137E+02  0.98422207937E+03  0.10196015775E+04  0.85866458589E+02 0.  0.
          5    1    3    3  502    0 -0.35575911933E+02  0.22965280620E+02  0.13245781462E+03  0.13914097986E+03  0.47000000000E+01 0. -1.
        -13    1    4    4    0    0 -0.18132829043E+03 -0.12582312537E+03  0.22528692327E+03  0.31538168239E+03  0.00000000000E+00 0.  1.
         14    1    4    4    0    0 -0.99233110140E+00 -0.18246602286E+02  0.51557850125E+02  0.54700412480E+02  0.00000000000E+00 0. -1.
         -5    1    5    5    0  501 -0.15780943822E+02  0.26679538898E+02  0.61471343915E+02  0.69004725247E+02  0.47000000000E+01 0.  1.
         11    1    6    6    0    0  0.11696526672E+03  0.27284193266E+02  0.31835976575E+03  0.34026201855E+03  0.00000000000E+00 0. -1.
        -12    1    6    6    0    0  0.11671221056E+03  0.67140714871E+02  0.66586231362E+03  0.67933955897E+03  0.00000000000E+00 0.  1.
</event>
<event>
12    1  0.2576962E-002  0.2944620E+03  0.7818608E-02  0.1088042E+00
         -2   -1    0    0    0  501 -0.00000000000E+00  0.00000000000E+00  0.52518668321E+02  0.52518668321E+02  0.00000000000E+00 0.  1.
          2   -1    0    0  502    0  0.00000000000E+00 -0.00000000000E+00 -0.17427309641E+04  0.17427309641E+04  0.00000000000E+00 0. -1.
          6    2    1    2  502    0 -0.13345893932E+03  0.19827565556E+03 -0.63944744776E+03  0.70403380860E+03  0.17218025766E+03 0.  0.
         24    2    3    3    0    0 -0.24768631212E+02  0.13288028482E+03 -0.44952852533E+03  0.47560127001E+03  0.76485408781E+02 0.  0.
         -6    2    1    2    0  501  0.13345893932E+03 -0.19827565556E+03 -0.10507648480E+04  0.10912158239E+04  0.17181584403E+03 0.  0.
        -24    2    5    5    0    0  0.15966870858E+03 -0.17081028549E+03 -0.79051507261E+03  0.82816956523E+03  0.79249597006E+02 0.  0.
          5    1    3    3  502    0 -0.10869030811E+03  0.65395370740E+02 -0.18991892243E+03  0.22843253859E+03  0.47000000000E+01 0. -1.
        -13    1    4    4    0    0  0.21780203197E+02  0.63261177533E+02 -0.14367483715E+03  0.15848915630E+03  0.00000000000E+00 0.  1.
         14    1    4    4    0    0 -0.46548834410E+02  0.69619107290E+02 -0.30585368818E+03  0.31711211371E+03  0.00000000000E+00 0. -1.
         -5    1    5    5    0  501 -0.26209769260E+02 -0.27465370072E+02 -0.26024977544E+03  0.26304625862E+03  0.47000000000E+01 0.  1.
         13    1    6    6    0    0  0.17950864529E+02  0.42382139570E+01 -0.10489513708E+03  0.10650439324E+03  0.00000000000E+00 0. -1.
        -14    1    6    6    0    0  0.14171784405E+03 -0.17504849945E+03 -0.68561993552E+03  0.72166517199E+03  0.00000000000E+00 0.  1.
</event>
<event>
12    1  0.2576962E-002  0.1859021E+03  0.7818608E-02  0.1162210E+00
          2   -1    0    0  502    0  0.00000000000E+00  0.00000000000E+00  0.33657189227E+04  0.33657189227E+04  0.00000000000E+00 0. -1.
         -2   -1    0    0    0  501 -0.00000000000E+00 -0.00000000000E+00 -0.10305870800E+02  0.10305870800E+02  0.00000000000E+00 0.  1.
          6    2    1    2  502    0  0.68652992737E+02  0.38046137454E-01  0.17840774835E+04  0.17937864526E+04  0.17327473954E+03 0.  0.
         24    2    3    3    0    0  0.74152233661E+02 -0.56241690326E+02  0.11411059472E+04  0.11483159754E+04  0.88572654500E+02 0.  0.
         -6    2    1    2    0  501 -0.68652992737E+02 -0.38046137454E-01  0.15713355684E+04  0.15822383409E+04  0.17224826325E+03 0.  0.
        -24    2    5    5    0    0  0.60981072825E+01 -0.36644891968E+02  0.11005754122E+04  0.11041536175E+04  0.80677990258E+02 0.  0.
          5    1    3    3  502    0 -0.54992409240E+01  0.56279736463E+02  0.64297153633E+03  0.64547047719E+03  0.47000000000E+01 0. -1.
        -13    1    4    4    0    0  0.56580838932E+02 -0.34165203937E+02  0.32146802768E+03  0.32819254306E+03  0.00000000000E+00 0.  1.
         14    1    4    4    0    0  0.17571394729E+02 -0.22076486389E+02  0.81963791953E+03  0.82012343235E+03  0.00000000000E+00 0. -1.
         -5    1    5    5    0  501 -0.74751100019E+02  0.36606845830E+02  0.47076015619E+03  0.47808472342E+03  0.47000000000E+01 0.  1.
         13    1    6    6    0    0 -0.39405917798E+00  0.18637024674E+02  0.83467601233E+02  0.85523882203E+02  0.00000000000E+00 0. -1.
        -14    1    6    6    0    0  0.64921664604E+01 -0.55281916642E+02  0.10171078109E+04  0.10186297353E+04  0.00000000000E+00 0.  1.
</event>
<event>
12    1  0.2576962E-002  0.2435813E+03  0.7818608E-02  0.1117430E+00
         -1   -1    0    0    0  501 -0.00000000000E+00  0.00000000000E+00  0.43644150564E+02  0.43644150564E+02  0.00000000000E+00 0.  1.
          1   -1    0    0  502    0  0.00000000000E+00 -0.00000000000E+00 -0.21935810729E+04  0.21935810729E+04  0.00000000000E+00 0. -1.
          6    2    1    2  502    0  0.15595330458E+03  0.74679035803E+02 -0.38345182713E+03  0.45393906952E+03  0.17066629283E+03 0.  0.
         24    2    3    3    0    0  0.27844930955E+02  0.52397696700E+02 -0.96480199287E+02  0.13884698988E+03  0.80306904715E+02 0.  0.
         -6    2    1    2    0  501 -0.15595330458E+03 -0.74679035803E+02 -0.17664850952E+04  0.17832861539E+04  0.17245730971E+03 0.  0.
        -24    2    5    5    0    0 -0.17767985471E+03 -0.70363305607E+02 -0.17089601782E+04  0.17214648422E+04  0.79844766675E+02 0.  0.
          5    1    3    3  502    0  0.12810837362E+03  0.22281339103E+02 -0.28697162785E+03  0.31509207964E+03  0.47000000000E+01 0. -1.
        -13    1    4    4    0    0  0.36342704370E+02  0.23790057162E+01 -0.75729310391E+02  0.84032019382E+02  0.00000000000E+00 0.  1.
         14    1    4    4    0    0 -0.84977734145E+01  0.50018690984E+02 -0.20750888896E+02  0.54814970499E+02  0.00000000000E+00 0. -1.
         -5    1    5    5    0  501  0.21726550130E+02 -0.43157301959E+01 -0.57524917028E+02  0.61821311752E+02  0.47000000000E+01 0.  1.
         11    1    6    6    0    0 -0.13655918000E+03 -0.77749012512E+02 -0.11125049360E+04  0.11235481971E+04  0.00000000000E+00 0. -1.
        -12    1    6    6    0    0 -0.41120674703E+02  0.73857069047E+01 -0.59645524215E+03  0.59791664506E+03  0.00000000000E+00 0.  1.
</event>
<event>
12    1  0.2576962E-002  0.1817586E+03  0.7818608E-02  0.1166112E+00
          1   -1    0    0  502    0  0.00000000000E+00  0.00000000000E+00  0.42783002921E+03  0.42783002921E+03  0.00000000000E+00 0. -1.
         -1   -1    0    0    0  501 -0.00000000000E+00 -0.00000000000E+00 -0.77448288836E+02  0.77448288836E+02  0.00000000000E+00 0.  1.
          6    2    1    2  502    0  0.74625823775E+01 -0.66459550559E+02  0.15948938622E+03  0.23999087631E+03  0.16639168970E+03 0.  0.
         24    2    3    3    0    0 -0.39356435525E+02 -0.88801234566E+02  0.92959311040E+02  0.15549524220E+03  0.78120090623E+02 0.  0.
         -6    2    1    2    0  501 -0.74625823775E+01  0.66459550559E+02  0.19089235416E+03  0.26528744174E+03  0.17165364508E+03 0.  0.
        -24    2    5    5    0    0  0.12012232990E+02  0.24896551411E+02  0.17503202918E+02  0.85864368804E+02  0.79386369763E+02 0.  0.
          5    1    3    3  502    0  0.46819017903E+02  0.22341684007E+02  0.66530075176E+02  0.84495634116E+02  0.47000000000E+01 0. -1.
        -11    1    4    4    0    0 -0.25124519113E+02 -0.63599592548E+02  0.11882113145E+02  0.69407018706E+02  0.00000000000E+00 0.  1.
         12    1    4    4    0    0 -0.14231916412E+02 -0.25201642018E+02  0.81077197894E+02  0.86088223489E+02  0.00000000000E+00 0. -1.
         -5    1    5    5    0  501 -0.19474815368E+02  0.41562999148E+02  0.17338915124E+03  0.17942307293E+03  0.47000000000E+01 0.  1.
         13    1    6    6    0    0 -0.17625137040E+02  0.41520915479E+02  0.24260944480E+02  0.51217431652E+02  0.00000000000E+00 0. -1.
        -14    1    6    6    0    0  0.29637370031E+02 -0.16624364068E+02 -0.67577415621E+01  0.34646937152E+02  0.00000000000E+00 0.  1.
</event>
<event>
12    1  0.2576962E-002  0.1946599E+03  0.7818608E-02  0.1154324E+00
         -2   -1    0    0    0  501 -0.00000000000E+00  0.00000000000E+00  0.33761514970E+02  0.33761514970E+02  0.00000000000E+00 0. -1.
          2   -1    0    0  502    0  0.00000000000E+00 -0.00000000000E+00 -0.11247782021E+04  0.11247782021E+04  0.00000000000E+00 0.  1.
          6    2    1    2  502    0 -0.17846105170E+02  0.79533469813E+02 -0.58237418009E+03  0.61615538013E+03  0.18396660169E+03 0.  0.
         24    2    3    3    0    0 -0.66972535597E+02  0.91247455292E+02 -0.31632980478E+03  0.34531903977E+03  0.79807739084E+02 0.  0.
         -6    2    1    2    0  501  0.17846105170E+02 -0.79533469813E+02 -0.50864250704E+03  0.54238433694E+03  0.16976310759E+03 0.  0.
        -24    2    5    5    0    0  0.56434555294E+02 -0.98438689152E+01 -0.18564799757E+03  0.20967838252E+03  0.78854830604E+02 0.  0.
          5    1    3    3  502    0  0.49126430427E+02 -0.11713985479E+02 -0.26604437531E+03  0.27083634036E+03  0.47000000000E+01 0. -1.
        -13    1    4    4    0    0  0.74281822973E+01  0.18490103993E+02 -0.13324452501E+03  0.13472626056E+03  0.00000000000E+00 0.  1.
         14    1    4    4    0    0 -0.74400717895E+02  0.72757351299E+02 -0.18308527977E+03  0.21059277922E+03  0.00000000000E+00 0. -1.
         -5    1    5    5    0  501 -0.38588450124E+02 -0.69689600897E+02 -0.32299450947E+03  0.33270595442E+03  0.47000000000E+01 0.  1.
         13    1    6    6    0    0 -0.29557054584E+01  0.25114168806E+02 -0.76727583706E+02  0.80787250052E+02  0.00000000000E+00 0. -1.
        -14    1    6    6    0    0  0.59390260753E+02 -0.34958037721E+02 -0.10892041386E+03  0.12889113247E+03  0.00000000000E+00 0.  1.
</event>
<event>
12    1  0.2576962E-002  0.2966967E+03  0.7818608E-02  0.1086904E+00
         -2   -1    0    0    0  501 -0.00000000000E+00  0.00000000000E+00  0.68202164274E+02  0.68202164274E+02  0.00000000000E+00 0. -1.
          2   -1    0    0  502    0  0.00000000000E+00 -0.00000000000E+00 -0.20994794503E+04  0.20994794503E+04  0.00000000000E+00 0.  1.
          6    2    1    2  502    0  0.18032977271E+03 -0.15985302310E+03 -0.16877383123E+04  0.17135693368E+04  0.17259039736E+03 0.  0.
         24    2    3    3    0    0  0.15679745260E+03 -0.12943503061E+03 -0.95120112755E+03  0.97601382100E+03  0.80501710752E+02 0.  0.
         -6    2    1    2    0  501 -0.18032977271E+03  0.15985302310E+03 -0.34353897372E+03  0.45411227778E+03  0.17357165219E+03 0.  0.
        -24    2    5    5    0    0 -0.16450101529E+03  0.12056958617E+03 -0.17520953440E+03  0.28047291553E+03  0.79806429962E+02 0.  0.
          5    1    3    3  502    0  0.23532320107E+02 -0.30417992488E+02 -0.73653718472E+03  0.73755551577E+03  0.47000000000E+01 0. -1.
        -13    1    4    4    0    0  0.11852782519E+03 -0.76471226436E+02 -0.47977577969E+03  0.50008148595E+03  0.00000000000E+00 0.  1.
         14    1    4    4    0    0  0.38269627410E+02 -0.52963804179E+02 -0.47142534786E+03  0.47593233505E+03  0.00000000000E+00 0. -1.
         -5    1    5    5    0  501 -0.15828757418E+02  0.39283436938E+02 -0.16832943933E+03  0.17363936225E+03  0.47000000000E+01 0.  1.
         13    1    6    6    0    0 -0.92245632044E+02  0.39645581231E+02 -0.42411104892E+02  0.10899417673E+03  0.00000000000E+00 0. -1.
        -14    1    6    6    0    0 -0.72255383244E+02  0.80924004934E+02 -0.13279842950E+03  0.17147873880E+03  0.00000000000E+00 0.  1.
</event>
<event>
12    1  0.2576962E-002  0.1935822E+03  0.7818608E-02  0.1155270E+00
         -2   -1    0    0    0  501 -0.00000000000E+00  0.00000000000E+00  0.29311676023E+02  0.29311676023E+02  0.00000000000E+00 0. -1.
          2   -1    0    0  502    0  0.00000000000E+00 -0.00000000000E+00 -0.13001184198E+04  0.13001184198E+04  0.00000000000E+00 0.  1.
          6    2    1    2  502    0 -0.20121842429E+02  0.86111342851E+02 -0.54845959693E+03  0.58149898403E+03  0.17179373403E+03 0.  0.
         24    2    3    3    0    0 -0.17905947216E+02  0.12479027525E+03 -0.44517326304E+03  0.47108554838E+03  0.88595282198E+02 0.  0.
         -6    2    1    2    0  501  0.20121842429E+02 -0.86111342851E+02 -0.72234714686E+03  0.74793111181E+03  0.17261371765E+03 0.  0.
        -24    2    5    5    0    0 -0.14515549496E+02 -0.26625232887E+02 -0.61110261165E+03  0.61702739600E+03  0.79729550653E+02 0.  0.
          5    1    3    3  502    0 -0.22158952129E+01 -0.38678932394E+02 -0.10328633389E+03  0.11041343565E+03  0.47000000000E+01 0. -1.
        -11    1    4    4    0    0 -0.31971356095E+02  0.51994651509E+02 -0.93343451487E+02  0.11152852250E+03  0.00000000000E+00 0.  1.
         12    1    4    4    0    0  0.14065408879E+02  0.72795623736E+02 -0.35182981155E+03  0.35955702588E+03  0.00000000000E+00 0. -1.
         -5    1    5    5    0  501  0.34637391924E+02 -0.59486109964E+02 -0.11124453522E+03  0.13090371581E+03  0.47000000000E+01 0.  1.
         13    1    6    6    0    0  0.21628863338E+02 -0.25985109117E+02 -0.12221654341E+03  0.12680661303E+03  0.00000000000E+00 0. -1.
        -14    1    6    6    0    0 -0.36144412834E+02 -0.64012377020E+00 -0.48888606824E+03  0.49022078297E+03  0.00000000000E+00 0.  1.
</event>
<event>
12    1  0.2576962E-002  0.2082167E+03  0.7818608E-02  0.1142986E+00
          1   -1    0    0  502    0  0.00000000000E+00  0.00000000000E+00  0.12684258148E+04  0.12684258148E+04  0.00000000000E+00 0.  1.
         -1   -1    0    0    0  501 -0.00000000000E+00 -0.00000000000E+00 -0.35238756759E+02  0.35238756759E+02  0.00000000000E+00 0. -1.
          6    2    1    2  502    0 -0.62059160592E+02  0.10510427201E+03  0.50959323440E+03  0.55126519121E+03  0.17120104874E+03 0.  0.
         24    2    3    3    0    0 -0.20699952947E+02  0.32820421669E+02  0.41646284324E+03  0.42624159810E+03  0.82066631592E+02 0.  0.
         -6    2    1    2    0  501  0.62059160592E+02 -0.10510427201E+03  0.72359382366E+03  0.75239938036E+03  0.16618832247E+03 0.  0.
        -24    2    5    5    0    0 -0.91518557043E+01 -0.23624553575E+02  0.17350354345E+03  0.19174676088E+03  0.77598097411E+02 0.  0.
          5    1    3    3  502    0 -0.41359207645E+02  0.72283850346E+02  0.93130391163E+02  0.12502359312E+03  0.47000000000E+01 0. -1.
        -11    1    4    4    0    0 -0.92149231376E+01 -0.18629640901E+02  0.31841878901E+02  0.38024775877E+02  0.00000000000E+00 0.  1.
         12    1    4    4    0    0 -0.11485029809E+02  0.51450062570E+02  0.38462096434E+03  0.38821682222E+03  0.00000000000E+00 0. -1.
         -5    1    5    5    0  501  0.71211016296E+02 -0.81479718440E+02  0.55009028021E+03  0.56065261949E+03  0.47000000000E+01 0.  1.
         13    1    6    6    0    0  0.19578539268E+02  0.74191225593E+01  0.12768046091E+03  0.12938571280E+03  0.00000000000E+00 0. -1.
        -14    1    6    6    0    0 -0.28730394973E+02 -0.31043676134E+02  0.45823082544E+02  0.62361048075E+02  0.00000000000E+00 0.  1.
</event>
<event>
12    1  0.2576962E-002  0.2208869E+03  0.7818608E-02  0.1133224E+00
          4   -1    0    0  502    0  0.00000000000E+00  0.00000000000E+00  0.57257069448E+03  0.57257069448E+03  0.00000000000E+00 0.  1.
         -4   -1    0    0    0  501 -0.00000000000E+00 -0.00000000000E+00 -0.87440890561E+02  0.87440890561E+02  0.00000000000E+00 0. -1.
          6    2    1    2  502    0 -0.86793391819E+02 -0.10700098130E+03  0.29544996692E+03  0.36901636381E+03  0.17291642764E+03 0.  0.
         24    2    3    3    0    0 -0.55867284097E+02  0.91867102392E+01  0.99235675723E+02  0.13884655286E+03  0.78899282809E+02 0.  0.
         -6    2    1    2    0  501  0.86793391819E+02  0.10700098130E+03  0.18967983701E+03  0.29099522124E+03  0.17238757308E+03 0.  0.
        -24    2    5    5    0    0  0.39021304280E+02  0.82790595981E+02  0.20266801641E+03  0.23568610888E+03  0.78081189005E+02 0.  0.
          5    1    3    3  502    0 -0.30926107721E+02 -0.11618769154E+03  0.19621429119E+03  0.23016981095E+03  0.47000000000E+01 0. -1.
        -11    1    4    4    0    0  0.14242241862E+01  0.33333240765E+02  0.47032126825E+02  0.57664150979E+02  0.00000000000E+00 0.  1.
         12    1    4    4    0    0 -0.57291508284E+02 -0.24146530526E+02  0.52203548898E+02  0.81182401882E+02  0.00000000000E+00 0. -1.
         -5    1    5    5    0  501  0.47772087539E+02  0.24210385318E+02 -0.12988179399E+02  0.55309112352E+02  0.47000000000E+01 0.  1.
         13    1    6    6    0    0 -0.22870992718E+02  0.13443364479E+02  0.34271378083E+02  0.43339747486E+02  0.00000000000E+00 0. -1.
        -14    1    6    6    0    0  0.61892296998E+02  0.69347231502E+02  0.16839663832E+03  0.19234636140E+03  0.00000000000E+00 0.  1.
</event>
<event>
12    1  0.2576962E-002  0.3701790E+03  0.7818608E-02  0.1054625E+00
          2   -1    0    0  502    0  0.00000000000E+00  0.00000000000E+00  0.13444389253E+04  0.13444389253E+04  0.00000000000E+00 0. -1.
         -2   -1    0    0    0  501 -0.00000000000E+00 -0.00000000000E+00 -0.10401740414E+03  0.10401740414E+03  0.00000000000E+00 0.  1.
          6    2    1    2  502    0 -0.32291579585E+03 -0.55723184075E+02  0.72347715333E+03  0.81283747002E+03  0.17293315712E+03 0.  0.
         24    2    3    3    0    0 -0.14683362468E+03  0.14369550938E+02  0.23396274773E+03  0.28789522006E+03  0.79865468623E+02 0.  0.
         -6    2    1    2    0  501  0.32291579585E+03  0.55723184075E+02  0.51694436780E+03  0.63561885939E+03  0.17146477936E+03 0.  0.
        -24    2    5    5    0    0  0.91524865301E+02  0.63619106416E+02  0.21450275337E+03  0.25470268952E+03  0.80236133854E+02 0.  0.
          5    1    3    3  502    0 -0.17608217117E+03 -0.70092735013E+02  0.48951440559E+03  0.52494224996E+03  0.47000000000E+01 0. -1.
        -11    1    4    4    0    0 -0.15194879257E+03  0.14289374234E+02  0.19032900931E+03  0.24396260690E+03  0.00000000000E+00 0.  1.
         12    1    4    4    0    0  0.51151678907E+01  0.80176703846E-01  0.43633738422E+02  0.43932613166E+02  0.00000000000E+00 0. -1.
         -5    1    5    5    0  501  0.23139093055E+03 -0.78959223403E+01  0.30244161443E+03  0.38091616987E+03  0.47000000000E+01 0.  1.
         11    1    6    6    0    0  0.80700230763E+01  0.15881473595E+02 -0.18887002912E+01  0.17914063324E+02  0.00000000000E+00 0. -1.
        -12    1    6    6    0    0  0.83454842225E+02  0.47737632821E+02  0.21639145366E+03  0.23678862620E+03  0.00000000000E+00 0.  1.
</event>
<event>
12    1  0.2576962E-002  0.2841450E+03  0.7818608E-02  0.1093446E+00
          2   -1    0    0  502    0  0.00000000000E+00  0.00000000000E+00  0.14895390944E+04  0.14895390944E+04  0.00000000000E+00 0.  1.
         -2   -1    0    0    0  501 -0.00000000000E+00 -0.00000000000E+00 -0.55606050864E+02  0.55606050864E+02  0.00000000000E+00 0. -1.
          6    2    1    2  502    0 -0.46454115947E+02 -0.22195826461E+03  0.84030085357E+03  0.88712590261E+03  0.17164902112E+03 0.  0.
         24    2    3    3    0    0 -0.51352254074E+02 -0.23857284852E+03  0.82308486387E+03  0.86225591152E+03  0.80389711845E+02 0.  0.
         -6    2    1    2    0  501  0.46454115947E+02  0.22195826461E+03  0.59363218993E+03  0.65801924261E+03  0.17078258288E+03 0.  0.
        -24    2    5    5    0    0  0.35315212410E+02  0.13487831456E+03  0.51578439741E+03  0.54059112983E+03  0.82255097542E+02 0.  0.
          5    1    3    3  502    0  0.48981381266E+01  0.16614583904E+02  0.17215989698E+02  0.24869991087E+02  0.47000000000E+01 0. -1.
        -11    1    4    4    0    0  0.21516711874E+02 -0.45009113319E+02  0.17462735215E+03  0.18161360436E+03  0.00000000000E+00 0.  1.
         12    1    4    4    0    0 -0.72868965948E+02 -0.19356373520E+03  0.64845751172E+03  0.68064230716E+03  0.00000000000E+00 0. -1.
         -5    1    5    5    0  501  0.11138903537E+02  0.87079950049E+02  0.77847792515E+02  0.11742811278E+03  0.47000000000E+01 0.  1.
         11    1    6    6    0    0  0.44153097062E+02  0.26505019505E+02  0.13163718259E+03  0.14135190087E+03  0.00000000000E+00 0. -1.
        -12    1    6    6    0    0 -0.88378846516E+01  0.10837329506E+03  0.38414721482E+03  0.39923922896E+03  0.00000000000E+00 0.  1.
</event>
<event>
12    1  0.2576962E-002  0.2180252E+03  0.7818608E-02  0.1135364E+00
         -1   -1    0    0    0  501 -0.00000000000E+00  0.00000000000E+00  0.21819861695E+03  0.21819861695E+03  0.00000000000E+00 0. -1.
          1   -1    0    0  502    0  0.00000000000E+00 -0.00000000000E+00 -0.29801917149E+03  0.29801917149E+03  0.00000000000E+00 0.  1.
          6    2    1    2  502    0  0.10653267033E+03 -0.81013086180E+02  0.94002227681E+02  0.23712314721E+03  0.17169344237E+03 0.  0.
         24    2    3    3    0    0  0.61077101754E+02  0.47139074046E+01 -0.33853256065E+01  0.99566789019E+02  0.78418440206E+02 0.  0.
         -6    2    1    2    0  501 -0.10653267033E+03  0.81013086180E+02 -0.17382278222E+03  0.27909464123E+03  0.17253153094E+03 0.  0.
        -24    2    5    5    0    0  0.36464316519E+01  0.37774017300E+01 -0.44116242057E+02  0.92143679678E+02  0.80725768276E+02 0.  0.
          5    1    3    3  502    0  0.45455568574E+02 -0.85726993584E+02  0.97387553287E+02  0.13755635819E+03  0.47000000000E+01 0. -1.
        -13    1    4    4    0    0  0.72109146011E+02  0.83497620654E+01  0.18392536475E+02  0.74884797275E+02  0.00000000000E+00 0.  1.
         14    1    4    4    0    0 -0.11032044257E+02 -0.36358546607E+01 -0.21777862081E+02  0.24681991744E+02  0.00000000000E+00 0. -1.
         -5    1    5    5    0  501 -0.11017910198E+03  0.77235684450E+02 -0.12970654016E+03  0.18695096155E+03  0.47000000000E+01 0.  1.
         13    1    6    6    0    0  0.19601675334E+02 -0.74305963230E+01  0.17630710761E+02  0.27391265023E+02  0.00000000000E+00 0. -1.
        -14    1    6    6    0    0 -0.15955243682E+02  0.11207998053E+02 -0.61746952818E+02  0.64752414655E+02  0.00000000000E+00 0.  1.
</event>
<event>
12    1  0.2576962E-002  0.1749125E+03  0.7818608E-02  0.1172820E+00
          2   -1    0    0  502    0  0.00000000000E+00  0.00000000000E+00  0.54387935527E+03  0.54387935527E+03  0.00000000000E+00 0. -1.
         -2   -1    0    0    0  501 -0.00000000000E+00 -0.00000000000E+00 -0.71403006259E+02  0.71403006259E+02  0.00000000000E+00 0.  1.
          6    2    1    2  502    0 -0.40769860113E+02  0.47472551008E+01  0.95017386020E+02  0.19945842763E+03  0.17050115185E+03 0.  0.
         24    2    3    3    0    0 -0.30214013808E+02  0.62689302659E+02  0.27996208653E+02  0.11011283467E+03  0.80611496463E+02 0.  0.
         -6    2    1    2    0  501  0.40769860113E+02 -0.47472551008E+01  0.37745896299E+03  0.41582393389E+03  0.16955694422E+03 0.  0.
        -24    2    5    5    0    0  0.33166637478E+02  0.56028034224E+02  0.29423532037E+03  0.31238453387E+03  0.82283089302E+02 0.  0.
          5    1    3    3  502    0 -0.10555846306E+02 -0.57942047558E+02  0.67021177367E+02  0.89345592964E+02  0.47000000000E+01 0. -1.
        -11    1    4    4    0    0 -0.34190794939E+02  0.47950044165E+02 -0.18055034341E+02  0.61597089696E+02  0.00000000000E+00 0.  1.
         12    1    4    4    0    0  0.39767811315E+01  0.14739258494E+02  0.46051242994E+02  0.48515744974E+02  0.00000000000E+00 0. -1.
         -5    1    5    5    0  501  0.76032226350E+01 -0.60775289325E+02  0.83223642614E+02  0.10343940002E+03  0.47000000000E+01 0.  1.
         13    1    6    6    0    0  0.11344171520E+02 -0.30250408989E+01  0.19173448900E+03  0.19209361096E+03  0.00000000000E+00 0. -1.
        -14    1    6    6    0    0  0.21822465959E+02  0.59053075123E+02  0.10250083137E+03  0.12029092291E+03  0.00000000000E+00 0.  1.
</event>
<event>
12    1  0.2576962E-002  0.2289982E+03  0.7818608E-02  0.1127347E+00
          1   -1    0    0  502    0  0.00000000000E+00  0.00000000000E+00  0.18537301584E+04  0.18537301584E+04  0.00000000000E+00 0.  1.
         -1   -1    0    0    0  501 -0.00000000000E+00 -0.00000000000E+00 -0.42630428873E+02  0.42630428873E+02  0.00000000000E+00 0. -1.
          6    2    1    2  502    0 -0.56871909439E+02 -0.13972861281E+03  0.35536624998E+03  0.42271201931E+03  0.17216788412E+03 0.  0.
         24    2    3    3    0    0 -0.91274973501E+02 -0.14087843863E+03  0.34193558207E+03  0.38546466025E+03  0.59035639735E+02 0.  0.
         -6    2    1    2    0  501  0.56871909439E+02  0.13972861281E+03  0.14557334796E+04  0.14736485680E+04  0.17239964928E+03 0.  0.
        -24    2    5    5    0    0  0.14919221517E+02  0.15218143712E+03  0.13138817283E+04  0.13251254715E+04  0.79312963850E+02 0.  0.
          5    1    3    3  502    0  0.34403064062E+02  0.11498258224E+01  0.13430667912E+02  0.37247359058E+02  0.47000000000E+01 0. -1.
        -13    1    4    4    0    0 -0.39266980337E+02 -0.15587299129E+02  0.84584197437E+02  0.94548115238E+02  0.00000000000E+00 0.  1.
         14    1    4    4    0    0 -0.52007993164E+02 -0.12529113950E+03  0.25735138463E+03  0.29091654501E+03  0.00000000000E+00 0. -1.
         -5    1    5    5    0  501  0.41952687922E+02 -0.12452824315E+02  0.14185175128E+03  0.14852309651E+03  0.47000000000E+01 0.  1.
         11    1    6    6    0    0  0.10447149472E+02 -0.23118900896E+01  0.27769961742E+02  0.29760015844E+02  0.00000000000E+00 0. -1.
        -12    1    6    6    0    0  0.44720720445E+01  0.15449332721E+03  0.12861117666E+04  0.12953654556E+04  0.00000000000E+00 0.  1.
</event>
<event>
12    1  0.2576962E-002  0.1954763E+03  0.7818608E-02  0.1153613E+00
          2   -1    0    0  502    0  0.00000000000E+00  0.00000000000E+00  0.66534593534E+03  0.66534593534E+03  0.00000000000E+00 0.  1.
         -2   -1    0    0    0  501 -0.00000000000E+00 -0.00000000000E+00 -0.81640337667E+02  0.81640337667E+02  0.00000000000E+00 0. -1.
          6    2    1    2  502    0  0.83825456344E+02  0.40904498067E+02  0.49573173194E+03  0.53305177399E+03  0.17232051128E+03 0.  0.
         24    2    3    3    0    0  0.10854095644E+03 -0.12055073804E+02  0.37557907688E+03  0.39935688734E+03  0.80621439131E+02 0.  0.
         -6    2    1    2    0  501 -0.83825456344E+02 -0.40904498067E+02  0.87973865736E+02  0.21393449902E+03  0.17125619325E+03 0.  0.
        -24    2    5    5    0    0 -0.15345802721E+02  0.34971326406E+02  0.55980372465E+02  0.10673245934E+03  0.82459253236E+02 0.  0.
          5    1    3    3  502    0 -0.24715500096E+02  0.52959571870E+02  0.12015265506E+03  0.13369488664E+03  0.47000000000E+01 0. -1.
        -11    1    4    4    0    0  0.40619416758E+02 -0.18908317401E+02  0.26957433086E+03  0.27327235744E+03  0.00000000000E+00 0.  1.
         12    1    4    4    0    0  0.67921539682E+02  0.68532435975E+01  0.10600474602E+03  0.12608452990E+03  0.00000000000E+00 0. -1.
         -5    1    5    5    0  501 -0.68479653623E+02 -0.75875824472E+02  0.31993493272E+02  0.10720203968E+03  0.47000000000E+01 0.  1.
         13    1    6    6    0    0 -0.15406723122E+02  0.56561828680E+02  0.15155496303E+02  0.60549951686E+02  0.00000000000E+00 0. -1.
        -14    1    6    6    0    0  0.60920401103E-01 -0.21590502275E+02  0.40824876161E+02  0.46182507656E+02  0.00000000000E+00 0.  1.
</event>
<event>
12    1  0.2576962E-002  0.2297393E+03  0.7818608E-02  0.1126823E+00
         -2   -1    0    0    0  501 -0.00000000000E+00  0.00000000000E+00  0.10138448186E+03  0.10138448186E+03  0.00000000000E+00 0.  1.
          2   -1    0    0  502    0  0.00000000000E+00 -0.00000000000E+00 -0.95959144362E+03  0.95959144362E+03  0.00000000000E+00 0. -1.
          6    2    1    2  502    0  0.13203719040E+03  0.92664849000E+02 -0.79111280930E+03  0.82470541570E+03  0.16810399086E+03 0.  0.
         24    2    3    3    0    0  0.42026543065E+02  0.10627124240E+03 -0.54177730546E+03  0.55922974062E+03  0.78456655604E+02 0.  0.
         -6    2    1    2    0  501 -0.13203719040E+03 -0.92664849000E+02 -0.67094152459E+02  0.23627050978E+03  0.15906456113E+03 0.  0.
        -24    2    5    5    0    0 -0.36958406499E+02 -0.38002602053E+02  0.15106325428E+02  0.99132094467E+02  0.82394475008E+02 0.  0.
          5    1    3    3  502    0  0.90010647340E+02 -0.13606393397E+02 -0.24933550385E+03  0.26547567507E+03  0.47000000000E+01 0. -1.
        -13    1    4    4    0    0 -0.58391709718E+01  0.60530174531E+02 -0.14933476216E+03  0.16124164827E+03  0.00000000000E+00 0.  1.
         14    1    4    4    0    0  0.47865714036E+02  0.45741067867E+02 -0.39244254329E+03  0.39798809235E+03  0.00000000000E+00 0. -1.
         -5    1    5    5    0  501 -0.95078783905E+02 -0.54662246947E+02 -0.82200477887E+02  0.13713841531E+03  0.47000000000E+01 0.  1.
         11    1    6    6    0    0 -0.38729856704E+02 -0.12091292015E+02  0.44290140737E+02  0.60065112248E+02  0.00000000000E+00 0. -1.
        -12    1    6    6    0    0  0.17714502049E+01 -0.25911310038E+02 -0.29183815309E+02  0.39066982219E+02  0.00000000000E+00 0.  1.
</event>
<event>
12    1  0.2576962E-002  0.2830467E+03  0.7818608E-02  0.1094036E+00
         -3   -1    0    0    0  501 -0.00000000000E+00  0.00000000000E+00  0.95021509593E+03  0.95021509593E+03  0.00000000000E+00 0. -1.
          3   -1    0    0  502    0  0.00000000000E+00 -0.00000000000E+00 -0.31505908832E+03  0.31505908832E+03  0.00000000000E+00 0.  1.
          6    2    1    2  502    0  0.77571466261E+02 -0.21068816107E+03  0.85912926945E+03  0.90470281829E+03  0.17313940684E+03 0.  0.
         24    2    3    3    0    0  0.26451889789E+02 -0.19315789958E+03  0.51355163920E+03  0.55489357070E+03  0.78497847358E+02 0.  0.
         -6    2    1    2    0  501 -0.77571466261E+02  0.21068816107E+03 -0.22397326184E+03  0.36057136596E+03  0.17158337432E+03 0.  0.
        -24    2    5    5    0    0 -0.10482649288E+03  0.21663019816E+03 -0.20855318820E+03  0.32835315758E+03  0.80025792203E+02 0.  0.
          5    1    3    3  502    0  0.51119576473E+02 -0.17530261492E+02  0.34557763025E+03  0.34980924759E+03  0.47000000000E+01 0. -1.
        -13    1    4    4    0    0  0.53999100966E+02 -0.10953913698E+03  0.29651972381E+03  0.32068469256E+03  0.00000000000E+00 0.  1.
         14    1    4    4    0    0 -0.27547211178E+02 -0.83618762598E+02  0.21703191539E+03  0.23420887814E+03  0.00000000000E+00 0. -1.
         -5    1    5    5    0  501  0.27255026614E+02 -0.59420370945E+01 -0.15420073636E+02  0.32218208384E+02  0.47000000000E+01 0.  1.
         11    1    6    6    0    0 -0.29752957797E+02  0.33492868384E+02 -0.81957417877E+02  0.93402511076E+02  0.00000000000E+00 0. -1.
        -12    1    6    6    0    0 -0.75073535079E+02  0.18313732978E+03 -0.12659577033E+03  0.23495064650E+03  0.00000000000E+00 0.  1.
</event>
<event>
12    1  0.2576962E-002  0.1782663E+03  0.7818608E-02  0.1169492E+00
          2   -1    0    0  502    0  0.00000000000E+00  0.00000000000E+00  0.17226763042E+03  0.17226763042E+03  0.00000000000E+00 0. -1.
         -2   -1    0    0    0  501 -0.00000000000E+00 -0.00000000000E+00 -0.18676297412E+03  0.18676297412E+03  0.00000000000E+00 0.  1.
          6    2    1    2  502    0  0.10213178039E+02  0.47335467771E+02  0.12641639507E+02  0.17810239424E+03  0.17092599647E+03 0.  0.
         24    2    3    3    0    0 -0.30020879389E+02 -0.25656470879E+02 -0.14752456657E+02  0.90243820439E+02  0.79792258100E+02 0.  0.
         -6    2    1    2    0  501 -0.10213178039E+02 -0.47335467771E+02 -0.27136983205E+02  0.18092821030E+03  0.17220234002E+03 0.  0.
        -24    2    5    5    0    0 -0.26610561308E+02 -0.83829385162E+02  0.17799086638E+02  0.12057905490E+03  0.80541996528E+02 0.  0.
          5    1    3    3  502    0  0.40234057428E+02  0.72991938650E+02  0.27394096164E+02  0.87858573797E+02  0.47000000000E+01 0. -1.
        -13    1    4    4    0    0 -0.17488282992E+01 -0.52969455350E+01  0.31694880848E+02  0.32182005910E+02  0.00000000000E+00 0.  1.
         14    1    4    4    0    0 -0.28272051090E+02 -0.20359525344E+02 -0.46447337505E+02  0.58061814529E+02  0.00000000000E+00 0. -1.
         -5    1    5    5    0  501  0.16397383269E+02  0.36493917391E+02 -0.44936069843E+02  0.60349155401E+02  0.47000000000E+01 0.  1.
         11    1    6    6    0    0 -0.15412819355E+02  0.12555998624E+02 -0.58159808797E+01  0.20713129544E+02  0.00000000000E+00 0. -1.
        -12    1    6    6    0    0 -0.11197741953E+02 -0.96385383787E+02  0.23615067517E+02  0.99865925352E+02  0.00000000000E+00 0.  1.
</event>
<event>
12    1  0.2576962E-002  0.1877525E+03  0.7818608E-02  0.1160504E+00
          1   -1    0    0  502    0  0.00000000000E+00  0.00000000000E+00  0.85793854744E+03  0.85793854744E+03  0.00000000000E+00 0.  1.
         -1   -1    0    0    0  501 -0.00000000000E+00 -0.00000000000E+00 -0.41358311624E+02  0.41358311624E+02  0.00000000000E+00 0. -1.
          6    2    1    2  502    0 -0.80836015169E+02 -0.12701189323E+02  0.44974365799E+03  0.48838045474E+03  0.17190209164E+03 0.  0.
         24    2    3    3    0    0 -0.58848365328E+02  0.21485832124E+02  0.43184826504E+03  0.44372013376E+03  0.80435452387E+02 0.  0.
         -6    2    1    2    0  501  0.80836015169E+02  0.12701189323E+02  0.36683657783E+03  0.41091640433E+03  0.16609465661E+03 0.  0.
        -24    2    5    5    0    0  0.10031267519E+03  0.42144121336E+02  0.20746547243E+03  0.24761464142E+03  0.80201799428E+02 0.  0.
          5    1    3    3  502    0 -0.21987649841E+02 -0.34187021448E+02  0.17895392947E+02  0.44660320977E+02  0.47000000000E+01 0. -1.
        -13    1    4    4    0    0 -0.62255987460E+02 -0.15692546335E+02  0.25327002471E+03  0.26128101615E+03  0.00000000000E+00 0.  1.
         14    1    4    4    0    0  0.34076221321E+01  0.37178378460E+02  0.17857824033E+03  0.18243911761E+03  0.00000000000E+00 0. -1.
         -5    1    5    5    0  501 -0.19476660016E+02 -0.29442932012E+02  0.15937110540E+03  0.16330176291E+03  0.47000000000E+01 0.  1.
         11    1    6    6    0    0  0.22085954285E+02  0.26693638983E+02  0.12259613624E+02  0.36751025360E+02  0.00000000000E+00 0. -1.
        -12    1    6    6    0    0  0.78226720901E+02  0.15450482353E+02  0.19520585880E+03  0.21086361606E+03  0.00000000000E+00 0.  1.
</event>
<event>
12    1  0.2576962E-002  0.1991352E+03  0.7818608E-02  0.1150471E+00
         -1   -1    0    0    0  501 -0.00000000000E+00  0.00000000000E+00  0.28724471612E+02  0.28724471612E+02  0.00000000000E+00 0. -1.
          1   -1    0    0  502    0  0.00000000000E+00 -0.00000000000E+00 -0.13841693633E+04  0.13841693633E+04  0.00000000000E+00 0.  1.
          6    2    1    2  502    0 -0.63273078624E+02 -0.88090139521E+02 -0.62884592584E+03  0.65808976053E+03  0.16084644637E+03 0.  0.
         24    2    3    3    0    0 -0.44597244084E+01 -0.17695135747E+01 -0.29462686351E+03  0.30789733811E+03  0.89290323056E+02 0.  0.
         -6    2    1    2    0  501  0.63273078624E+02  0.88090139521E+02 -0.72659896587E+03  0.75480407441E+03  0.17326216660E+03 0.  0.
        -24    2    5    5    0    0  0.65656157169E+02  0.56591135645E+01 -0.55488516589E+03  0.56425677789E+03  0.78392649757E+02 0.  0.
          5    1    3    3  502    0 -0.58813354216E+02 -0.86320625946E+02 -0.33421906233E+03  0.35019242242E+03  0.47000000000E+01 0. -1.
        -13    1    4    4    0    0 -0.36937023503E+02 -0.28490591899E+02 -0.17420585822E+03  0.18034339070E+03  0.00000000000E+00 0.  1.
         14    1    4    4    0    0  0.32477299095E+02  0.26721078324E+02 -0.12042100530E+03  0.12755394741E+03  0.00000000000E+00 0. -1.
         -5    1    5    5    0  501 -0.23830785455E+01  0.82431025956E+02 -0.17171379998E+03  0.19054729651E+03  0.47000000000E+01 0.  1.
         13    1    6    6    0    0  0.32598487562E+02 -0.36158840205E+02 -0.23942363735E+03  0.24432314921E+03  0.00000000000E+00 0. -1.
        -14    1    6    6    0    0  0.33057669608E+02  0.41817953770E+02 -0.31546152853E+03  0.31993362868E+03  0.00000000000E+00 0.  1.
</event>
<event>
12    1  0.2576962E-002  0.1997879E+03  0.7818608E-02  0.1149918E+00
         -2   -1    0    0    0  501 -0.00000000000E+00  0.00000000000E+00  0.70884408467E+02  0.70884408467E+02  0.00000000000E+00 0.  1.
          2   -1    0    0  502    0  0.00000000000E+00 -0.00000000000E+00 -0.76568065483E+03  0.76568065483E+03  0.00000000000E+00 0. -1.
          6    2    1    2  502    0  0.91763882146E+02  0.45761522392E+02 -0.13233992522E+03  0.23970358070E+03  0.17154947914E+03 0.  0.
         24    2    3    3    0    0  0.12391948100E+03  0.48184955502E+02 -0.13616109401E+03  0.20689280661E+03  0.81160102246E+02 0.  0.
         -6    2    1    2    0  501 -0.91763882146E+02 -0.45761522392E+02 -0.56245632114E+03  0.59686148260E+03  0.17138199796E+03 0.  0.
        -24    2    5    5    0    0 -0.75449770720E+02 -0.21063805257E+01 -0.52716113767E+03  0.53821200162E+03  0.77949912638E+02 0.  0.
          5    1    3    3  502    0 -0.32155598850E+02 -0.24234331103E+01  0.38211687862E+01  0.32810774090E+02  0.47000000000E+01 0. -1.
        -13    1    4    4    0    0  0.35491276684E+02  0.50866430179E+02 -0.30601249126E+02  0.69162568546E+02  0.00000000000E+00 0.  1.
         14    1    4    4    0    0  0.88428204312E+02 -0.26814746773E+01 -0.10555984488E+03  0.13773023806E+03  0.00000000000E+00 0. -1.
         -5    1    5    5    0  501 -0.16314111425E+02 -0.43655141866E+02 -0.35295183471E+02  0.58649480980E+02  0.47000000000E+01 0.  1.
         11    1    6    6    0    0  0.91656766395E+01 -0.19975091369E+02 -0.11322894734E+03  0.11534213636E+03  0.00000000000E+00 0. -1.
        -12    1    6    6    0    0 -0.84615447360E+02  0.17868710843E+02 -0.41393219033E+03  0.42286986527E+03  0.00000000000E+00 0.  1.
</event>
<event>
12    1  0.2576962E-002  0.2147962E+03  0.7818608E-02  0.1137823E+00
         -3   -1    0    0    0  501 -0.00000000000E+00  0.00000000000E+00  0.52682434490E+03  0.52682434490E+03  0.00000000000E+00 0. -1.
          3   -1    0    0  502    0  0.00000000000E+00 -0.00000000000E+00 -0.88750993356E+02  0.88750993356E+02  0.00000000000E+00 0.  1.
          6    2    1    2  502    0 -0.11128657138E+03 -0.54356300668E+02  0.18108807543E+03  0.27886768130E+03  0.17214814614E+03 0.  0.
         24    2    3    3    0    0 -0.60666419985E+02  0.39161060372E+02  0.75087227934E+02  0.12864728917E+03  0.75485296899E+02 0.  0.
         -6    2    1    2    0  501  0.11128657138E+03  0.54356300668E+02  0.25698527611E+03  0.33670765695E+03  0.17886113530E+03 0.  0.
        -24    2    5    5    0    0  0.11932486757E+03  0.43863675017E+02  0.27560493335E+03  0.31339476279E+03  0.78075297288E+02 0.  0.
          5    1    3    3  502    0 -0.50620151392E+02 -0.93517361039E+02  0.10600084749E+03  0.15022039213E+03  0.47000000000E+01 0. -1.
        -11    1    4    4    0    0 -0.18256548116E+02 -0.23059908127E+01 -0.12944105055E+02  0.22498199893E+02  0.00000000000E+00 0.  1.
         12    1    4    4    0    0 -0.42409871869E+02  0.41467051184E+02  0.88031332989E+02  0.10614908927E+03  0.00000000000E+00 0. -1.
         -5    1    5    5    0  501 -0.80382961962E+01  0.10492625650E+02 -0.18619657239E+02  0.23312894168E+02  0.47000000000E+01 0.  1.
         13    1    6    6    0    0  0.92680685261E+02  0.13540287882E+02  0.11774595823E+03  0.15045650367E+03  0.00000000000E+00 0. -1.
        -14    1    6    6    0    0  0.26644182313E+02  0.30323387135E+02  0.15785897512E+03  0.16293825912E+03  0.00000000000E+00 0.  1.
</event>
<event>
12    1  0.2576962E-002  0.2200180E+03  0.7818608E-02  0.1133870E+00
         -2   -1    0    0    0  501 -0.00000000000E+00  0.00000000000E+00  0.73726145591E+02  0.73726145591E+02  0.00000000000E+00 0. -1.
          2   -1    0    0  502    0  0.00000000000E+00 -0.00000000000E+00 -0.96760938541E+03  0.96760938541E+03  0.00000000000E+00 0.  1.
          6    2    1    2  502    0  0.51803982734E+02 -0.12598315732E+03 -0.15023482662E+03  0.26550668327E+03  0.17137061350E+03 0.  0.
         24    2    3    3    0    0 -0.19509933107E+02 -0.63524412858E+02 -0.34201997804E+02  0.11559845562E+03  0.88188648754E+02 0.  0.
         -6    2    1    2    0  501 -0.51803982734E+02  0.12598315732E+03 -0.74364841319E+03  0.77582884773E+03  0.17418963795E+03 0.  0.
        -24    2    5    5    0    0  0.90930316858E+01  0.11088290370E+03 -0.33134712567E+03  0.35875462686E+03  0.80847158529E+02 0.  0.
          5    1    3    3  502    0  0.71313915841E+02 -0.62458744466E+02 -0.11603282882E+03  0.14990822765E+03  0.47000000000E+01 0. -1.
        -11    1    4    4    0    0 -0.15344884836E+02  0.20177715037E+02 -0.15560570400E+02  0.29744529344E+02  0.00000000000E+00 0.  1.
         12    1    4    4    0    0 -0.41650482711E+01 -0.83702127895E+02 -0.18641427404E+02  0.85853926276E+02  0.00000000000E+00 0. -1.
         -5    1    5    5    0  501 -0.60897014420E+02  0.15100253621E+02 -0.41230128752E+03  0.41707422087E+03  0.47000000000E+01 0.  1.
         11    1    6    6    0    0 -0.26339232746E+02  0.35261594548E+02 -0.57218910018E+02  0.72188218536E+02  0.00000000000E+00 0. -1.
        -12    1    6    6    0    0  0.35432264432E+02  0.75621309154E+02 -0.27412821565E+03  0.28656640832E+03  0.00000000000E+00 0.  1.
</event>
<event>
12    1  0.2576962E-002  0.3173889E+03  0.7818608E-02  0.1076857E+00
          2   -1    0    0  502    0  0.00000000000E+00  0.00000000000E+00  0.13464395131E+04  0.13464395131E+04  0.00000000000E+00 0.  1.
         -2   -1    0    0    0  501 -0.00000000000E+00 -0.00000000000E+00 -0.74866643025E+02  0.74866643025E+02  0.00000000000E+00 0. -1.
          6    2    1    2  502    0  0.22267605147E+03  0.14983167449E+03  0.62083456084E+03  0.69797391953E+03  0.17233074547E+03 0.  0.
         24    2    3    3    0    0  0.28961440766E+02  0.24814473910E+02  0.21272859672E+03  0.22922321949E+03  0.76389170197E+02 0.  0.
         -6    2    1    2    0  501 -0.22267605147E+03 -0.14983167449E+03  0.65073830924E+03  0.72333223661E+03  0.16647829534E+03 0.  0.
        -24    2    5    5    0    0 -0.51172843199E+02 -0.99680042880E+02  0.27653566787E+03  0.30862964026E+03  0.78901891089E+02 0.  0.
          5    1    3    3  502    0  0.19371461070E+03  0.12501720058E+03  0.40810596412E+03  0.46875070004E+03  0.47000000000E+01 0. -1.
        -13    1    4    4    0    0  0.26377246699E+02 -0.23673612099E+02  0.70006905248E+02  0.78467610105E+02  0.00000000000E+00 0.  1.
         14    1    4    4    0    0  0.25841940665E+01  0.48488086009E+02  0.14272169148E+03  0.15075560939E+03  0.00000000000E+00 0. -1.
         -5    1    5    5    0  501 -0.17150320827E+03 -0.50151631607E+02  0.37420264138E+03  0.41470259634E+03  0.47000000000E+01 0.  1.
         13    1    6    6    0    0 -0.23126761873E+02  0.84626131433E+01  0.62818730642E+02  0.67473371454E+02  0.00000000000E+00 0. -1.
        -14    1    6    6    0    0 -0.28046081326E+02 -0.10814265602E+03  0.21371693722E+03  0.24115626881E+03  0.00000000000E+00 0.  1.
</event>
<event>
12    1  0.2576962E-002  0.2897114E+03  0.7818608E-02  0.1090500E+00
          2   -1    0    0  502    0  0.00000000000E+00  0.00000000000E+00  0.24618310125E+04  0.24618310125E+04  0.00000000000E+00 0. -1.
         -2   -1    0    0    0  501 -0.00000000000E+00 -0.00000000000E+00 -0.39745051552E+02  0.39745051552E+02  0.00000000000E+00 0.  1.
          6    2    1    2  502    0 -0.10983502255E+03  0.20717343959E+03  0.16858367803E+04  0.17106986603E+04  0.17163825343E+03 0.  0.
         24    2    3    3    0    0 -0.44440026722E+02  0.59950199491E+02  0.98080204236E+03  0.98747859717E+03  0.87019487352E+02 0.  0.
         -6    2    1    2    0  501  0.10983502255E+03 -0.20717343959E+03  0.73624918064E+03  0.79087740382E+03  0.16864058120E+03 0.  0.
        -24    2    5    5    0    0  0.73877376349E+02 -0.19061096165E+03  0.42010068393E+03  0.47222519535E+03  0.68714227338E+02 0.  0.
          5    1    3    3  502    0 -0.65394995825E+02  0.14722324010E+03  0.70503473797E+03  0.72322006308E+03  0.47000000000E+01 0. -1.
        -11    1    4    4    0    0 -0.48493865673E+01  0.59429668482E+02  0.80806005023E+03  0.81025702517E+03  0.00000000000E+00 0.  1.
         12    1    4    4    0    0 -0.39590640155E+02  0.52053100901E+00  0.17274199213E+03  0.17722157201E+03  0.00000000000E+00 0. -1.
         -5    1    5    5    0  501  0.35957646198E+02 -0.16562477941E+02  0.31614849671E+03  0.31865220847E+03  0.47000000000E+01 0.  1.
         13    1    6    6    0    0  0.36725783272E+01 -0.44355287848E+02  0.43808143818E+02  0.62450243045E+02  0.00000000000E+00 0. -1.
        -14    1    6    6    0    0  0.70204798022E+02 -0.14625567380E+03  0.37629254012E+03  0.40977495230E+03  0.00000000000E+00 0.  1.
</event>
<event>
12    1  0.2576962E-002  0.1718424E+03  0.7818608E-02  0.1175940E+00
          2   -1    0    0  502    0  0.00000000000E+00  0.00000000000E+00  0.76941309500E+03  0.76941309500E+03  0.00000000000E+00 0. -1.
         -2   -1    0    0    0  501 -0.00000000000E+00 -0.00000000000E+00 -0.45231180779E+02  0.45231180779E+02  0.00000000000E+00 0.  1.
          6    2    1    2  502    0  0.59427099396E+01 -0.95454512317E+01  0.52372843137E+03  0.55175646612E+03  0.17325500466E+03 0.  0.
         24    2    3    3    0    0  0.41256778919E+02  0.47057185671E+02  0.37292045126E+03  0.38678350216E+03  0.81334580873E+02 0.  0.
         -6    2    1    2    0  501 -0.59427099396E+01  0.95454512317E+01  0.20045348285E+03  0.26288780966E+03  0.16971143226E+03 0.  0.
        -24    2    5    5    0    0  0.24179862989E+02  0.93369531443E+01  0.21379472968E+03  0.22960881121E+03  0.79625217611E+02 0.  0.
          5    1    3    3  502    0 -0.35314068980E+02 -0.56602636902E+02  0.15080798011E+03  0.16497296395E+03  0.47000000000E+01 0. -1.
        -11    1    4    4    0    0  0.28003668098E+01  0.16394536223E+02  0.78087453240E+01  0.18373877538E+02  0.00000000000E+00 0.  1.
         12    1    4    4    0    0  0.38456412109E+02  0.30662649448E+02  0.36511170594E+03  0.36840962463E+03  0.00000000000E+00 0. -1.
         -5    1    5    5    0  501 -0.30122572929E+02  0.20849808734E+00 -0.13341246822E+02  0.33278998453E+02  0.47000000000E+01 0.  1.
         13    1    6    6    0    0  0.15010406632E+02 -0.35168294824E+02  0.93377582046E+02  0.10090338992E+03  0.00000000000E+00 0. -1.
        -14    1    6    6    0    0  0.91694563574E+01  0.44505247968E+02  0.12041714763E+03  0.12870542129E+03  0.00000000000E+00 0.  1.
</event>
<event>
12    1  0.2576962E-002  0.2221986E+03  0.7818608E-02  0.1132254E+00
         -2   -1    0    0    0  501 -0.00000000000E+00  0.00000000000E+00  0.42985911415E+02  0.42985911415E+02  0.00000000000E+00 0.  1.
          2   -1    0    0  502    0  0.00000000000E+00 -0.00000000000E+00 -0.11508492946E+04  0.11508492946E+04  0.00000000000E+00 0. -1.
          6    2    1    2  502    0 -0.16123858549E+02  0.13874291881E+03 -0.58203816850E+03  0.62323707617E+03  0.17362732267E+03 0.  0.
         24    2    3    3    0    0 -0.10852002818E+02  0.16967018819E+03 -0.52508536018E+03  0.55804504575E+03  0.82425110779E+02 0.  0.
         -6    2    1    2    0  501  0.16123858549E+02 -0.13874291881E+03 -0.52582521466E+03  0.57059812983E+03  0.17198980509E+03 0.  0.
        -24    2    5    5    0    0  0.42381879649E+01 -0.15439340566E+03 -0.32753263358E+03  0.37127867615E+03  0.81944757949E+02 0.  0.
          5    1    3    3  502    0 -0.52718557306E+01 -0.30927269374E+02 -0.56952808321E+02  0.65192030414E+02  0.47000000000E+01 0. -1.
        -11    1    4    4    0    0 -0.37561971596E+02  0.14703858788E+03 -0.38972065735E+03  0.41822654005E+03  0.00000000000E+00 0.  1.
         12    1    4    4    0    0  0.26709968778E+02  0.22631600310E+02 -0.13536470283E+03  0.13981850570E+03  0.00000000000E+00 0. -1.
         -5    1    5    5    0  501  0.11885670584E+02  0.15650486842E+02 -0.19829258107E+03  0.19931945367E+03  0.47000000000E+01 0.  1.
         13    1    6    6    0    0 -0.74093567015E+01 -0.16019039483E+03 -0.28768405392E+03  0.32935994905E+03  0.00000000000E+00 0. -1.
        -14    1    6    6    0    0  0.11647544666E+02  0.57969891708E+01 -0.39848579665E+02  0.41918727098E+02  0.00000000000E+00 0.  1.
</event>
<event>
12    1  0.2576962E-002  0.1962062E+03  0.7818608E-02  0.1152980E+00
          2   -1    0    0  502    0  0.00000000000E+00  0.00000000000E+00  0.14243386776E+03  0.14243386776E+03  0.00000000000E+00 0.  1.
         -2   -1    0    0    0  501 -0.00000000000E+00 -0.00000000000E+00 -0.28756854017E+03  0.28756854017E+03  0.00000000000E+00 0. -1.
          6    2    1    2  502    0 -0.75568721717E+02 -0.53309858114E+02 -0.12553374324E+03  0.23354490476E+03  0.17387331358E+03 0.  0.
         24    2    3    3    0    0 -0.95238174522E+02 -0.26031104880E-01 -0.39739600430E+02  0.13054597984E+03  0.79954402293E+02 0.  0.
         -6    2    1    2    0  501  0.75568721717E+02  0.53309858114E+02 -0.19600929172E+02  0.19645750317E+03  0.17221725074E+03 0.  0.
        -24    2    5    5    0    0 -0.12547600115E+02 -0.84231614950E+01  0.99291808518E+01  0.84790277531E+02  0.82839668113E+02 0.  0.
          5    1    3    3  502    0  0.19669452804E+02 -0.53283827010E+02 -0.85794142810E+02  0.10299892492E+03  0.47000000000E+01 0. -1.
        -13    1    4    4    0    0 -0.58471142159E+01 -0.29450494880E+02 -0.63539855425E+01  0.30690283895E+02  0.00000000000E+00 0.  1.
         14    1    4    4    0    0 -0.89391060306E+02  0.29424463775E+02 -0.33385614888E+02  0.99855695944E+02  0.00000000000E+00 0. -1.
         -5    1    5    5    0  501  0.88116321832E+02  0.61733019609E+02 -0.29530110024E+02  0.11166722564E+03  0.47000000000E+01 0.  1.
         13    1    6    6    0    0  0.29024100444E+02 -0.25611555620E+02 -0.64589026026E-01  0.38708582506E+02  0.00000000000E+00 0. -1.
        -14    1    6    6    0    0 -0.41571700559E+02  0.17188394125E+02  0.99937698778E+01  0.46081695025E+02  0.00000000000E+00 0.  1.
</event>
<event>
12    1  0.2576962E-002  0.1726590E+03  0.7818608E-02  0.1175103E+00
          4   -1    0    0  502    0  0.00000000000E+00  0.00000000000E+00  0.19329843832E+03  0.19329843832E+03  0.00000000000E+00 0.  1.
         -4   -1    0    0    0  501 -0.00000000000E+00 -0.00000000000E+00 -0.18121687108E+03  0.18121687108E+03  0.00000000000E+00 0. -1.
          6    2    1    2  502    0 -0.23162131053E+01 -0.11253126015E+02 -0.66245668815E+02  0.18440144107E+03  0.17170732409E+03 0.  0.
         24    2    3    3    0    0 -0.42519757759E+02  0.46418283231E+02 -0.29342066140E+02  0.10486351089E+03  0.78567246696E+02 0.  0.
         -6    2    1    2    0  501  0.23162131053E+01  0.11253126015E+02  0.78327236054E+02  0.19011386833E+03  0.17284712707E+03 0.  0.
        -24    2    5    5    0    0 -0.41957868128E+02  0.37551855150E+02  0.94568389410E+02  0.13591347640E+03  0.79741383658E+02 0.  0.
          5    1    3    3  502    0  0.40203544654E+02 -0.57671409246E+02 -0.36903602675E+02  0.79537930182E+02  0.47000000000E+01 0. -1.
        -11    1    4    4    0    0 -0.11331219954E+02  0.41585327216E+02  0.19022227587E+02  0.47112430713E+02  0.00000000000E+00 0.  1.
         12    1    4    4    0    0 -0.31188537805E+02  0.48329560156E+01 -0.48364293727E+02  0.57751080180E+02  0.00000000000E+00 0. -1.
         -5    1    5    5    0  501  0.44274081233E+02 -0.26298729135E+02 -0.16241153356E+02  0.54200391931E+02  0.47000000000E+01 0.  1.
         11    1    6    6    0    0  0.52588303832E+01 -0.10805255861E+02 -0.70048433127E+01  0.13909589536E+02  0.00000000000E+00 0. -1.
        -12    1    6    6    0    0 -0.47216698511E+02  0.48357111011E+02  0.10157323272E+03  0.12200388686E+03  0.00000000000E+00 0.  1.
</event>
<event>
12    1  0.2576962E-002  0.1999310E+03  0.7818608E-02  0.1149797E+00
          1   -1    0    0  502    0  0.00000000000E+00  0.00000000000E+00  0.13642105019E+04  0.13642105019E+04  0.00000000000E+00 0. -1.
         -1   -1    0    0    0  501 -0.00000000000E+00 -0.00000000000E+00 -0.31354506877E+02  0.31354506877E+02  0.00000000000E+00 0.  1.
          6    2    1    2  502    0 -0.23816074863E+02  0.98510624793E+02  0.84653886786E+03  0.86994140360E+03  0.17291166038E+03 0.  0.
         24    2    3    3    0    0  0.85849739449E+01  0.77719573587E+02  0.27281254379E+03  0.29490568237E+03  0.80178822307E+02 0.  0.
         -6    2    1    2    0  501  0.23816074863E+02 -0.98510624793E+02  0.48631712716E+03  0.52562360517E+03  0.17176809226E+03 0.  0.
        -24    2    5    5    0    0  0.26640967504E+02 -0.76473520163E+02  0.14721242614E+03  0.18575936425E+03  0.79228167723E+02 0.  0.
          5    1    3    3  502    0 -0.32401048808E+02  0.20791051206E+02  0.57372632406E+03  0.57503572123E+03  0.47000000000E+01 0. -1.
        -11    1    4    4    0    0 -0.22634492355E+02 -0.48593223960E+01  0.45485654453E+02  0.51038005636E+02  0.00000000000E+00 0.  1.
         12    1    4    4    0    0  0.31219466300E+02  0.82578895983E+02  0.22732688934E+03  0.24386767673E+03  0.00000000000E+00 0. -1.
         -5    1    5    5    0  501 -0.28248926411E+01 -0.22037104630E+02  0.33910470102E+03  0.33986424092E+03  0.47000000000E+01 0.  1.
         11    1    6    6    0    0  0.29958511451E+02 -0.15247718986E+02  0.10767848818E+03  0.11280364427E+03  0.00000000000E+00 0. -1.
        -12    1    6    6    0    0 -0.33175439468E+01 -0.61225801177E+02  0.39533937954E+02  0.72955719980E+02  0.00000000000E+00 0.  1.
</event>
<event>
12    1  0.2576962E-002  0.2408184E+03  0.7818608E-02  0.1119249E+00
          2   -1    0    0  502    0  0.00000000000E+00  0.00000000000E+00  0.10231337114E+04  0.10231337114E+04  0.00000000000E+00 0. -1.
         -2   -1    0    0    0  501 -0.00000000000E+00 -0.00000000000E+00 -0.71502848565E+02  0.71502848565E+02  0.00000000000E+00 0.  1.
          6    2    1    2  502    0 -0.14518411754E+03  0.88842985716E+02  0.22503466442E+03  0.32884712067E+03  0.16890329921E+03 0.  0.
         24    2    3    3    0    0 -0.30369183244E+02  0.95591733544E+02  0.11466010060E+03  0.16937094981E+03  0.74023733731E+02 0.  0.
         -6    2    1    2    0  501  0.14518411754E+03 -0.88842985716E+02  0.72659619840E+03  0.76578943928E+03  0.17181363650E+03 0.  0.
        -24    2    5    5    0    0  0.15640339753E+03 -0.11020546994E+03  0.69791657072E+03  0.72801591655E+03  0.79450404010E+02 0.  0.
          5    1    3    3  502    0 -0.11481493430E+03 -0.67487478283E+01  0.11037456382E+03  0.15947617087E+03  0.47000000000E+01 0. -1.
        -11    1    4    4    0    0  0.10623102406E+02  0.38467131331E+02  0.65984614983E+01  0.40448858967E+02  0.00000000000E+00 0.  1.
         12    1    4    4    0    0 -0.40992285650E+02  0.57124602213E+02  0.10806163910E+03  0.12892209084E+03  0.00000000000E+00 0. -1.
         -5    1    5    5    0  501 -0.11219279991E+02  0.21362484225E+02  0.28679627680E+02  0.37773522733E+02  0.47000000000E+01 0.  1.
         11    1    6    6    0    0  0.78438068662E+02 -0.44086336987E+02  0.46541570576E+03  0.47403366430E+03  0.00000000000E+00 0. -1.
        -12    1    6    6    0    0  0.77965328872E+02 -0.66119132953E+02  0.23250086496E+03  0.25398225225E+03  0.00000000000E+00 0.  1.
</event>
<event>
12    1  0.2576962E-002  0.2017097E+03  0.7818608E-02  0.1148305E+00
          2   -1    0    0  502    0  0.00000000000E+00  0.00000000000E+00  0.72923540774E+03  0.72923540774E+03  0.00000000000E+00 0.  1.
         -2   -1    0    0    0  501 -0.00000000000E+00 -0.00000000000E+00 -0.56035034898E+02  0.56035034898E+02  0.00000000000E+00 0. -1.
          6    2    1    2  502    0  0.37122191208E+02  0.95364419203E+02  0.30889928319E+03  0.36825422978E+03  0.17239484059E+03 0.  0.
         24    2    3    3    0    0  0.82598133387E+02  0.44708771367E+02  0.14214559484E+03  0.18807948528E+03  0.79669296319E+02 0.  0.
         -6    2    1    2    0  501 -0.37122191208E+02 -0.95364419203E+02  0.36430108965E+03  0.41701621286E+03  0.17525640741E+03 0.  0.
        -24    2    5    5    0    0  0.10462839153E+02 -0.81282158468E+01  0.75284941091E+02  0.11135804690E+03  0.80976869278E+02 0.  0.
          5    1    3    3  502    0 -0.45475942179E+02  0.50655647836E+02  0.16675368835E+03  0.18017474449E+03  0.47000000000E+01 0. -1.
        -11    1    4    4    0    0  0.66972199434E+00 -0.18977691695E+02  0.27807128154E+02  0.33672506378E+02  0.00000000000E+00 0.  1.
         12    1    4    4    0    0  0.81928411393E+02  0.63686463062E+02  0.11433846669E+03  0.15440697891E+03  0.00000000000E+00 0. -1.
         -5    1    5    5    0  501 -0.47585030362E+02 -0.87236203356E+02  0.28901614856E+03  0.30565816596E+03  0.47000000000E+01 0.  1.
         13    1    6    6    0    0 -0.85630897717E+01 -0.21237248495E+01 -0.15809401156E+02  0.18104526467E+02  0.00000000000E+00 0. -1.
        -14    1    6    6    0    0  0.19025928925E+02 -0.60044909973E+01  0.91094342247E+02  0.93253520432E+02  0.00000000000E+00 0.  1.
</event>
<event>
12    1  0.2576962E-002  0.2462223E+03  0.7818608E-02  0.1115716E+00
          2   -1    0    0  502    0  0.00000000000E+00  0.00000000000E+00  0.96173570253E+03  0.96173570253E+03  0.00000000000E+00 0. -1.
         -2   -1    0    0    0  501 -0.00000000000E+00 -0.00000000000E+00 -0.10088269000E+03  0.10088269000E+03  0.00000000000E+00 0.  1.
          6    2    1    2  502    0 -0.17037140383E+03  0.45058218307E+02  0.75604953109E+03  0.79519052584E+03  0.17222200974E+03 0.  0.
         24    2    3    3    0    0 -0.15778077707E+03  0.42362494256E+02  0.38455954973E+03  0.42344775581E+03  0.68793895713E+02 0.  0.
         -6    2    1    2    0  501  0.17037140383E+03 -0.45058218307E+02  0.10480348145E+03  0.26742786669E+03  0.17168935867E+03 0.  0.
        -24    2    5    5    0    0  0.26812002081E+02  0.16665079980E+02  0.60254147966E+02  0.10486772245E+03  0.79812709001E+02 0.  0.
          5    1    3    3  502    0 -0.12590626767E+02  0.26957240513E+01  0.37148998136E+03  0.37174277002E+03  0.47000000000E+01 0. -1.
        -11    1    4    4    0    0 -0.10314492533E+02  0.25761399262E+02  0.44862563758E+02  0.52751190272E+02  0.00000000000E+00 0.  1.
         12    1    4    4    0    0 -0.14746628453E+03  0.16601094994E+02  0.33969698597E+03  0.37069656554E+03  0.00000000000E+00 0. -1.
         -5    1    5    5    0  501  0.14355940175E+03 -0.61723298287E+02  0.44549333480E+02  0.16256014424E+03  0.47000000000E+01 0.  1.
         11    1    6    6    0    0  0.42402342301E+01  0.17898746667E+02 -0.16588279597E+02  0.24769249859E+02  0.00000000000E+00 0. -1.
        -12    1    6    6    0    0  0.22571767851E+02 -0.12336666876E+01  0.76842427563E+02  0.80098472590E+02  0.00000000000E+00 0.  1.
</event>
<event>
12    1  0.2576962E-002  0.1908199E+03  0.7818608E-02  0.1157724E+00
         -2   -1    0    0    0  501 -0.00000000000E+00  0.00000000000E+00  0.85708363166E+02  0.85708363166E+02  0.00000000000E+00 0.  1.
          2   -1    0    0  502    0  0.00000000000E+00 -0.00000000000E+00 -0.48926962210E+03  0.48926962210E+03  0.00000000000E+00 0. -1.
          6    2    1    2  502    0 -0.47115192773E+02 -0.68107383502E+02 -0.30606868451E+03  0.36065827687E+03  0.17186592437E+03 0.  0.
         24    2    3    3    0    0 -0.55324441591E+02  0.13137163788E+02 -0.89721617792E+02  0.12936579643E+03  0.73838754570E+02 0.  0.
         -6    2    1    2    0  501  0.47115192773E+02  0.68107383502E+02 -0.97492574420E+02  0.21431970840E+03  0.17195836200E+03 0.  0.
        -24    2    5    5    0    0  0.10648269461E+02  0.11859675756E+01  0.11585818459E+02  0.81171301726E+02  0.79622590217E+02 0.  0.
          5    1    3    3  502    0  0.82092488180E+01 -0.81244547291E+02 -0.21634706672E+03  0.23129248044E+03  0.47000000000E+01 0. -1.
        -11    1    4    4    0    0 -0.35932466191E+01 -0.25123986788E+02 -0.10912119443E+02  0.27626083402E+02  0.00000000000E+00 0.  1.
         12    1    4    4    0    0 -0.51731194972E+02  0.38261150576E+02 -0.78809498349E+02  0.10173971303E+03  0.00000000000E+00 0. -1.
         -5    1    5    5    0  501  0.36466923312E+02  0.66921415927E+02 -0.10907839288E+03  0.13314840667E+03  0.47000000000E+01 0.  1.
         13    1    6    6    0    0 -0.18649193156E+02  0.25989232432E+02 -0.14126944083E+02  0.34968602444E+02  0.00000000000E+00 0. -1.
        -14    1    6    6    0    0  0.29297462617E+02 -0.24803264857E+02  0.25712762542E+02  0.46202699282E+02  0.00000000000E+00 0.  1.
</event>
<event>
12    1  0.2576962E-002  0.1740706E+03  0.7818608E-02  0.1173668E+00
          1   -1    0    0  502    0  0.00000000000E+00  0.00000000000E+00  0.54361660425E+03  0.54361660425E+03  0.00000000000E+00 0. -1.
         -1   -1    0    0    0  501 -0.00000000000E+00 -0.00000000000E+00 -0.61611016109E+02  0.61611016109E+02  0.00000000000E+00 0.  1.
          6    2    1    2  502    0 -0.27144490310E+02 -0.71474206907E+01  0.14599664637E+03  0.22621184220E+03  0.17049594664E+03 0.  0.
         24    2    3    3    0    0  0.35253935691E+02 -0.13158279737E+02  0.13818881979E+03  0.16286560198E+03  0.77544013865E+02 0.  0.
         -6    2    1    2    0  501  0.27144490310E+02  0.71474206907E+01  0.33600894177E+03  0.37901577817E+03  0.17309835981E+03 0.  0.
        -24    2    5    5    0    0 -0.31067760727E+02  0.44541824610E+01  0.85340321322E+02  0.12161964964E+03  0.80767092533E+02 0.  0.
          5    1    3    3  502    0 -0.62398426001E+02  0.60108590461E+01  0.78078265833E+01  0.63346240218E+02  0.47000000000E+01 0. -1.
        -13    1    4    4    0    0  0.29857933273E+02  0.15362902064E+02  0.15851895672E+02  0.37132163087E+02  0.00000000000E+00 0.  1.
         14    1    4    4    0    0  0.53960024177E+01 -0.28521181801E+02  0.12233692411E+03  0.12573343889E+03  0.00000000000E+00 0. -1.
         -5    1    5    5    0  501  0.58212251037E+02  0.26932382297E+01  0.25066862045E+03  0.25739612853E+03  0.47000000000E+01 0.  1.
         13    1    6    6    0    0 -0.26910401776E+02  0.11685422798E+02  0.10029401691E+03  0.10449693133E+03  0.00000000000E+00 0. -1.
        -14    1    6    6    0    0 -0.41573589515E+01 -0.72312403367E+01 -0.14953695590E+02  0.17122718303E+02  0.00000000000E+00 0.  1.
</event>
<event>
12    1  0.2576962E-002  0.1803241E+03  0.7818608E-02  0.1167490E+00
          1   -1    0    0  502    0  0.00000000000E+00  0.00000000000E+00  0.94982659896E+03  0.94982659896E+03  0.00000000000E+00 0. -1.
         -1   -1    0    0    0  501 -0.00000000000E+00 -0.00000000000E+00 -0.35181596137E+02  0.35181596137E+02  0.00000000000E+00 0.  1.
          6    2    1    2  502    0  0.15753223545E+02  0.51388522815E+02  0.53755495096E+03  0.56692006477E+03  0.17188394402E+03 0.  0.
         24    2    3    3    0    0  0.35472423387E+02  0.93358337560E+02  0.44942334326E+03  0.46722261010E+03  0.79633874143E+02 0.  0.
         -6    2    1    2    0  501 -0.15753223545E+02 -0.51388522815E+02  0.37709005186E+03  0.41808813032E+03  0.17237120750E+03 0.  0.
        -24    2    5    5    0    0  0.20858886874E+02 -0.34325823415E+02  0.36364554570E+03  0.37525791802E+03  0.83468957191E+02 0.  0.
          5    1    3    3  502    0 -0.19719199843E+02 -0.41969814744E+02  0.88131607698E+02  0.99697454669E+02  0.47000000000E+01 0. -1.
        -13    1    4    4    0    0  0.60000775703E+02  0.75207757119E+02  0.36450888928E+03  0.37699208239E+03  0.00000000000E+00 0.  1.
         14    1    4    4    0    0 -0.24528352316E+02  0.18150580440E+02  0.84914453979E+02  0.90230527718E+02  0.00000000000E+00 0. -1.
         -5    1    5    5    0  501 -0.36612110418E+02 -0.17062699401E+02  0.13444506165E+02  0.42830212305E+02  0.47000000000E+01 0.  1.
         13    1    6    6    0    0 -0.19773317060E+02 -0.44755241878E+02  0.15904135834E+03  0.16639762440E+03  0.00000000000E+00 0. -1.
        -14    1    6    6    0    0  0.40632203934E+02  0.10429418463E+02  0.20460418736E+03  0.20886029362E+03  0.00000000000E+00 0.  1.
</event>
<event>
12    1  0.2576962E-002  0.2639060E+03  0.7818608E-02  0.1104819E+00
          2   -1    0    0  502    0  0.00000000000E+00  0.00000000000E+00  0.37921195880E+03  0.37921195880E+03  0.00000000000E+00 0.  1.
         -2   -1    0    0    0  501 -0.00000000000E+00 -0.00000000000E+00 -0.23236712595E+03  0.23236712595E+03  0.00000000000E+00 0. -1.
          6    2    1    2  502    0  0.88011560908E+02  0.17901168822E+03  0.21368986662E+03  0.34054666626E+03  0.17469245384E+03 0.  0.
         24    2    3    3    0    0  0.57203669284E+00  0.85561747587E+02  0.16851182784E+03  0.20474641962E+03  0.78763699431E+02 0.  0.
         -6    2    1    2    0  501 -0.88011560908E+02 -0.17901168822E+03 -0.66845033775E+02  0.27103241850E+03  0.17087742380E+03 0.  0.
        -24    2    5    5    0    0 -0.88110237143E+02 -0.96303123831E+02  0.16314599823E+02  0.15365128279E+03  0.79403054014E+02 0.  0.
          5    1    3    3  502    0  0.87439524215E+02  0.93449940630E+02  0.45178038785E+02  0.13580024664E+03  0.47000000000E+01 0. -1.
        -11    1    4    4    0    0 -0.37111548474E+02  0.60508009491E+02  0.99623890911E+02  0.12232500105E+03  0.00000000000E+00 0.  1.
         12    1    4    4    0    0  0.37683585167E+02  0.25053738095E+02  0.68887936928E+02  0.82421418562E+02  0.00000000000E+00 0. -1.
         -5    1    5    5    0  501  0.98676235517E-01 -0.82708564386E+02 -0.83159633598E+02  0.11738113571E+03  0.47000000000E+01 0.  1.
         13    1    6    6    0    0  0.78839719485E+01  0.73657229470E+01 -0.26142213356E+01  0.11101578330E+02  0.00000000000E+00 0. -1.
        -14    1    6    6    0    0 -0.95994209092E+02 -0.10366884678E+03  0.18928821159E+02  0.14254970446E+03  0.00000000000E+00 0.  1.
</event>
<event>
12    1  0.2576962E-002  0.1741597E+03  0.7818608E-02  0.1173578E+00
          2   -1    0    0  502    0  0.00000000000E+00  0.00000000000E+00  0.22418636184E+02  0.22418636184E+02  0.00000000000E+00 0. -1.
         -2   -1    0    0    0  501 -0.00000000000E+00 -0.00000000000E+00 -0.24064067392E+04  0.24064067392E+04  0.00000000000E+00 0.  1.
          6    2    1    2  502    0  0.25328555714E+02  0.39412246736E+01 -0.19945329487E+04  0.20021004694E+04  0.17201028284E+03 0.  0.
         24    2    3    3    0    0  0.38741576437E+02  0.44681589948E+02 -0.73962478647E+03  0.74645072845E+03  0.81526137008E+02 0.  0.
         -6    2    1    2    0  501 -0.25328555714E+02 -0.39412246736E+01 -0.38945515434E+03  0.42672490595E+03  0.17251596773E+03 0.  0.
        -24    2    5    5    0    0  0.89437594537E+00 -0.88947339328E+01 -0.73654735518E+02  0.10976406620E+03  0.80890135154E+02 0.  0.
          5    1    3    3  502    0 -0.13413020724E+02 -0.40740365275E+02 -0.12549081622E+04  0.12556497410E+04  0.47000000000E+01 0. -1.
        -13    1    4    4    0    0  0.33036428276E+02 -0.17605951968E+02 -0.32181544182E+03  0.32398542209E+03  0.00000000000E+00 0.  1.
         14    1    4    4    0    0  0.57051481615E+01  0.62287541916E+02 -0.41780934466E+03  0.42246530636E+03  0.00000000000E+00 0. -1.
         -5    1    5    5    0  501 -0.26222931659E+02  0.49535092592E+01 -0.31580041883E+03  0.31696083974E+03  0.47000000000E+01 0.  1.
         11    1    6    6    0    0  0.32839765283E+02 -0.28650391412E+02 -0.35333143973E+02  0.56104600301E+02  0.00000000000E+00 0. -1.
        -12    1    6    6    0    0 -0.31945389338E+02  0.19755657479E+02 -0.38321591545E+02  0.53659465903E+02  0.00000000000E+00 0.  1.
</event>
<event>
12    1  0.2576962E-002  0.1758160E+03  0.7818608E-02  0.1171915E+00
          1   -1    0    0  502    0  0.00000000000E+00  0.00000000000E+00  0.99668901583E+02  0.99668901583E+02  0.00000000000E+00 0. -1.
         -1   -1    0    0    0  501 -0.00000000000E+00 -0.00000000000E+00 -0.32483584259E+03  0.32483584259E+03  0.00000000000E+00 0.  1.
          6    2    1    2  502    0 -0.48611240998E+02  0.10123764031E+02 -0.72799575323E+02  0.19723203901E+03  0.17645156756E+03 0.  0.
         24    2    3    3    0    0  0.22424554807E+02  0.47176574956E+02 -0.13128394523E+02  0.97223364881E+02  0.80941571847E+02 0.  0.
         -6    2    1    2    0  501  0.48611240998E+02 -0.10123764031E+02 -0.15236736568E+03  0.22727270516E+03  0.16115683366E+03 0.  0.
        -24    2    5    5    0    0  0.76976331834E+02 -0.22761558877E+02 -0.56232458378E+02  0.12613763390E+03  0.79405094833E+02 0.  0.
          5    1    3    3  502    0 -0.71035795805E+02 -0.37052810926E+02 -0.59671180801E+02  0.10000867413E+03  0.47000000000E+01 0. -1.
        -11    1    4    4    0    0  0.37319240133E+02 -0.86939613607E+01 -0.82458171150E+01  0.39195715941E+02  0.00000000000E+00 0.  1.
         12    1    4    4    0    0 -0.14894685326E+02  0.55870536317E+02 -0.48825774078E+01  0.58027648940E+02  0.00000000000E+00 0. -1.
         -5    1    5    5    0  501 -0.28365090836E+02  0.12637794846E+02 -0.96134907302E+02  0.10113507126E+03  0.47000000000E+01 0.  1.
         11    1    6    6    0    0  0.14642867892E+02 -0.95648130696E+01  0.20141932756E+02  0.26675769610E+02  0.00000000000E+00 0. -1.
        -12    1    6    6    0    0  0.62333463942E+02 -0.13196745807E+02 -0.76374391134E+02  0.99461864290E+02  0.00000000000E+00 0.  1.
</event>
<event>
12    1  0.2576962E-002  0.2157094E+03  0.7818608E-02  0.1137123E+00
          2   -1    0    0  502    0  0.00000000000E+00  0.00000000000E+00  0.22042470164E+03  0.22042470164E+03  0.00000000000E+00 0.  1.
         -2   -1    0    0    0  501 -0.00000000000E+00 -0.00000000000E+00 -0.22787313512E+03  0.22787313512E+03  0.00000000000E+00 0. -1.
          6    2    1    2  502    0  0.84136688423E+02 -0.99491519574E+02  0.57089964034E+02  0.22353117055E+03  0.17242208503E+03 0.  0.
         24    2    3    3    0    0  0.32603815573E+02 -0.12627693690E+03  0.30957114577E+02  0.15967107826E+03  0.86761954266E+02 0.  0.
         -6    2    1    2    0  501 -0.84136688423E+02  0.99491519574E+02 -0.64538397519E+02  0.22476666621E+03  0.17139808832E+03 0.  0.
        -24    2    5    5    0    0 -0.11981668558E+02  0.55121854092E+02 -0.92172578611E+02  0.13554361946E+03  0.81818759146E+02 0.  0.
          5    1    3    3  502    0  0.51532872850E+02  0.26785417328E+02  0.26132849457E+02  0.63860092283E+02  0.47000000000E+01 0. -1.
        -13    1    4    4    0    0  0.52015474440E+02 -0.35088778332E+02  0.19691042579E+02  0.65761456066E+02  0.00000000000E+00 0.  1.
         14    1    4    4    0    0 -0.19411658867E+02 -0.91188158570E+02  0.11266071998E+02  0.93909622199E+02  0.00000000000E+00 0. -1.
         -5    1    5    5    0  501 -0.72155019865E+02  0.44369665482E+02  0.27634181092E+02  0.89223046750E+02  0.47000000000E+01 0.  1.
         11    1    6    6    0    0 -0.13690807664E+01  0.75856688128E+02 -0.66611301595E+02  0.10096126493E+03  0.00000000000E+00 0. -1.
        -12    1    6    6    0    0 -0.10612587792E+02 -0.20734834036E+02 -0.25561277016E+02  0.34582354530E+02  0.00000000000E+00 0.  1.
</event>
<event>
12    1  0.2576962E-002  0.2024878E+03  0.7818608E-02  0.1147657E+00
          2   -1    0    0  502    0  0.00000000000E+00  0.00000000000E+00  0.47599153733E+03  0.47599153733E+03  0.00000000000E+00 0.  1.
         -2   -1    0    0    0  501 -0.00000000000E+00 -0.00000000000E+00 -0.88050209764E+02  0.88050209764E+02  0.00000000000E+00 0. -1.
          6    2    1    2  502    0 -0.48916106872E+02  0.91432255250E+02  0.23609860593E+03  0.31144373178E+03  0.17464822796E+03 0.  0.
         24    2    3    3    0    0 -0.65097497154E+02  0.14192357492E+02  0.10594183152E+03  0.15915875181E+03  0.98329697785E+02 0.  0.
         -6    2    1    2    0  501  0.48916106872E+02 -0.91432255250E+02  0.15184272164E+03  0.25259801532E+03  0.17319613857E+03 0.  0.
        -24    2    5    5    0    0 -0.10760645665E+02 -0.85012037559E+00  0.21543622109E+02  0.82991460935E+02  0.79416249816E+02 0.  0.
          5    1    3    3  502    0  0.16181390283E+02  0.77239897758E+02  0.13015677442E+03  0.15228497997E+03  0.47000000000E+01 0. -1.
        -11    1    4    4    0    0 -0.35901448510E+01 -0.54903715513E+01  0.93079543100E+02  0.93310420981E+02  0.00000000000E+00 0.  1.
         12    1    4    4    0    0 -0.61507352303E+02  0.19682729043E+02  0.12862288415E+02  0.65848330831E+02  0.00000000000E+00 0. -1.
         -5    1    5    5    0  501  0.59676752537E+02 -0.90582134874E+02  0.13029909953E+03  0.16960655438E+03  0.47000000000E+01 0.  1.
         11    1    6    6    0    0  0.30587778346E+02 -0.70627612649E+01 -0.72561100542E+01  0.32220271785E+02  0.00000000000E+00 0. -1.
        -12    1    6    6    0    0 -0.41348424011E+02  0.62126408894E+01  0.28799732163E+02  0.50771189150E+02  0.00000000000E+00 0.  1.
</event>
<event>
12    1  0.2576962E-002  0.2645225E+03  0.7818608E-02  0.1104456E+00
          2   -1    0    0  502    0  0.00000000000E+00  0.00000000000E+00  0.92621701552E+03  0.92621701552E+03  0.00000000000E+00 0.  1.
         -2   -1    0    0    0  501 -0.00000000000E+00 -0.00000000000E+00 -0.10381541022E+03  0.10381541022E+03  0.00000000000E+00 0. -1.
          6    2    1    2  502    0 -0.19925325445E+03  0.19257835549E+02  0.68020212411E+03  0.72990773980E+03  0.17325603982E+03 0.  0.
         24    2    3    3    0    0 -0.64505819036E+02  0.51830357982E+02  0.40836944436E+03  0.42473084626E+03  0.82360803668E+02 0.  0.
         -6    2    1    2    0  501  0.19925325445E+03 -0.19257835549E+02  0.14219948120E+03  0.30012468594E+03  0.17257291508E+03 0.  0.
        -24    2    5    5    0    0  0.13865487597E+03 -0.33100516778E+02  0.21943200654E+02  0.16467194028E+03  0.79463985671E+02 0.  0.
          5    1    3    3  502    0 -0.13474743541E+03 -0.32572522433E+02  0.27183267975E+03  0.30517689354E+03  0.47000000000E+01 0. -1.
        -11    1    4    4    0    0 -0.43920567186E+02  0.26015823348E+02  0.37248949210E+03  0.37597109066E+03  0.00000000000E+00 0.  1.
         12    1    4    4    0    0 -0.20585251850E+02  0.25814534634E+02  0.35879952254E+02  0.48759755597E+02  0.00000000000E+00 0. -1.
         -5    1    5    5    0  501  0.60598378481E+02  0.13842681229E+02  0.12025628054E+03  0.13545274566E+03  0.47000000000E+01 0.  1.
         13    1    6    6    0    0  0.28064197771E+02 -0.29066745577E+02 -0.21521276550E+02  0.45778163345E+02  0.00000000000E+00 0. -1.
        -14    1    6    6    0    0  0.11059067820E+03 -0.40337712006E+01  0.43464477204E+02  0.11889377693E+03  0.00000000000E+00 0.  1.
</event>
<event>
12    1  0.2576962E-002  0.1751254E+03  0.7818608E-02  0.1172606E+00
          1   -1    0    0  502    0  0.00000000000E+00  0.00000000000E+00  0.73391159407E+03  0.73391159407E+03  0.00000000000E+00 0. -1.
         -1   -1    0    0    0  501 -0.00000000000E+00 -0.00000000000E+00 -0.42291331713E+02  0.42291331713E+02  0.00000000000E+00 0.  1.
          6    2    1    2  502    0  0.13886133657E+02 -0.34819205650E+02  0.38583424312E+03  0.42324911031E+03  0.16990157274E+03 0.  0.
         24    2    3    3    0    0  0.63469730446E+02  0.15489750471E+02  0.26569946276E+03  0.28380743939E+03  0.75379832104E+02 0.  0.
         -6    2    1    2    0  501 -0.13886133657E+02  0.34819205650E+02  0.30578601923E+03  0.35295381547E+03  0.17223851053E+03 0.  0.
        -24    2    5    5    0    0 -0.77819800133E+01  0.63140965632E+01  0.31690482001E+03  0.32140195869E+03  0.52631996670E+02 0.  0.
          5    1    3    3  502    0 -0.49583596788E+02 -0.50308956121E+02  0.12013478037E+03  0.13944167092E+03  0.47000000000E+01 0. -1.
        -13    1    4    4    0    0 -0.48795240178E+01 -0.20896208452E+02  0.43536158608E+02  0.48537185628E+02  0.00000000000E+00 0.  1.
         14    1    4    4    0    0  0.68349254464E+02  0.36385958922E+02  0.22216330415E+03  0.23527025376E+03  0.00000000000E+00 0. -1.
         -5    1    5    5    0  501 -0.61041536442E+01  0.28505109087E+02 -0.11118800781E+02  0.31551856785E+02  0.47000000000E+01 0.  1.
         11    1    6    6    0    0 -0.20069389008E+02  0.21621798605E+02  0.24823265804E+03  0.24997946929E+03  0.00000000000E+00 0. -1.
        -12    1    6    6    0    0  0.12287408995E+02 -0.15307702042E+02  0.68672161974E+02  0.71422489398E+02  0.00000000000E+00 0.  1.
</event>
<event>
12    1  0.2576962E-002  0.1789427E+03  0.7818608E-02  0.1168830E+00
         -2   -1    0    0    0  501 -0.00000000000E+00  0.00000000000E+00  0.29907366273E+02  0.29907366273E+02  0.00000000000E+00 0.  1.
          2   -1    0    0  502    0  0.00000000000E+00 -0.00000000000E+00 -0.12379358806E+04  0.12379358806E+04  0.00000000000E+00 0. -1.
          6    2    1    2  502    0  0.47308072860E+02 -0.97746898569E+01 -0.83708585134E+03  0.85600146802E+03  0.17231422580E+03 0.  0.
         24    2    3    3    0    0  0.53420473469E+02  0.45783055518E+02 -0.35138066418E+03  0.36706829943E+03  0.79504277410E+02 0.  0.
         -6    2    1    2    0  501 -0.47308072860E+02  0.97746898569E+01 -0.37094266294E+03  0.41184177881E+03  0.17228346776E+03 0.  0.
        -24    2    5    5    0    0 -0.90439831323E+02 -0.65967644267E+01 -0.32458329231E+03  0.34627002919E+03  0.79534514992E+02 0.  0.
          5    1    3    3  502    0 -0.61124006088E+01 -0.55557745375E+02 -0.48570518716E+03  0.48893316859E+03  0.47000000000E+01 0. -1.
        -13    1    4    4    0    0  0.21609298664E+02 -0.21677128918E+02 -0.81034797943E+02  0.86622734802E+02  0.00000000000E+00 0.  1.
         14    1    4    4    0    0  0.31811174804E+02  0.67460184436E+02 -0.27034586624E+03  0.28044556463E+03  0.00000000000E+00 0. -1.
         -5    1    5    5    0  501  0.43131758463E+02  0.16371454284E+02 -0.46359370628E+02  0.65571749622E+02  0.47000000000E+01 0.  1.
         11    1    6    6    0    0 -0.35231520514E+02 -0.22132369901E+02 -0.24305050214E+03  0.24658598586E+03  0.00000000000E+00 0. -1.
        -12    1    6    6    0    0 -0.55208310808E+02  0.15535605475E+02 -0.81532790175E+02  0.99684043324E+02  0.00000000000E+00 0.  1.
</event>
<event>
12    1  0.2576962E-002  0.2139528E+03  0.7818608E-02  0.1138473E+00
          2   -1    0    0  502    0  0.00000000000E+00  0.00000000000E+00  0.13037238482E+03  0.13037238482E+03  0.00000000000E+00 0. -1.
         -2   -1    0    0    0  501 -0.00000000000E+00 -0.00000000000E+00 -0.42941832103E+03  0.42941832103E+03  0.00000000000E+00 0.  1.
          6    2    1    2  502    0 -0.11653775265E+03  0.28387223043E+02 -0.27706026726E+02  0.21158169374E+03  0.17208226806E+03 0.  0.
         24    2    3    3    0    0 -0.23898920386E+02  0.67831250727E+02  0.29955782770E+00  0.10696722375E+03  0.79181186220E+02 0.  0.
         -6    2    1    2    0  501  0.11653775265E+03 -0.28387223043E+02 -0.27133990948E+03  0.34820901211E+03  0.18231096350E+03 0.  0.
        -24    2    5    5    0    0  0.13142260125E+03 -0.35870963295E+02 -0.28533738137E+03  0.32594728924E+03  0.79155467453E+02 0.  0.
          5    1    3    3  502    0 -0.92638832268E+02 -0.39444027684E+02 -0.28005584554E+02  0.10461446998E+03  0.47000000000E+01 0. -1.
        -13    1    4    4    0    0 -0.46948152002E+02  0.42483560897E+02 -0.20901873973E+02  0.66677359415E+02  0.00000000000E+00 0.  1.
         14    1    4    4    0    0  0.23049231616E+02  0.25347689831E+02  0.21201431801E+02  0.40289864336E+02  0.00000000000E+00 0. -1.
         -5    1    5    5    0  501 -0.14884848594E+02  0.74837402518E+01  0.13997471892E+02  0.22261722871E+02  0.47000000000E+01 0.  1.
         11    1    6    6    0    0  0.44811475077E+02 -0.18587742965E+02 -0.33192033456E+02  0.58781660167E+02  0.00000000000E+00 0. -1.
        -12    1    6    6    0    0  0.86611126171E+02 -0.17283220330E+02 -0.25214534792E+03  0.26716562907E+03  0.00000000000E+00 0.  1.
</event>
<event>
12    1  0.2576962E-002  0.1779654E+03  0.7818608E-02  0.1169787E+00
         -2   -1    0    0    0  501 -0.00000000000E+00  0.00000000000E+00  0.73920175499E+03  0.73920175499E+03  0.00000000000E+00 0.  1.
          2   -1    0    0  502    0  0.00000000000E+00 -0.00000000000E+00 -0.43589743012E+02  0.43589743012E+02  0.00000000000E+00 0. -1.
          6    2    1    2  502    0  0.24810947450E+02  0.37987435889E+02  0.29659874205E+03  0.34587375967E+03  0.17204422525E+03 0.  0.
         24    2    3    3    0    0 -0.48665153988E+02 -0.10122346083E+01  0.15139245937E+03  0.17846209248E+03  0.80992097554E+02 0.  0.
         -6    2    1    2    0  501 -0.24810947450E+02 -0.37987435889E+02  0.39901326993E+03  0.43691773833E+03  0.17212464116E+03 0.  0.
        -24    2    5    5    0    0 -0.65898437416E+02 -0.71195350269E+02  0.27603975001E+03  0.30299416307E+03  0.78715546861E+02 0.  0.
          5    1    3    3  502    0  0.73476101438E+02  0.38999670497E+02  0.14520628268E+03  0.16741166719E+03  0.47000000000E+01 0. -1.
        -11    1    4    4    0    0 -0.38443289225E-01  0.85383539719E+01  0.11889495906E+03  0.11920115879E+03  0.00000000000E+00 0.  1.
         12    1    4    4    0    0 -0.48626710699E+02 -0.95505885802E+01  0.32497500312E+02  0.59260933693E+02  0.00000000000E+00 0. -1.
         -5    1    5    5    0  501  0.41087489966E+02  0.33207914381E+02  0.12297351992E+03  0.13392357526E+03  0.47000000000E+01 0.  1.
         13    1    6    6    0    0 -0.39064501368E+02  0.28396411251E+01  0.14421902133E+03  0.14944304916E+03  0.00000000000E+00 0. -1.
        -14    1    6    6    0    0 -0.26833936048E+02 -0.74034991395E+02  0.13182072868E+03  0.15355111392E+03  0.00000000000E+00 0.  1.
</event>
<event>
12    1  0.2576962E-002  0.1816766E+03  0.7818608E-02  0.1166190E+00
          1   -1    0    0  502    0  0.00000000000E+00  0.00000000000E+00  0.15709839255E+03  0.15709839255E+03  0.00000000000E+00 0.  1.
         -1   -1    0    0    0  501 -0.00000000000E+00 -0.00000000000E+00 -0.25235104850E+03  0.25235104850E+03  0.00000000000E+00 0. -1.
          6    2    1    2  502    0 -0.29262487950E+02 -0.46069342719E+02 -0.13193545040E+03  0.22675391657E+03  0.17615816208E+03 0.  0.
         24    2    3    3    0    0  0.76127508713E+01 -0.82804681072E+02 -0.43156389808E+02  0.12373411303E+03  0.80827517358E+02 0.  0.
         -6    2    1    2    0  501  0.29262487950E+02  0.46069342719E+02  0.36682794456E+02  0.18269552448E+03  0.17045043185E+03 0.  0.
        -24    2    5    5    0    0 -0.47558138324E+01  0.24902844840E+02 -0.43062615004E+02  0.93327264910E+02  0.78821444534E+02 0.  0.
          5    1    3    3  502    0 -0.36875238821E+02  0.36735338352E+02 -0.88779060592E+02  0.10301980354E+03  0.47000000000E+01 0. -1.
        -13    1    4    4    0    0 -0.15894225888E+02  0.10788827319E+02 -0.10276469983E+02  0.21786028706E+02  0.00000000000E+00 0.  1.
         14    1    4    4    0    0  0.23506976759E+02 -0.93593508390E+02 -0.32879919825E+02  0.10194808432E+03  0.00000000000E+00 0. -1.
         -5    1    5    5    0  501  0.34018301782E+02  0.21166497879E+02  0.79745409460E+02  0.89368259570E+02  0.47000000000E+01 0.  1.
         13    1    6    6    0    0 -0.45996727186E+01 -0.28385117736E+02 -0.21214482139E+02  0.35734103465E+02  0.00000000000E+00 0. -1.
        -14    1    6    6    0    0 -0.15614111378E+00  0.53287962576E+02 -0.21848132865E+02  0.57593161445E+02  0.00000000000E+00 0.  1.
</event>
<event>
12    1  0.2576962E-002  0.1827491E+03  0.7818608E-02  0.1165169E+00
         -2   -1    0    0    0  501 -0.00000000000E+00  0.00000000000E+00  0.50689135747E+02  0.50689135747E+02  0.00000000000E+00 0.  1.
          2   -1    0    0  502    0  0.00000000000E+00 -0.00000000000E+00 -0.85212851198E+03  0.85212851198E+03  0.00000000000E+00 0. -1.
          6    2    1    2  502    0 -0.49506243631E+02 -0.42603446024E+02 -0.61788848460E+03  0.64472016941E+03  0.17208136353E+03 0.  0.
         24    2    3    3    0    0 -0.33457155430E+02  0.26798473620E+02 -0.48942004010E+03  0.49774931886E+03  0.79905377344E+02 0.  0.
         -6    2    1    2    0  501  0.49506243631E+02  0.42603446024E+02 -0.18355089164E+03  0.25809747832E+03  0.16928513438E+03 0.  0.
        -24    2    5    5    0    0  0.54368808552E+02 -0.70466823673E+01 -0.39131915183E+02  0.10523247072E+03  0.80851363828E+02 0.  0.
          5    1    3    3  502    0 -0.16049088201E+02 -0.69401919644E+02 -0.12846844449E+03  0.14697085056E+03  0.47000000000E+01 0. -1.
        -13    1    4    4    0    0  0.25466515794E+02  0.17796609755E+02 -0.16905364734E+03  0.17188484059E+03  0.00000000000E+00 0.  1.
         14    1    4    4    0    0 -0.58923671224E+02  0.90018638645E+01 -0.32036639276E+03  0.32586447826E+03  0.00000000000E+00 0. -1.
         -5    1    5    5    0  501 -0.48625649207E+01  0.49650128391E+02 -0.14441897645E+03  0.15286500759E+03  0.47000000000E+01 0.  1.
         13    1    6    6    0    0  0.83005013205E+01 -0.19651049351E+02 -0.51629522250E+02  0.55862954009E+02  0.00000000000E+00 0. -1.
        -14    1    6    6    0    0  0.46068307231E+02  0.12604366984E+02  0.12497607067E+02  0.49369516715E+02  0.00000000000E+00 0.  1.
</event>
<event>
12    1  0.2576962E-002  0.1869512E+03  0.7818608E-02  0.1161240E+00
          1   -1    0    0  502    0  0.00000000000E+00  0.00000000000E+00  0.18068693912E+03  0.18068693912E+03  0.00000000000E+00 0.  1.
         -1   -1    0    0    0  501 -0.00000000000E+00 -0.00000000000E+00 -0.23371800402E+03  0.23371800402E+03  0.00000000000E+00 0. -1.
          6    2    1    2  502    0  0.66646196623E+02 -0.28639157919E+02 -0.11255407373E+03  0.21832084133E+03  0.17243449003E+03 0.  0.
         24    2    3    3    0    0  0.65449845294E+02  0.41788648232E+02 -0.43623204269E+02  0.11965442404E+03  0.79901338358E+02 0.  0.
         -6    2    1    2    0  501 -0.66646196623E+02  0.28639157919E+02  0.59523008826E+02  0.19608410181E+03  0.17217453213E+03 0.  0.
        -24    2    5    5    0    0 -0.82696035683E+02  0.38947066261E+02 -0.11692423668E+02  0.12220867874E+03  0.80266681139E+02 0.  0.
          5    1    3    3  502    0  0.11963513296E+01 -0.70427806150E+02 -0.68930869461E+02  0.98666417288E+02  0.47000000000E+01 0. -1.
        -11    1    4    4    0    0 -0.14191380514E+02  0.19529746530E+02 -0.25271336691E+02  0.34949202259E+02  0.00000000000E+00 0.  1.
         12    1    4    4    0    0  0.79641225808E+02  0.22258901702E+02 -0.18351867577E+02  0.84705221779E+02  0.00000000000E+00 0. -1.
         -5    1    5    5    0  501  0.16049839059E+02 -0.10307908342E+02  0.71215432494E+02  0.73875423069E+02  0.47000000000E+01 0.  1.
         13    1    6    6    0    0 -0.55487281053E+02  0.26198849846E+02 -0.45936576438E+02  0.76651074009E+02  0.00000000000E+00 0. -1.
        -14    1    6    6    0    0 -0.27208754630E+02  0.12748216415E+02  0.34244152770E+02  0.45557604735E+02  0.00000000000E+00 0.  1.
</event>
<event>
12    1  0.2576962E-002  0.2145035E+03  0.7818608E-02  0.1138049E+00
         -1   -1    0    0    0  501 -0.00000000000E+00  0.00000000000E+00  0.36056877775E+02  0.36056877775E+02  0.00000000000E+00 0.  1.
          1   -1    0    0  502    0  0.00000000000E+00 -0.00000000000E+00 -0.14469347562E+04  0.14469347562E+04  0.00000000000E+00 0. -1.
          6    2    1    2  502    0 -0.77549962984E+02 -0.10286086965E+03 -0.95748960333E+03  0.98101843724E+03  0.17034223923E+03 0.  0.
         24    2    3    3    0    0 -0.98933926778E+02 -0.12650357538E+03 -0.85199993365E+03  0.87071697828E+03  0.80331145047E+02 0.  0.
         -6    2    1    2    0  501  0.77549962984E+02  0.10286086965E+03 -0.45338827508E+03  0.50197319671E+03  0.17268991568E+03 0.  0.
        -24    2    5    5    0    0  0.11735647760E+03  0.89745126265E+02 -0.40250834970E+03  0.43588660097E+03  0.78469272995E+02 0.  0.
          5    1    3    3  502    0  0.21383963794E+02  0.23642705731E+02 -0.10548966967E+03  0.11030145897E+03  0.47000000000E+01 0. -1.
        -11    1    4    4    0    0 -0.11429398197E+01 -0.33693660662E+02 -0.76703812259E+02  0.83785702213E+02  0.00000000000E+00 0.  1.
         12    1    4    4    0    0 -0.97790986959E+02 -0.92809914714E+02 -0.77529612139E+03  0.78693127606E+03  0.00000000000E+00 0. -1.
         -5    1    5    5    0  501 -0.39806514616E+02  0.13115743381E+02 -0.50879925380E+02  0.66086595743E+02  0.47000000000E+01 0.  1.
         13    1    6    6    0    0 -0.19870984531E+01  0.10431135117E+02 -0.10639421935E+03  0.10692280884E+03  0.00000000000E+00 0. -1.
        -14    1    6    6    0    0  0.11934357605E+03  0.79313991148E+02 -0.29611413035E+03  0.32896379212E+03  0.00000000000E+00 0.  1.
</event>
<event>
12    1  0.2576962E-002  0.1853406E+03  0.7818608E-02  0.1162732E+00
          1   -1    0    0  502    0  0.00000000000E+00  0.00000000000E+00  0.28648329781E+04  0.28648329781E+04  0.00000000000E+00 0.  1.
         -1   -1    0    0    0  501 -0.00000000000E+00 -0.00000000000E+00 -0.14102241071E+02  0.14102241071E+02  0.00000000000E+00 0. -1.
          6    2    1    2  502    0  0.44876139153E+02 -0.47077637376E+02  0.19663105963E+04  0.19748029590E+04  0.17099471920E+03 0.  0.
         24    2    3    3    0    0  0.68072386548E+02 -0.55116713162E+02  0.19036954348E+04  0.19073830726E+04  0.79888518055E+02 0.  0.
         -6    2    1    2    0  501 -0.44876139153E+02  0.47077637376E+02  0.88442014073E+03  0.90413226016E+03  0.17614195051E+03 0.  0.
        -24    2    5    5    0    0  0.39566359164E+02 -0.45350428150E+01  0.40417520452E+03  0.41377352104E+03  0.79150915172E+02 0.  0.
          5    1    3    3  502    0 -0.23196247395E+02  0.80390757855E+01  0.62615161472E+02  0.67419886376E+02  0.47000000000E+01 0. -1.
        -11    1    4    4    0    0 -0.16671107114E+02 -0.15960946743E+02  0.25319001588E+03  0.25423977221E+03  0.00000000000E+00 0.  1.
         12    1    4    4    0    0  0.84743493661E+02 -0.39155766419E+02  0.16505054190E+04  0.16531433004E+04  0.00000000000E+00 0. -1.
         -5    1    5    5    0  501 -0.84442498317E+02  0.51612680191E+02  0.48024493621E+03  0.49035873912E+03  0.47000000000E+01 0.  1.
         13    1    6    6    0    0  0.64092262665E+01  0.35784480858E+02  0.15916171291E+03  0.16326070595E+03  0.00000000000E+00 0. -1.
        -14    1    6    6    0    0  0.33157132898E+02 -0.40319523673E+02  0.24501349161E+03  0.25051281509E+03  0.00000000000E+00 0.  1.
</event>
<event>
12    1  0.2576962E-002  0.2291399E+03  0.7818608E-02  0.1127247E+00
         -1   -1    0    0    0  501 -0.00000000000E+00  0.00000000000E+00  0.17918705545E+03  0.17918705545E+03  0.00000000000E+00 0.  1.
          1   -1    0    0  502    0  0.00000000000E+00 -0.00000000000E+00 -0.10988371430E+04  0.10988371430E+04  0.00000000000E+00 0. -1.
          6    2    1    2  502    0 -0.14759968343E+03 -0.45080413711E+02 -0.10065334192E+04  0.10320764028E+04  0.16809005624E+03 0.  0.
         24    2    3    3    0    0 -0.87496912519E+01 -0.37435954458E+02 -0.34529239844E+03  0.35635491016E+03  0.79271519421E+02 0.  0.
         -6    2    1    2    0  501  0.14759968343E+03  0.45080413711E+02  0.86883331606E+02  0.24594779569E+03  0.17065665720E+03 0.  0.
        -24    2    5    5    0    0  0.16769067517E+03  0.87305814660E+01  0.84851383971E+02  0.20410072812E+03  0.79126255226E+02 0.  0.
          5    1    3    3  502    0 -0.13884999218E+03 -0.76444592534E+01 -0.66124102072E+03  0.67572149261E+03  0.47000000000E+01 0. -1.
        -13    1    4    4    0    0 -0.14821148978E+02 -0.61221161360E+02 -0.22937388427E+03  0.23786566764E+03  0.00000000000E+00 0.  1.
         14    1    4    4    0    0  0.60714577259E+01  0.23785206902E+02 -0.11591851417E+03  0.11848924252E+03  0.00000000000E+00 0. -1.
         -5    1    5    5    0  501 -0.20090991739E+02  0.36349832245E+02  0.20319476348E+01  0.41847067574E+02  0.47000000000E+01 0.  1.
         13    1    6    6    0    0  0.51496421547E+02  0.11635956791E+02 -0.10420718614E+02  0.53813272517E+02  0.00000000000E+00 0. -1.
        -14    1    6    6    0    0  0.11619425362E+03 -0.29053753249E+01  0.95272102586E+02  0.15028745560E+03  0.00000000000E+00 0.  1.
</event>
<event>
12    1  0.2576962E-002  0.2357883E+03  0.7818608E-02  0.1122631E+00
          1   -1    0    0  502    0  0.00000000000E+00  0.00000000000E+00  0.10617265458E+04  0.10617265458E+04  0.00000000000E+00 0.  1.
         -1   -1    0    0    0  501 -0.00000000000E+00 -0.00000000000E+00 -0.62330791944E+02  0.62330791944E+02  0.00000000000E+00 0. -1.
          6    2    1    2  502    0 -0.15853826272E+03 -0.32368637391E+02  0.72524442457E+03  0.76275113248E+03  0.17212700340E+03 0.  0.
         24    2    3    3    0    0 -0.86226117411E+02  0.46885781330E+02  0.45414195094E+03  0.47115389235E+03  0.78152791726E+02 0.  0.
         -6    2    1    2    0  501  0.15853826272E+03  0.32368637391E+02  0.27415132931E+03  0.36130620529E+03  0.17088333209E+03 0.  0.
        -24    2    5    5    0    0  0.17396840055E+02 -0.17063551635E+02  0.12512642657E+03  0.15013103123E+03  0.79302516185E+02 0.  0.
          5    1    3    3  502    0 -0.72312145305E+02 -0.79254418721E+02  0.27110247362E+03  0.29159724013E+03  0.47000000000E+01 0. -1.
        -13    1    4    4    0    0 -0.93212800181E+02  0.46372376237E+02  0.45198988714E+03  0.46382527041E+03  0.00000000000E+00 0.  1.
         14    1    4    4    0    0  0.69866827700E+01  0.51340509296E+00  0.21520638058E+01  0.73286219402E+01  0.00000000000E+00 0. -1.
         -5    1    5    5    0  501  0.14114142266E+03  0.49432189025E+02  0.14902490274E+03  0.21117517406E+03  0.47000000000E+01 0.  1.
         13    1    6    6    0    0  0.35957076752E+02  0.97430465497E+01  0.25089081554E+02  0.44914366720E+02  0.00000000000E+00 0. -1.
        -14    1    6    6    0    0 -0.18560236697E+02 -0.26806598185E+02  0.10003734502E+03  0.10521666451E+03  0.00000000000E+00 0.  1.
</event>
<event>
12    1  0.2576962E-002  0.1842575E+03  0.7818608E-02  0.1163745E+00
          2   -1    0    0  502    0  0.00000000000E+00  0.00000000000E+00  0.18157131509E+04  0.18157131509E+04  0.00000000000E+00 0. -1.
         -2   -1    0    0    0  501 -0.00000000000E+00 -0.00000000000E+00 -0.20090541563E+02  0.20090541563E+02  0.00000000000E+00 0.  1.
          6    2    1    2  502    0  0.63406106259E+02  0.15519629235E+02  0.11320134051E+04  0.11466549384E+04  0.17059309845E+03 0.  0.
         24    2    3    3    0    0 -0.31078929917E+02  0.78153970632E+01  0.48365356721E+03  0.49138450061E+03  0.80690606965E+02 0.  0.
         -6    2    1    2    0  501 -0.63406106259E+02 -0.15519629235E+02  0.66360920423E+03  0.68914875405E+03  0.17403343377E+03 0.  0.
        -24    2    5    5    0    0  0.13609081169E+02  0.34473828707E+02  0.43723440995E+03  0.44481635256E+03  0.72897231132E+02 0.  0.
          5    1    3    3  502    0  0.94485036176E+02  0.77042321723E+01  0.64835983785E+03  0.65527043775E+03  0.47000000000E+01 0. -1.
        -13    1    4    4    0    0 -0.15649739547E+02  0.25439435880E+02  0.44627267446E+03  0.44727103553E+03  0.00000000000E+00 0.  1.
         14    1    4    4    0    0 -0.15429190369E+02 -0.17624038816E+02  0.37380892743E+02  0.44113465086E+02  0.00000000000E+00 0. -1.
         -5    1    5    5    0  501 -0.77015187428E+02 -0.49993457943E+02  0.22637479428E+03  0.24433240149E+03  0.47000000000E+01 0.  1.
         13    1    6    6    0    0  0.31691929147E+02  0.44169172281E+02  0.22007856922E+03  0.22669334084E+03  0.00000000000E+00 0. -1.
        -14    1    6    6    0    0 -0.18082847978E+02 -0.96953435742E+01  0.21715584073E+03  0.21812301172E+03  0.00000000000E+00 0.  1.
</event>
<event>
12    1  0.2576962E-002  0.1717123E+03  0.7818608E-02  0.1176074E+00
         -2   -1    0    0    0  501 -0.00000000000E+00  0.00000000000E+00  0.10781892452E+03  0.10781892452E+03  0.00000000000E+00 0.  1.
          2   -1    0    0  502    0  0.00000000000E+00 -0.00000000000E+00 -0.30307138978E+03  0.30307138978E+03  0.00000000000E+00 0. -1.
          6    2    1    2  502    0  0.19068414378E+02 -0.26458280530E+02 -0.34200778696E+02  0.17654126101E+03  0.17009843779E+03 0.  0.
         24    2    3    3    0    0  0.75251554249E+02  0.36965924474E+01 -0.20456600243E+02  0.11114360041E+03  0.79107308174E+02 0.  0.
         -6    2    1    2    0  501 -0.19068414378E+02  0.26458280530E+02 -0.16105168656E+03  0.23434905330E+03  0.16708736637E+03 0.  0.
        -24    2    5    5    0    0 -0.63416937079E+02  0.22139501783E+02 -0.15755717130E+03  0.18940748064E+03  0.80864491894E+02 0.  0.
          5    1    3    3  502    0 -0.56183139871E+02 -0.30154872978E+02 -0.13744178453E+02  0.65397660596E+02  0.47000000000E+01 0. -1.
        -11    1    4    4    0    0  0.17905062840E+02 -0.32955630162E+02  0.62682567790E+01  0.38025726524E+02  0.00000000000E+00 0.  1.
         12    1    4    4    0    0  0.57346491410E+02  0.36652222609E+02 -0.26724857022E+02  0.73117873889E+02  0.00000000000E+00 0. -1.
         -5    1    5    5    0  501  0.44348522701E+02  0.43187787468E+01 -0.34945152641E+01  0.44941572653E+02  0.47000000000E+01 0.  1.
         13    1    6    6    0    0 -0.36450410475E+02 -0.11465200131E+02 -0.13592779873E+03  0.14119649325E+03  0.00000000000E+00 0. -1.
        -14    1    6    6    0    0 -0.26966526604E+02  0.33604701915E+02 -0.21629372562E+02  0.48210987392E+02  0.00000000000E+00 0.  1.
</event>
<event>
12    1  0.2576962E-002  0.2968896E+03  0.7818608E-02  0.1086806E+00
         -1   -1    0    0    0  501 -0.00000000000E+00  0.00000000000E+00  0.14003583781E+03  0.14003583781E+03  0.00000000000E+00 0.  1.
          1   -1    0    0  502    0  0.00000000000E+00 -0.00000000000E+00 -0.71110704443E+03  0.71110704443E+03  0.00000000000E+00 0. -1.
          6    2    1    2  502    0 -0.16787374729E+03  0.17462696823E+03 -0.42982310667E+03  0.52243143057E+03  0.17178627290E+03 0.  0.
         24    2    3    3    0    0 -0.10641309486E+03  0.54895450733E+02 -0.29543306395E+03  0.33217943541E+03  0.93408911600E+02 0.  0.
         -6    2    1    2    0  501  0.16787374729E+03 -0.17462696823E+03 -0.14124809996E+03  0.32871145167E+03  0.17153431042E+03 0.  0.
        -24    2    5    5    0    0  0.15278124589E+03 -0.82065415544E+02 -0.13551759365E+03  0.23463513511E+03  0.81312895145E+02 0.  0.
          5    1    3    3  502    0 -0.61460652435E+02  0.11973151749E+03 -0.13439004271E+03  0.19025199515E+03  0.47000000000E+01 0. -1.
        -13    1    4    4    0    0 -0.65158189523E+02  0.14916980493E+02 -0.59946701675E+02  0.89787042555E+02  0.00000000000E+00 0.  1.
         14    1    4    4    0    0 -0.41254905335E+02  0.39978470240E+02 -0.23548636228E+03  0.24239239286E+03  0.00000000000E+00 0. -1.
         -5    1    5    5    0  501  0.15092501407E+02 -0.92561552683E+02 -0.57305063023E+01  0.94076316554E+02  0.47000000000E+01 0.  1.
         11    1    6    6    0    0  0.11143275797E+03 -0.56883553742E+02 -0.46820720329E+02  0.13358584539E+03  0.00000000000E+00 0. -1.
        -12    1    6    6    0    0  0.41348487914E+02 -0.25181861802E+02 -0.88696873324E+02  0.10104928973E+03  0.00000000000E+00 0.  1.
</event>
<event>
12    1  0.2576962E-002  0.1989157E+03  0.7818608E-02  0.1150657E+00
         -1   -1    0    0    0  501 -0.00000000000E+00  0.00000000000E+00  0.15900420326E+03  0.15900420326E+03  0.00000000000E+00 0. -1.
          1   -1    0    0  502    0  0.00000000000E+00 -0.00000000000E+00 -0.31763317897E+03  0.31763317897E+03  0.00000000000E+00 0.  1.
          6    2    1    2  502    0  0.70267820874E+02  0.70346016412E+02 -0.18982099415E+03  0.27405692155E+03  0.17084805457E+03 0.  0.
         24    2    3    3    0    0 -0.29585353914E+00  0.86800279947E+02 -0.85703917625E+02  0.14712217233E+03  0.82252027124E+02 0.  0.
         -6    2    1    2    0  501 -0.70267820874E+02 -0.70346016412E+02  0.31192018442E+02  0.20258046068E+03  0.17372326372E+03 0.  0.
        -24    2    5    5    0    0 -0.34533404550E+02 -0.10590663063E+03 -0.11253544128E+02  0.13651063719E+03  0.78100841039E+02 0.  0.
          5    1    3    3  502    0  0.70563674413E+02 -0.16454263534E+02 -0.10411707653E+03  0.12693474922E+03  0.47000000000E+01 0. -1.
        -13    1    4    4    0    0  0.39202754909E+02  0.31384548919E+02 -0.25786439224E+02  0.56451628419E+02  0.00000000000E+00 0.  1.
         14    1    4    4    0    0 -0.39498608448E+02  0.55415731028E+02 -0.59917478401E+02  0.90670543908E+02  0.00000000000E+00 0. -1.
         -5    1    5    5    0  501 -0.35734416323E+02  0.35560614213E+02  0.42445562570E+02  0.66069823483E+02  0.47000000000E+01 0.  1.
         13    1    6    6    0    0  0.92647473405E+01 -0.79746540401E+02  0.10659697643E+02  0.80987501524E+02  0.00000000000E+00 0. -1.
        -14    1    6    6    0    0 -0.43798151891E+02 -0.26160090225E+02 -0.21913241771E+02  0.55523135669E+02  0.00000000000E+00 0.  1.
</event>
<event>
12    1  0.2576962E-002  0.2002723E+03  0.7818608E-02  0.1149509E+00
          1   -1    0    0  502    0  0.00000000000E+00  0.00000000000E+00  0.62244730554E+03  0.62244730554E+03  0.00000000000E+00 0. -1.
         -1   -1    0    0    0  501 -0.00000000000E+00 -0.00000000000E+00 -0.65194019253E+02  0.65194019253E+02  0.00000000000E+00 0.  1.
          6    2    1    2  502    0  0.93480607257E+02  0.43297740927E+02  0.31542649435E+03  0.37354348839E+03  0.17154458919E+03 0.  0.
         24    2    3    3    0    0  0.22867525439E+02 -0.39140386538E+02  0.13202902495E+03  0.16037929355E+03  0.78961767899E+02 0.  0.
         -6    2    1    2    0  501 -0.93480607257E+02 -0.43297740927E+02  0.24182679193E+03  0.31409783639E+03  0.17194166229E+03 0.  0.
        -24    2    5    5    0    0 -0.97631325079E+02  0.22735961841E+02  0.12067167338E+03  0.17597350432E+03  0.79725917174E+02 0.  0.
          5    1    3    3  502    0  0.70613081818E+02  0.82438127464E+02  0.18339746940E+03  0.21316419485E+03  0.47000000000E+01 0. -1.
        -11    1    4    4    0    0  0.27313887847E+02  0.16797342365E+02  0.68389689244E+02  0.75533759172E+02  0.00000000000E+00 0.  1.
         12    1    4    4    0    0 -0.44463624072E+01 -0.55937728903E+02  0.63639335711E+02  0.84845534374E+02  0.00000000000E+00 0. -1.
         -5    1    5    5    0  501  0.41507178219E+01 -0.66033702768E+02  0.12115511855E+03  0.13812433207E+03  0.47000000000E+01 0.  1.
         13    1    6    6    0    0 -0.69878269527E+01  0.13861864154E+02  0.70099929259E+02  0.71798196951E+02  0.00000000000E+00 0. -1.
        -14    1    6    6    0    0 -0.90643498127E+02  0.88740976873E+01  0.50571744124E+02  0.10417530737E+03  0.00000000000E+00 0.  1.
</event>
<event>
12    1  0.2576962E-002  0.1986487E+03  0.7818608E-02  0.1150884E+00
          3   -1    0    0  502    0  0.00000000000E+00  0.00000000000E+00  0.37834600604E+03  0.37834600604E+03  0.00000000000E+00 0. -1.
         -3   -1    0    0    0  501 -0.00000000000E+00 -0.00000000000E+00 -0.12716553056E+03  0.12716553056E+03  0.00000000000E+00 0.  1.
          6    2    1    2  502    0 -0.10116936582E+03  0.18904746315E+02  0.23398201474E+03  0.30851616509E+03  0.17274840342E+03 0.  0.
         24    2    3    3    0    0 -0.99409539489E+02  0.59987110832E+02  0.22493264417E+03  0.26615062755E+03  0.82223792942E+02 0.  0.
         -6    2    1    2    0  501  0.10116936582E+03 -0.18904746315E+02  0.17198460734E+02  0.19699537152E+03  0.16708907604E+03 0.  0.
        -24    2    5    5    0    0  0.88779365814E+02 -0.51959375292E+02  0.58743835609E+02  0.14227582500E+03  0.78803678108E+02 0.  0.
          5    1    3    3  502    0 -0.17598263351E+01 -0.41082364518E+02  0.90493705713E+01  0.42365537537E+02  0.47000000000E+01 0. -1.
        -11    1    4    4    0    0 -0.73136818640E+01 -0.11678698377E+02  0.12228140729E+01  0.13833915297E+02  0.00000000000E+00 0.  1.
         12    1    4    4    0    0 -0.92095857625E+02  0.71665809209E+02  0.22370983010E+03  0.25231671226E+03  0.00000000000E+00 0. -1.
         -5    1    5    5    0  501  0.12390000011E+02  0.33054628977E+02 -0.41545374874E+02  0.54719546512E+02  0.47000000000E+01 0.  1.
         13    1    6    6    0    0  0.66301550320E+02 -0.13376599567E+02  0.68826987422E+02  0.96498617546E+02  0.00000000000E+00 0. -1.
        -14    1    6    6    0    0  0.22477815493E+02 -0.38582775725E+02 -0.10083151813E+02  0.45777207456E+02  0.00000000000E+00 0.  1.
</event>
<event>
12    1  0.2576962E-002  0.3025982E+03  0.7818608E-02  0.1083949E+00
          2   -1    0    0  502    0  0.00000000000E+00  0.00000000000E+00  0.15232058646E+04  0.15232058646E+04  0.00000000000E+00 0.  1.
         -2   -1    0    0    0  501 -0.00000000000E+00 -0.00000000000E+00 -0.74344827022E+02  0.74344827022E+02  0.00000000000E+00 0. -1.
          6    2    1    2  502    0 -0.21712602924E+03 -0.12299154085E+03  0.37557763814E+03  0.48251318268E+03  0.17172587894E+03 0.  0.
         24    2    3    3    0    0 -0.11078467641E+03 -0.38263242998E+01  0.12863721242E+03  0.18838651608E+03  0.81572432436E+02 0.  0.
         -6    2    1    2    0  501  0.21712602924E+03  0.12299154085E+03  0.10732833994E+04  0.11150375089E+04  0.17058944616E+03 0.  0.
        -24    2    5    5    0    0  0.20918630801E+03  0.15321123638E+03  0.95854464991E+03  0.99602767819E+03  0.77657552385E+02 0.  0.
          5    1    3    3  502    0 -0.10634135283E+03 -0.11916521655E+03  0.24694042572E+03  0.29412666661E+03  0.47000000000E+01 0. -1.
        -11    1    4    4    0    0  0.82786668042E+01 -0.15608565531E+01  0.37485113486E+02  0.38420129233E+02  0.00000000000E+00 0.  1.
         12    1    4    4    0    0 -0.11906334322E+03 -0.22654677467E+01  0.91152098939E+02  0.14996638684E+03  0.00000000000E+00 0. -1.
         -5    1    5    5    0  501  0.79397212244E+01 -0.30219695532E+02  0.11473874951E+03  0.11900983073E+03  0.47000000000E+01 0.  1.
         13    1    6    6    0    0 -0.38876672967E+01  0.13526578109E+01  0.24800052511E+01  0.48056285966E+01  0.00000000000E+00 0. -1.
        -14    1    6    6    0    0  0.21307397531E+03  0.15185857857E+03  0.95606464465E+03  0.99122204959E+03  0.00000000000E+00 0.  1.
</event>
<event>
12    1  0.2576962E-002  0.1831383E+03  0.7818608E-02  0.1164800E+00
         -1   -1    0    0    0  501 -0.00000000000E+00  0.00000000000E+00  0.19677075123E+03  0.19677075123E+03  0.00000000000E+00 0. -1.
          1   -1    0    0  502    0  0.00000000000E+00 -0.00000000000E+00 -0.19391655651E+03  0.19391655651E+03  0.00000000000E+00 0.  1.
          6    2    1    2  502    0  0.29782260122E+00 -0.61565135934E+02 -0.66525233848E+02  0.19499865532E+03  0.17265142391E+03 0.  0.
         24    2    3    3    0    0 -0.51594678168E+02 -0.72672889967E+02 -0.17094737796E+02  0.12232350293E+03  0.82021031185E+02 0.  0.
         -6    2    1    2    0  501 -0.29782260122E+00  0.61565135934E+02  0.69379428564E+02  0.19568865242E+03  0.17230841221E+03 0.  0.
        -24    2    5    5    0    0 -0.35050932242E+02  0.37822093962E+02  0.10392329473E+03  0.14103630241E+03  0.80200428732E+02 0.  0.
          5    1    3    3  502    0  0.51892500769E+02  0.11107754033E+02 -0.49430496052E+02  0.72675152395E+02  0.47000000000E+01 0. -1.
        -13    1    4    4    0    0  0.56505702171E+01 -0.46252695426E+02 -0.33244311849E+02  0.57240065062E+02  0.00000000000E+00 0.  1.
         14    1    4    4    0    0 -0.57245248385E+02 -0.26420194541E+02  0.16149574053E+02  0.65083437865E+02  0.00000000000E+00 0. -1.
         -5    1    5    5    0  501  0.34753109641E+02  0.23743041972E+02 -0.34543866161E+02  0.54652350006E+02  0.47000000000E+01 0.  1.
         11    1    6    6    0    0  0.18902783263E+02  0.34239495979E+02  0.58747797140E+02  0.70575930520E+02  0.00000000000E+00 0. -1.
        -12    1    6    6    0    0 -0.53953715505E+02  0.35825979831E+01  0.45175497586E+02  0.70460371893E+02  0.00000000000E+00 0.  1.
</event>
<event>
12    1  0.2576962E-002  0.2753875E+03  0.7818608E-02  0.1098235E+00
         -1   -1    0    0    0  501 -0.00000000000E+00  0.00000000000E+00  0.12221212442E+04  0.12221212442E+04  0.00000000000E+00 0.  1.
          1   -1    0    0  502    0  0.00000000000E+00 -0.00000000000E+00 -0.72196938512E+02  0.72196938512E+02  0.00000000000E+00 0. -1.
          6    2    1    2  502    0  0.21451304256E+03 -0.12818947222E+02  0.81793905750E+03  0.86312841421E+03  0.17258675147E+03 0.  0.
         24    2    3    3    0    0  0.99371042350E+02 -0.51805179730E+02  0.57685174864E+03  0.59308621929E+03  0.80218095852E+02 0.  0.
         -6    2    1    2    0  501 -0.21451304256E+03  0.12818947222E+02  0.33198524823E+03  0.43118976855E+03  0.17184365168E+03 0.  0.
        -24    2    5    5    0    0 -0.16306986659E+03 -0.38317472058E+02  0.16279522892E+03  0.24704665473E+03  0.80434774843E+02 0.  0.
          5    1    3    3  502    0  0.11514200021E+03  0.38986232509E+02  0.24108730886E+03  0.27004219491E+03  0.47000000000E+01 0. -1.
        -13    1    4    4    0    0 -0.67122316049E+01  0.77971829553E+01  0.14869999470E+02  0.18082228828E+02  0.00000000000E+00 0.  1.
         14    1    4    4    0    0  0.10608327396E+03 -0.59602362686E+02  0.56198174917E+03  0.57500399047E+03  0.00000000000E+00 0. -1.
         -5    1    5    5    0  501 -0.51443175978E+02  0.51136419280E+02  0.16919001931E+03  0.18414311382E+03  0.47000000000E+01 0.  1.
         13    1    6    6    0    0 -0.41879807863E+02  0.20306115838E+02  0.67971232146E+02  0.82379275589E+02  0.00000000000E+00 0. -1.
        -14    1    6    6    0    0 -0.12119005872E+03 -0.58623587897E+02  0.94823996772E+02  0.16466737915E+03  0.00000000000E+00 0.  1.
</event>
<event>
12    1  0.2576962E-002  0.2049505E+03  0.7818608E-02  0.1145628E+00
         -2   -1    0    0    0  501 -0.00000000000E+00  0.00000000000E+00  0.28293577794E+02  0.28293577794E+02  0.00000000000E+00 0. -1.
          2   -1    0    0  502    0  0.00000000000E+00 -0.00000000000E+00 -0.16693242111E+04  0.16693242111E+04  0.00000000000E+00 0.  1.
          6    2    1    2  502    0 -0.31953306953E+01  0.11126384191E+03 -0.53803197328E+03  0.57573311264E+03  0.17204755177E+03 0.  0.
         24    2    3    3    0    0  0.18463270417E+02  0.87178861254E+02 -0.18461944168E+03  0.22080820680E+03  0.82041938917E+02 0.  0.
         -6    2    1    2    0  501  0.31953306953E+01 -0.11126384191E+03 -0.11029986600E+04  0.11218846762E+04  0.17213172320E+03 0.  0.
        -24    2    5    5    0    0 -0.56239208040E+02 -0.87825754435E+02 -0.50068831668E+03  0.51617711642E+03  0.69812702197E+02 0.  0.
          5    1    3    3  502    0 -0.21658601112E+02  0.24084980656E+02 -0.35341253160E+03  0.35492490584E+03  0.47000000000E+01 0. -1.
        -13    1    4    4    0    0 -0.29064032415E+02  0.25957461279E+02 -0.92809743728E+02  0.10065861268E+03  0.00000000000E+00 0.  1.
         14    1    4    4    0    0  0.47527302831E+02  0.61221399975E+02 -0.91809697953E+02  0.12014959412E+03  0.00000000000E+00 0. -1.
         -5    1    5    5    0  501  0.59434538735E+02 -0.23438087475E+02 -0.60231034334E+03  0.60570755982E+03  0.47000000000E+01 0.  1.
         13    1    6    6    0    0 -0.25427621583E+02 -0.76289154392E+02 -0.23325374280E+03  0.24672638195E+03  0.00000000000E+00 0. -1.
        -14    1    6    6    0    0 -0.30811586456E+02 -0.11536600042E+02 -0.26743457388E+03  0.26945073447E+03  0.00000000000E+00 0.  1.
</event>
<event>
12    1  0.2576962E-002  0.2615319E+03  0.7818608E-02  0.1106226E+00
          1   -1    0    0  502    0  0.00000000000E+00  0.00000000000E+00  0.62801832932E+03  0.62801832932E+03  0.00000000000E+00 0.  1.
         -1   -1    0    0    0  501 -0.00000000000E+00 -0.00000000000E+00 -0.11778337099E+03  0.11778337099E+03  0.00000000000E+00 0. -1.
          6    2    1    2  502    0 -0.13376183118E+03 -0.14420805112E+03  0.15250620852E+03  0.30248733055E+03  0.17190768459E+03 0.  0.
         24    2    3    3    0    0 -0.12603747056E+02 -0.44239931271E+02  0.11278134525E+02  0.91204663921E+02  0.77942725407E+02 0.  0.
         -6    2    1    2    0  501  0.13376183118E+03  0.14420805112E+03  0.35772874981E+03  0.44331436975E+03  0.17282818781E+03 0.  0.
        -24    2    5    5    0    0  0.99379000967E+02  0.68949107166E+02  0.32203815163E+03  0.35308135774E+03  0.79546897294E+02 0.  0.
          5    1    3    3  502    0 -0.12115808412E+03 -0.99968119844E+02  0.14122807400E+03  0.21128266663E+03  0.47000000000E+01 0. -1.
        -13    1    4    4    0    0 -0.12910778312E+02  0.61649505258E+01  0.33265733190E+02  0.36211929199E+02  0.00000000000E+00 0.  1.
         14    1    4    4    0    0  0.30703125623E+00 -0.50404881797E+02 -0.21987598666E+02  0.54992734722E+02  0.00000000000E+00 0. -1.
         -5    1    5    5    0  501  0.34382830213E+02  0.75258943949E+02  0.35690598180E+02  0.90233012009E+02  0.47000000000E+01 0.  1.
         13    1    6    6    0    0  0.37126563021E+02  0.58279147705E+02  0.95331791561E+02  0.11774120443E+03  0.00000000000E+00 0. -1.
        -14    1    6    6    0    0  0.62252437946E+02  0.10669959462E+02  0.22670636007E+03  0.23534015331E+03  0.00000000000E+00 0.  1.
</event>
<event>
12    1  0.2576962E-002  0.2029499E+03  0.7818608E-02  0.1147274E+00
         -2   -1    0    0    0  501 -0.00000000000E+00  0.00000000000E+00  0.74463396883E+02  0.74463396883E+02  0.00000000000E+00 0.  1.
          2   -1    0    0  502    0  0.00000000000E+00 -0.00000000000E+00 -0.59309792784E+03  0.59309792784E+03  0.00000000000E+00 0. -1.
          6    2    1    2  502    0 -0.97590085908E+01 -0.10828360012E+03 -0.17319216902E+03  0.26712892665E+03  0.17187716469E+03 0.  0.
         24    2    3    3    0    0 -0.46177315985E+02 -0.43833388400E+02 -0.16444831772E+03  0.19243844640E+03  0.77042819275E+02 0.  0.
         -6    2    1    2    0  501  0.97590085908E+01  0.10828360012E+03 -0.34544236193E+03  0.40043239807E+03  0.17086574759E+03 0.  0.
        -24    2    5    5    0    0 -0.47679672277E+01  0.12438326198E+03 -0.18237083594E+03  0.23585826666E+03  0.82922076549E+02 0.  0.
          5    1    3    3  502    0  0.36418307394E+02 -0.64450211719E+02 -0.87438512935E+01  0.74690480247E+02  0.47000000000E+01 0. -1.
        -13    1    4    4    0    0 -0.35487751903E+02 -0.65635214216E+02 -0.13521717803E+03  0.15443784224E+03  0.00000000000E+00 0.  1.
         14    1    4    4    0    0 -0.10689564082E+02  0.21801825817E+02 -0.29231139691E+02  0.38000604164E+02  0.00000000000E+00 0. -1.
         -5    1    5    5    0  501  0.14526975819E+02 -0.16099661857E+02 -0.16307152600E+03  0.16457413141E+03  0.47000000000E+01 0.  1.
         13    1    6    6    0    0 -0.14971884348E+02  0.22465646345E+02 -0.10242982910E+03  0.10592795890E+03  0.00000000000E+00 0. -1.
        -14    1    6    6    0    0  0.10203917120E+02  0.10191761563E+03 -0.79941006833E+02  0.12993030776E+03  0.00000000000E+00 0.  1.
</event>
<event>
12    1  0.2576962E-002  0.2383304E+03  0.7818608E-02  0.1120910E+00
         -1   -1    0    0    0  501 -0.00000000000E+00  0.00000000000E+00  0.27828859332E+02  0.27828859332E+02  0.00000000000E+00 0.  1.
          1   -1    0    0  502    0  0.00000000000E+00 -0.00000000000E+00 -0.21222525500E+04  0.21222525500E+04  0.00000000000E+00 0. -1.
          6    2    1    2  502    0 -0.14813313716E+02 -0.16539173179E+03 -0.12533418875E+04  0.12756221932E+04  0.16962380056E+03 0.  0.
         24    2    3    3    0    0  0.52013702260E+02 -0.11391131137E+03 -0.84126208196E+03  0.85497038962E+03  0.87013013458E+02 0.  0.
         -6    2    1    2    0  501  0.14813313716E+02  0.16539173179E+03 -0.84108180321E+03  0.87445921613E+03  0.17229759657E+03 0.  0.
        -24    2    5    5    0    0  0.56551513332E+02  0.15100822811E+03 -0.76993693957E+03  0.79059835454E+03  0.79001953558E+02 0.  0.
          5    1    3    3  502    0 -0.66827015976E+02 -0.51480420424E+02 -0.41207980551E+03  0.42065180358E+03  0.47000000000E+01 0. -1.
        -13    1    4    4    0    0  0.29680693725E+02 -0.12254105709E+02 -0.73805260546E+02  0.80488031228E+02  0.00000000000E+00 0.  1.
         14    1    4    4    0    0  0.22333008535E+02 -0.10165720566E+03 -0.76745682141E+03  0.77448235839E+03  0.00000000000E+00 0. -1.
         -5    1    5    5    0  501 -0.41738199616E+02  0.14383503679E+02 -0.71144863639E+02  0.83860861595E+02  0.47000000000E+01 0.  1.
         11    1    6    6    0    0  0.25786661165E+02  0.67074395651E+02 -0.52427570302E+03  0.52917760650E+03  0.00000000000E+00 0. -1.
        -12    1    6    6    0    0  0.30764852166E+02  0.83933832461E+02 -0.24566123655E+03  0.26142074804E+03  0.00000000000E+00 0.  1.
</event>
<event>
12    1  0.2576962E-002  0.1915438E+03  0.7818608E-02  0.1157076E+00
          2   -1    0    0  502    0  0.00000000000E+00  0.00000000000E+00  0.16661100561E+03  0.16661100561E+03  0.00000000000E+00 0.  1.
         -2   -1    0    0    0  501 -0.00000000000E+00 -0.00000000000E+00 -0.23563834284E+03  0.23563834284E+03  0.00000000000E+00 0. -1.
          6    2    1    2  502    0  0.68054798752E+02 -0.52843043332E+02  0.17021478834E+02  0.19188955902E+03  0.17061075364E+03 0.  0.
         24    2    3    3    0    0  0.11073924527E+03 -0.57125690346E+02  0.12555509755E+02  0.14850364057E+03  0.79807051679E+02 0.  0.
         -6    2    1    2    0  501 -0.68054798752E+02  0.52843043332E+02 -0.86048816068E+02  0.21035978943E+03  0.17153133649E+03 0.  0.
        -24    2    5    5    0    0 -0.18771851082E+02 -0.35807746614E+02 -0.48114172638E+02  0.10196745270E+03  0.80298260820E+02 0.  0.
          5    1    3    3  502    0 -0.42684446518E+02  0.42826470138E+01  0.44659690794E+01  0.43385918451E+02  0.47000000000E+01 0. -1.
        -13    1    4    4    0    0 -0.10752990316E+02 -0.54754856908E+00  0.96395993230E+01  0.14451591099E+02  0.00000000000E+00 0.  1.
         14    1    4    4    0    0  0.12149223559E+03 -0.56578141777E+02  0.29159104318E+01  0.13405204947E+03  0.00000000000E+00 0. -1.
         -5    1    5    5    0  501 -0.49282947670E+02  0.88650789946E+02 -0.37934643430E+02  0.10839233673E+03  0.47000000000E+01 0.  1.
         13    1    6    6    0    0  0.23293093507E+02 -0.16399555338E+02  0.76250182627E+01  0.29489905458E+02  0.00000000000E+00 0. -1.
        -14    1    6    6    0    0 -0.42064944589E+02 -0.19408191276E+02 -0.55739190901E+02  0.72477547242E+02  0.00000000000E+00 0.  1.
</event>
<event>
12    1  0.2576962E-002  0.1983275E+03  0.7818608E-02  0.1151158E+00
          1   -1    0    0  502    0  0.00000000000E+00  0.00000000000E+00  0.55564284757E+03  0.55564284757E+03  0.00000000000E+00 0.  1.
         -1   -1    0    0    0  501 -0.00000000000E+00 -0.00000000000E+00 -0.11168907287E+03  0.11168907287E+03  0.00000000000E+00 0. -1.
          6    2    1    2  502    0 -0.38743619714E+02 -0.90695580745E+02  0.21539045682E+02  0.20153632387E+03  0.17443108357E+03 0.  0.
         24    2    3    3    0    0  0.24582533370E+02 -0.58897717745E+02  0.62530236182E+02  0.11953831503E+03  0.79411184475E+02 0.  0.
         -6    2    1    2    0  501  0.38743619714E+02  0.90695580745E+02  0.42241472901E+03  0.46579559657E+03  0.16971911518E+03 0.  0.
        -24    2    5    5    0    0 -0.16818815534E+02  0.10396581884E+03  0.34455404729E+03  0.36911230334E+03  0.80216188719E+02 0.  0.
          5    1    3    3  502    0 -0.63326153084E+02 -0.31797863000E+02 -0.40991190500E+02  0.81998008844E+02  0.47000000000E+01 0. -1.
        -11    1    4    4    0    0 -0.24668597416E+00 -0.66542189051E+02  0.19617250510E+02  0.69374060680E+02  0.00000000000E+00 0.  1.
         12    1    4    4    0    0  0.24829219344E+02  0.76444713054E+01  0.42912985672E+02  0.50164254346E+02  0.00000000000E+00 0. -1.
         -5    1    5    5    0  501  0.55562435248E+02 -0.13270238099E+02  0.77860681728E+02  0.96683293226E+02  0.47000000000E+01 0.  1.
         11    1    6    6    0    0 -0.37709525667E+02  0.14669844241E+02  0.95946028782E+02  0.10412902139E+03  0.00000000000E+00 0. -1.
        -12    1    6    6    0    0  0.20890710133E+02  0.89295974604E+02  0.24860801850E+03  0.26498328195E+03  0.00000000000E+00 0.  1.
</event>
<event>
12    1  0.2576962E-002  0.1865598E+03  0.7818608E-02  0.1161601E+00
         -2   -1    0    0    0  501 -0.00000000000E+00  0.00000000000E+00  0.12291160600E+02  0.12291160600E+02  0.00000000000E+00 0.  1.
          2   -1    0    0  502    0  0.00000000000E+00 -0.00000000000E+00 -0.31839702982E+04  0.31839702982E+04  0.00000000000E+00 0. -1.
          6    2    1    2  502    0  0.40467446516E+02  0.58695625611E+02 -0.10644892946E+04  0.10809464529E+04  0.17385334336E+03 0.  0.
         24    2    3    3    0    0  0.44882714294E+02  0.81500876935E+02 -0.44693935254E+03  0.46294192619E+03  0.76834830607E+02 0.  0.
         -6    2    1    2    0  501 -0.40467446516E+02 -0.58695625611E+02 -0.21071898430E+04  0.21153150059E+04  0.17095540091E+03 0.  0.
        -24    2    5    5    0    0 -0.23225088256E+02 -0.34381177389E+02 -0.20369257515E+04  0.20388452480E+04  0.78115032811E+02 0.  0.
          5    1    3    3  502    0 -0.44152677779E+01 -0.22805251324E+02 -0.61754994205E+03  0.61800452668E+03  0.47000000000E+01 0. -1.
        -13    1    4    4    0    0 -0.63244097478E+01  0.20627019878E+01 -0.57024494658E+00  0.66766816194E+01  0.00000000000E+00 0.  1.
         14    1    4    4    0    0  0.51207124042E+02  0.79438174947E+02 -0.44636910759E+03  0.45626524457E+03  0.00000000000E+00 0. -1.
         -5    1    5    5    0  501 -0.17242358260E+02 -0.24314448222E+02 -0.70264091490E+02  0.76469757837E+02  0.47000000000E+01 0.  1.
         11    1    6    6    0    0 -0.47264795455E+02 -0.25209123453E+01 -0.93555920774E+03  0.93675575636E+03  0.00000000000E+00 0. -1.
        -12    1    6    6    0    0  0.24039707199E+02 -0.31860265043E+02 -0.11013665437E+04  0.11020894917E+04  0.00000000000E+00 0.  1.
</event>
<event>
12    1  0.2576962E-002  0.2308826E+03  0.7818608E-02  0.1126020E+00
         -3   -1    0    0    0  501 -0.00000000000E+00  0.00000000000E+00  0.24910460875E+03  0.24910460875E+03  0.00000000000E+00 0.  1.
          3   -1    0    0  502    0  0.00000000000E+00 -0.00000000000E+00 -0.44240084300E+03  0.44240084300E+03  0.00000000000E+00 0. -1.
          6    2    1    2  502    0  0.92678908864E+02 -0.12572481357E+03  0.15187443845E+03  0.27599234768E+03  0.16943972977E+03 0.  0.
         24    2    3    3    0    0  0.91219940493E+02 -0.52852940323E+02  0.15190595695E+03  0.20295448426E+03  0.83669540919E+02 0.  0.
         -6    2    1    2    0  501 -0.92678908864E+02  0.12572481357E+03 -0.34517067270E+03  0.41551310406E+03  0.17062308595E+03 0.  0.
        -24    2    5    5    0    0 -0.12051160051E+03  0.12492297517E+03 -0.33250901384E+03  0.38456622580E+03  0.84853651403E+02 0.  0.
          5    1    3    3  502    0  0.14589683704E+01 -0.72871873252E+02 -0.31518501765E-01  0.73037863423E+02  0.47000000000E+01 0. -1.
        -11    1    4    4    0    0  0.74120612936E+02 -0.69749297976E+02  0.87541075169E+02  0.13424704716E+03  0.00000000000E+00 0.  1.
         12    1    4    4    0    0  0.17099327557E+02  0.16896357654E+02  0.64364881785E+02  0.68707437094E+02  0.00000000000E+00 0. -1.
         -5    1    5    5    0  501  0.27832691650E+02  0.80183840597E+00 -0.12661658859E+02  0.30946878265E+02  0.47000000000E+01 0.  1.
         11    1    6    6    0    0 -0.25213149143E+02  0.44005312282E+01 -0.11777710086E+03  0.12052598497E+03  0.00000000000E+00 0. -1.
        -12    1    6    6    0    0 -0.95298451370E+02  0.12052244394E+03 -0.21473191298E+03  0.26404024083E+03  0.00000000000E+00 0.  1.
</event>
<event>
12    1  0.2576962E-002  0.1938615E+03  0.7818608E-02  0.1155024E+00
          3   -1    0    0  502    0  0.00000000000E+00  0.00000000000E+00  0.99457728585E+02  0.99457728585E+02  0.00000000000E+00 0. -1.
         -3   -1    0    0    0  501 -0.00000000000E+00 -0.00000000000E+00 -0.41694996353E+03  0.41694996353E+03  0.00000000000E+00 0.  1.
          6    2    1    2  502    0 -0.86807734203E+02  0.28986569033E+02 -0.23703153781E+03  0.30557500383E+03  0.16975373088E+03 0.  0.
         24    2    3    3    0    0 -0.75681943645E+02 -0.44257030906E+02 -0.14452256781E+03  0.18696468523E+03  0.79891047926E+02 0.  0.
         -6    2    1    2    0  501  0.86807734203E+02 -0.28986569033E+02 -0.80460697140E+02  0.21083268829E+03  0.17204852445E+03 0.  0.
        -24    2    5    5    0    0  0.11957040055E+03  0.58097113835E+00 -0.83705755347E+02  0.16633266424E+03  0.79765177226E+02 0.  0.
          5    1    3    3  502    0 -0.11125790559E+02  0.73243599939E+02 -0.92508969999E+02  0.11861031860E+03  0.47000000000E+01 0. -1.
        -11    1    4    4    0    0 -0.92405025909E+02 -0.31987862514E+02 -0.11644561211E+03  0.15205753102E+03  0.00000000000E+00 0.  1.
         12    1    4    4    0    0  0.16723082264E+02 -0.12269168392E+02 -0.28076955701E+02  0.34907154208E+02  0.00000000000E+00 0. -1.
         -5    1    5    5    0  501 -0.32762666348E+02 -0.29567540172E+02  0.32450582078E+01  0.44500024054E+02  0.47000000000E+01 0.  1.
         11    1    6    6    0    0 -0.44664799216E+01  0.17893335048E+02 -0.92428772397E+01  0.20628903551E+02  0.00000000000E+00 0. -1.
        -12    1    6    6    0    0  0.12403688047E+03 -0.17312363910E+02 -0.74462878108E+02  0.14570376068E+03  0.00000000000E+00 0.  1.
</event>
<event>
12    1  0.2576962E-002  0.1969841E+03  0.7818608E-02  0.1152309E+00
         -1   -1    0    0    0  501 -0.00000000000E+00  0.00000000000E+00  0.47489588281E+02  0.47489588281E+02  0.00000000000E+00 0.  1.
          1   -1    0    0  502    0  0.00000000000E+00 -0.00000000000E+00 -0.11625859761E+04  0.11625859761E+04  0.00000000000E+00 0. -1.
          6    2    1    2  502    0 -0.76008600707E+02 -0.58895985093E+02 -0.22732516605E+03  0.30067066189E+03  0.17169761605E+03 0.  0.
         24    2    3    3    0    0  0.18172109894E+02 -0.68495461407E+01 -0.54300961977E+02  0.96861184059E+02  0.77822571567E+02 0.  0.
         -6    2    1    2    0  501  0.76008600707E+02  0.58895985093E+02 -0.88777122172E+03  0.90940490245E+03  0.17214380628E+03 0.  0.
        -24    2    5    5    0    0  0.95858645621E+02 -0.61485427882E+01 -0.62016495070E+03  0.63325273212E+03  0.84721733553E+02 0.  0.
          5    1    3    3  502    0 -0.94180710601E+02 -0.52046438952E+02 -0.17302420408E+03  0.20380947783E+03  0.47000000000E+01 0. -1.
        -11    1    4    4    0    0 -0.29485476212E+01 -0.80717282199E+01  0.18847855145E+02  0.20714448414E+02  0.00000000000E+00 0.  1.
         12    1    4    4    0    0  0.21120657515E+02  0.12221820792E+01 -0.73148817122E+02  0.76146735645E+02  0.00000000000E+00 0. -1.
         -5    1    5    5    0  501 -0.19850044914E+02  0.65044527881E+02 -0.26760627101E+03  0.27615217033E+03  0.47000000000E+01 0.  1.
         13    1    6    6    0    0  0.80443353775E+02  0.15214010479E-01 -0.60632670666E+03  0.61163977030E+03  0.00000000000E+00 0. -1.
        -14    1    6    6    0    0  0.15415291846E+02 -0.61637567987E+01 -0.13838244044E+02  0.21612961824E+02  0.00000000000E+00 0.  1.
</event>
<event>
12    1  0.2576962E-002  0.2130580E+03  0.7818608E-02  0.1139167E+00
          1   -1    0    0  502    0  0.00000000000E+00  0.00000000000E+00  0.14609215297E+03  0.14609215297E+03  0.00000000000E+00 0.  1.
         -1   -1    0    0    0  501 -0.00000000000E+00 -0.00000000000E+00 -0.36362406872E+03  0.36362406872E+03  0.00000000000E+00 0. -1.
          6    2    1    2  502    0  0.12200658375E+03 -0.31588128340E+02 -0.20575012528E+03  0.29581620717E+03  0.17114525421E+03 0.  0.
         24    2    3    3    0    0  0.12267528310E+02  0.21165413573E+02 -0.51493645275E+02  0.99238619180E+02  0.81229557740E+02 0.  0.
         -6    2    1    2    0  501 -0.12200658375E+03  0.31588128340E+02 -0.11781790463E+02  0.21390001453E+03  0.17242676503E+03 0.  0.
        -24    2    5    5    0    0 -0.13151727087E+03  0.28449212814E+02 -0.57622785141E+02  0.16674290740E+03  0.79854001486E+02 0.  0.
          5    1    3    3  502    0  0.10973905544E+03 -0.52753541913E+02 -0.15425648001E+03  0.19657758799E+03  0.47000000000E+01 0. -1.
        -13    1    4    4    0    0  0.82221992561E+01  0.16322386492E+02  0.20215499725E+02  0.27252363027E+02  0.00000000000E+00 0.  1.
         14    1    4    4    0    0  0.40453290540E+01  0.48430270805E+01 -0.71709145000E+02  0.71986256154E+02  0.00000000000E+00 0. -1.
         -5    1    5    5    0  501  0.95106871145E+01  0.31389155262E+01  0.45840994677E+02  0.47157107132E+02  0.47000000000E+01 0.  1.
         11    1    6    6    0    0 -0.83113161330E+02  0.54130601933E+02 -0.51056886086E+02  0.11155592888E+03  0.00000000000E+00 0. -1.
        -12    1    6    6    0    0 -0.48404109538E+02 -0.25681389118E+02 -0.65658990549E+01  0.55186978515E+02  0.00000000000E+00 0.  1.
</event>
<event>
12    1  0.2576962E-002  0.1923037E+03  0.7818608E-02  0.1156400E+00
          3   -1    0    0  502    0  0.00000000000E+00  0.00000000000E+00  0.37450579827E+03  0.37450579827E+03  0.00000000000E+00 0.  1.
         -3   -1    0    0    0  501 -0.00000000000E+00 -0.00000000000E+00 -0.10216644999E+03  0.10216644999E+03  0.00000000000E+00 0. -1.
          6    2    1    2  502    0 -0.20557881793E+02  0.74461045464E+02  0.18202276338E+03  0.26744492968E+03  0.18007617896E+03 0.  0.
         24    2    3    3    0    0 -0.82634018205E+02  0.61046983101E+02  0.11334791462E+03  0.17378752937E+03  0.82457507270E+02 0.  0.
         -6    2    1    2    0  501  0.20557881793E+02 -0.74461045464E+02  0.90316584900E+02  0.20922731858E+03  0.17219730410E+03 0.  0.
        -24    2    5    5    0    0  0.44362658863E+02  0.13811618283E+02  0.69240996686E+02  0.11528584215E+03  0.79609694613E+02 0.  0.
          5    1    3    3  502    0  0.62076136412E+02  0.13414062364E+02  0.68674848753E+02  0.93657400306E+02  0.47000000000E+01 0. -1.
        -11    1    4    4    0    0 -0.64985394925E+02  0.38874464332E+02  0.23062981061E+02  0.79159501174E+02  0.00000000000E+00 0.  1.
         12    1    4    4    0    0 -0.17648623280E+02  0.22172518769E+02  0.90284933562E+02  0.94628028198E+02  0.00000000000E+00 0. -1.
         -5    1    5    5    0  501 -0.23804777070E+02 -0.88272663747E+02  0.21075588214E+02  0.93941476436E+02  0.47000000000E+01 0.  1.
         13    1    6    6    0    0 -0.70321023576E+01  0.14180693880E+02 -0.11506558138E+02  0.19568940254E+02  0.00000000000E+00 0. -1.
        -14    1    6    6    0    0  0.51394761221E+02 -0.36907559722E+00  0.80747554824E+02  0.95716901892E+02  0.00000000000E+00 0.  1.
</event>
<event>
12    1  0.2576962E-002  0.2491627E+03  0.7818608E-02  0.1113835E+00
          3   -1    0    0  502    0  0.00000000000E+00  0.00000000000E+00  0.20347140653E+03  0.20347140653E+03  0.00000000000E+00 0.  1.
         -3   -1    0    0    0  501 -0.00000000000E+00 -0.00000000000E+00 -0.47675740048E+03  0.47675740048E+03  0.00000000000E+00 0. -1.
          6    2    1    2  502    0  0.15863071459E+03  0.84760131932E+02  0.67437772071E+02  0.25811141534E+03  0.17241132808E+03 0.  0.
         24    2    3    3    0    0  0.10937416787E+02  0.49438035983E+02  0.42302265964E+02  0.10411516751E+03  0.80540299926E+02 0.  0.
         -6    2    1    2    0  501 -0.15863071459E+03 -0.84760131932E+02 -0.34072376603E+03  0.42211739167E+03  0.17245992010E+03 0.  0.
        -24    2    5    5    0    0 -0.16751958012E+03 -0.21964240088E+02 -0.26236014421E+03  0.32119522767E+03  0.76080821770E+02 0.  0.
          5    1    3    3  502    0  0.14769329780E+03  0.35322095949E+02  0.25135506108E+02  0.15399624783E+03  0.47000000000E+01 0. -1.
        -11    1    4    4    0    0  0.44599163600E+02  0.15210444435E+02  0.21528594438E+02  0.51806596030E+02  0.00000000000E+00 0.  1.
         12    1    4    4    0    0 -0.33661746813E+02  0.34227591548E+02  0.20773671526E+02  0.52308571480E+02  0.00000000000E+00 0. -1.
         -5    1    5    5    0  501  0.88888655329E+01 -0.62795891844E+02 -0.78363621817E+02  0.10092216400E+03  0.47000000000E+01 0.  1.
         11    1    6    6    0    0 -0.54158848781E+02  0.27601330338E+02 -0.10068692258E+03  0.11761322509E+03  0.00000000000E+00 0. -1.
        -12    1    6    6    0    0 -0.11336073134E+03 -0.49565570427E+02 -0.16167322163E+03  0.20358200258E+03  0.00000000000E+00 0.  1.
</event>
<event>
12    1  0.2576962E-002  0.1894068E+03  0.7818608E-02  0.1158997E+00
          1   -1    0    0  502    0  0.00000000000E+00  0.00000000000E+00  0.37363378149E+02  0.37363378149E+02  0.00000000000E+00 0.  1.
         -1   -1    0    0    0  501 -0.00000000000E+00 -0.00000000000E+00 -0.97139220663E+03  0.97139220663E+03  0.00000000000E+00 0. -1.
          6    2    1    2  502    0 -0.77785247636E+02  0.10795383332E+02 -0.52242596750E+03  0.55586923448E+03  0.17290063410E+03 0.  0.
         24    2    3    3    0    0 -0.87892900419E+02  0.17414917403E+02 -0.20038674604E+03  0.23356916772E+03  0.79820215660E+02 0.  0.
         -6    2    1    2    0  501  0.77785247636E+02 -0.10795383332E+02 -0.41160286098E+03  0.45288635030E+03  0.17181980697E+03 0.  0.
        -24    2    5    5    0    0  0.56421572211E+02  0.32630824620E+02 -0.38069183524E+03  0.39526843922E+03  0.84039878033E+02 0.  0.
          5    1    3    3  502    0  0.10107652783E+02 -0.66195340708E+01 -0.32203922146E+03  0.32230006676E+03  0.47000000000E+01 0. -1.
        -11    1    4    4    0    0 -0.15534196099E+02  0.40425732906E+02 -0.85771442245E+02  0.96084813754E+02  0.00000000000E+00 0.  1.
         12    1    4    4    0    0 -0.72358704320E+02 -0.23010815503E+02 -0.11461530380E+03  0.13748435397E+03  0.00000000000E+00 0. -1.
         -5    1    5    5    0  501  0.21363675425E+02 -0.43426207952E+02 -0.30911025743E+02  0.57617911080E+02  0.47000000000E+01 0.  1.
         11    1    6    6    0    0  0.60648994734E+02  0.54130596977E+02 -0.25387447459E+03  0.26657207457E+03  0.00000000000E+00 0. -1.
        -12    1    6    6    0    0 -0.42274225231E+01 -0.21499772357E+02 -0.12681736065E+03  0.12869636465E+03  0.00000000000E+00 0.  1.
</event>
<event>
12    1  0.2576962E-002  0.1938621E+03  0.7818608E-02  0.1155023E+00
         -2   -1    0    0    0  501 -0.00000000000E+00  0.00000000000E+00  0.90869372867E+03  0.90869372867E+03  0.00000000000E+00 0.  1.
          2   -1    0    0  502    0  0.00000000000E+00 -0.00000000000E+00 -0.44460505857E+02  0.44460505857E+02  0.00000000000E+00 0. -1.
          6    2    1    2  502    0 -0.54688702433E+02  0.71024314574E+02  0.30647190150E+03  0.36269936064E+03  0.17201887212E+03 0.  0.
         24    2    3    3    0    0 -0.67389940852E+02  0.88697741359E+02  0.14341348975E+03  0.19812777405E+03  0.79236938079E+02 0.  0.
         -6    2    1    2    0  501  0.54688702433E+02 -0.71024314574E+02  0.55776132132E+03  0.59045487389E+03  0.17176716540E+03 0.  0.
        -24    2    5    5    0    0  0.83054234231E+02 -0.63583212521E+02  0.26003072639E+03  0.29124663445E+03  0.79169392270E+02 0.  0.
          5    1    3    3  502    0  0.12701238419E+02 -0.17673426785E+02  0.16305841175E+03  0.16457158659E+03  0.47000000000E+01 0. -1.
        -11    1    4    4    0    0 -0.27961936971E+02  0.15541314840E+02  0.98705559374E+02  0.10376025172E+03  0.00000000000E+00 0.  1.
         12    1    4    4    0    0 -0.39428003881E+02  0.73156426519E+02  0.44707930376E+02  0.94367522324E+02  0.00000000000E+00 0. -1.
         -5    1    5    5    0  501 -0.28365531799E+02 -0.74411020529E+01  0.29773059493E+03  0.29920823944E+03  0.47000000000E+01 0.  1.
         11    1    6    6    0    0  0.29219969244E+02 -0.21995221006E+02  0.19839191441E+02  0.41607569825E+02  0.00000000000E+00 0. -1.
        -12    1    6    6    0    0  0.53834264987E+02 -0.41587991515E+02  0.24019153495E+03  0.24963906462E+03  0.00000000000E+00 0.  1.
</event>
<event>
12    1  0.2576962E-002  0.1734020E+03  0.7818608E-02  0.1174346E+00
          2   -1    0    0  502    0  0.00000000000E+00  0.00000000000E+00  0.33841308342E+04  0.33841308342E+04  0.00000000000E+00 0. -1.
         -2   -1    0    0    0  501 -0.00000000000E+00 -0.00000000000E+00 -0.89542041586E+01  0.89542041586E+01  0.00000000000E+00 0.  1.
          6    2    1    2  502    0  0.16295063822E+02 -0.47844161123E+02  0.15956458040E+04  0.16056010263E+04  0.17121486757E+03 0.  0.
         24    2    3    3    0    0  0.37566534066E+02 -0.59941619933E+02  0.15493840683E+04  0.15530552163E+04  0.79907893724E+02 0.  0.
         -6    2    1    2    0  501 -0.16295063822E+02  0.47844161123E+02  0.17795308260E+04  0.17874840120E+04  0.16066903803E+03 0.  0.
        -24    2    5    5    0    0  0.44549808893E+02  0.44628981782E+02  0.12522877127E+04  0.12567111544E+04  0.84391816411E+02 0.  0.
          5    1    3    3  502    0 -0.21271470243E+02  0.12097458809E+02  0.46261735709E+02  0.52545809983E+02  0.47000000000E+01 0. -1.
        -11    1    4    4    0    0  0.33160508053E+02 -0.90093116178E+01  0.21814000978E+03  0.22082991387E+03  0.00000000000E+00 0.  1.
         12    1    4    4    0    0  0.44060260123E+01 -0.50932308315E+02  0.13312440585E+04  0.13322253024E+04  0.00000000000E+00 0. -1.
         -5    1    5    5    0  501 -0.60844872715E+02  0.32151793419E+01  0.52724311329E+03  0.53077285766E+03  0.47000000000E+01 0.  1.
         13    1    6    6    0    0  0.77370034771E+01  0.50360973399E+02  0.35366040267E+03  0.35731186557E+03  0.00000000000E+00 0. -1.
        -14    1    6    6    0    0  0.36812805416E+02 -0.57319916169E+01  0.89862731002E+03  0.89939928880E+03  0.00000000000E+00 0.  1.
</event>
<event>
12    1  0.2576962E-002  0.1726058E+03  0.7818608E-02  0.1175157E+00
         -1   -1    0    0    0  501 -0.00000000000E+00  0.00000000000E+00  0.10241600520E+02  0.10241600520E+02  0.00000000000E+00 0.  1.
          1   -1    0    0  502    0  0.00000000000E+00 -0.00000000000E+00 -0.29149167109E+04  0.29149167109E+04  0.00000000000E+00 0. -1.
          6    2    1    2  502    0  0.60291200250E+01 -0.76380121453E+01 -0.15178591580E+04  0.15276362945E+04  0.17228329942E+03 0.  0.
         24    2    3    3    0    0  0.41212521738E+02 -0.59771991968E+02 -0.79857096949E+03  0.80558822704E+03  0.77366887357E+02 0.  0.
         -6    2    1    2    0  501 -0.60291200250E+01  0.76380121453E+01 -0.13868159524E+04  0.13975220169E+04  0.17237926922E+03 0.  0.
        -24    2    5    5    0    0 -0.63831489708E+02  0.19246794568E+02 -0.67317059621E+03  0.68143007997E+03  0.82118232473E+02 0.  0.
          5    1    3    3  502    0 -0.35183401713E+02  0.52133979823E+02 -0.71928818852E+03  0.72204806748E+03  0.47000000000E+01 0. -1.
        -13    1    4    4    0    0  0.54054387851E+02 -0.56109603879E+02 -0.44526365872E+03  0.45202863878E+03  0.00000000000E+00 0.  1.
         14    1    4    4    0    0 -0.12841866113E+02 -0.36623880891E+01 -0.35330731077E+03  0.35355958826E+03  0.00000000000E+00 0. -1.
         -5    1    5    5    0  501  0.57802369683E+02 -0.11608782422E+02 -0.71364535616E+03  0.71609193694E+03  0.47000000000E+01 0.  1.
         13    1    6    6    0    0 -0.50659085350E+02 -0.15110423456E+02 -0.55859604532E+03  0.56109197969E+03  0.00000000000E+00 0. -1.
        -14    1    6    6    0    0 -0.13172404358E+02  0.34357218024E+02 -0.11457455089E+03  0.12033810028E+03  0.00000000000E+00 0.  1.
</event>
<event>
12    1  0.2576962E-002  0.4506268E+03  0.7818608E-02  0.1027535E+00
          2   -1    0    0  502    0  0.00000000000E+00  0.00000000000E+00  0.10123218318E+04  0.10123218318E+04  0.00000000000E+00 0.  1.
         -2   -1    0    0    0  501 -0.00000000000E+00 -0.00000000000E+00 -0.23723785397E+03  0.23723785397E+03  0.00000000000E+00 0. -1.
          6    2    1    2  502    0 -0.10254084418E+03 -0.40317143662E+03  0.63346219157E+03  0.77768734631E+03  0.17453202692E+03 0.  0.
         24    2    3    3    0    0 -0.41477246654E+02 -0.31491383984E+03  0.55463522870E+03  0.64444341058E+03  0.82437758435E+02 0.  0.
         -6    2    1    2    0  501  0.10254084418E+03  0.40317143662E+03  0.14162178630E+03  0.47187233951E+03  0.17188642299E+03 0.  0.
        -24    2    5    5    0    0  0.10359473811E+03  0.23320041590E+03  0.34333956419E+02  0.27081506653E+03  0.83950437491E+02 0.  0.
          5    1    3    3  502    0 -0.61063597523E+02 -0.88257596777E+02  0.78826962878E+02  0.13324393573E+03  0.47000000000E+01 0. -1.
        -11    1    4    4    0    0 -0.62625054196E+02 -0.19812844727E+03  0.38359237906E+03  0.43625668167E+03  0.00000000000E+00 0.  1.
         12    1    4    4    0    0  0.21147807542E+02 -0.11678539257E+03  0.17104284964E+03  0.20818672891E+03  0.00000000000E+00 0. -1.
         -5    1    5    5    0  501 -0.10538939356E+01  0.16997102071E+03  0.10728782988E+03  0.20105727297E+03  0.47000000000E+01 0.  1.
         11    1    6    6    0    0  0.47061261927E+02  0.19305628145E+03  0.33234100416E+02  0.20146958980E+03  0.00000000000E+00 0. -1.
        -12    1    6    6    0    0  0.56533476185E+02  0.40144134452E+02  0.10998560025E+01  0.69345476736E+02  0.00000000000E+00 0.  1.
</event>
<event>
12    1  0.2576962E-002  0.2013214E+03  0.7818608E-02  0.1148629E+00
          2   -1    0    0  502    0  0.00000000000E+00  0.00000000000E+00  0.38772393705E+03  0.38772393705E+03  0.00000000000E+00 0.  1.
         -2   -1    0    0    0  501 -0.00000000000E+00 -0.00000000000E+00 -0.11313050536E+03  0.11313050536E+03  0.00000000000E+00 0. -1.
          6    2    1    2  502    0 -0.96746942857E+02  0.34466839743E+02  0.20624981528E+03  0.28812949099E+03  0.17300775496E+03 0.  0.
         24    2    3    3    0    0 -0.83198375965E+02  0.23828376686E+02  0.22983533647E+03  0.25854727723E+03  0.80824819035E+02 0.  0.
         -6    2    1    2    0  501  0.96746942857E+02 -0.34466839743E+02  0.68343616410E+02  0.21272495143E+03  0.17330066665E+03 0.  0.
        -24    2    5    5    0    0  0.83985052859E+02 -0.86917614274E+02  0.61323427148E+02  0.15808684529E+03  0.81380139845E+02 0.  0.
          5    1    3    3  502    0 -0.13548566892E+02  0.10638463056E+02 -0.23585521189E+02  0.29582213758E+02  0.47000000000E+01 0. -1.
        -13    1    4    4    0    0 -0.80726589121E+02 -0.12140386749E+02  0.17209216956E+03  0.19047279597E+03  0.00000000000E+00 0.  1.
         14    1    4    4    0    0 -0.24717868438E+01  0.35968763435E+02  0.57743166912E+02  0.68074481256E+02  0.00000000000E+00 0. -1.
         -5    1    5    5    0  501  0.12761889998E+02  0.52450774531E+02  0.70201892615E+01  0.54638106139E+02  0.47000000000E+01 0.  1.
         11    1    6    6    0    0 -0.14187272724E+02 -0.19489039228E+01 -0.39912720969E+00  0.14326068420E+02  0.00000000000E+00 0. -1.
        -12    1    6    6    0    0  0.98172325584E+02 -0.84968710351E+02  0.61722554358E+02  0.14376077687E+03  0.00000000000E+00 0.  1.
</event>
<event>
12    1  0.2576962E-002  0.1798079E+03  0.7818608E-02  0.1167989E+00
          2   -1    0    0  502    0  0.00000000000E+00  0.00000000000E+00  0.21818273344E+04  0.21818273344E+04  0.00000000000E+00 0.  1.
         -2   -1    0    0    0  501 -0.00000000000E+00 -0.00000000000E+00 -0.16481454546E+02  0.16481454546E+02  0.00000000000E+00 0. -1.
          6    2    1    2  502    0 -0.16335913180E+02 -0.39850909783E+02  0.74466784933E+03  0.76654832922E+03  0.17666685636E+03 0.  0.
         24    2    3    3    0    0  0.20266046236E+02 -0.23030078673E+02  0.69971241647E+03  0.70600310037E+03  0.88892152769E+02 0.  0.
         -6    2    1    2    0  501  0.16335913180E+02  0.39850909783E+02  0.14206780305E+04  0.14317604597E+04  0.17250214650E+03 0.  0.
        -24    2    5    5    0    0  0.54351385326E+02  0.28380366690E+02  0.48303001669E+03  0.49326025337E+03  0.78918706468E+02 0.  0.
          5    1    3    3  502    0 -0.36601959417E+02 -0.16820831110E+02  0.44955432860E+02  0.60545228846E+02  0.47000000000E+01 0. -1.
        -11    1    4    4    0    0  0.45338046583E+02  0.99346954908E+01  0.49316854924E+03  0.49534781175E+03  0.00000000000E+00 0.  1.
         12    1    4    4    0    0 -0.25072000347E+02 -0.32964774164E+02  0.20654386722E+03  0.21065528862E+03  0.00000000000E+00 0. -1.
         -5    1    5    5    0  501 -0.38015472146E+02  0.11470543093E+02  0.93764801380E+03  0.93850020633E+03  0.47000000000E+01 0.  1.
         11    1    6    6    0    0 -0.17225112039E+02  0.21986441384E+02  0.14749336444E+03  0.15011462501E+03  0.00000000000E+00 0. -1.
        -12    1    6    6    0    0  0.71576497366E+02  0.63939253055E+01  0.33553665225E+03  0.34314562836E+03  0.00000000000E+00 0.  1.
</event>
<event>
12    1  0.2576962E-002  0.1755352E+03  0.7818608E-02  0.1172195E+00
          3   -1    0    0  502    0  0.00000000000E+00  0.00000000000E+00  0.58052333959E+02  0.58052333959E+02  0.00000000000E+00 0.  1.
         -3   -1    0    0    0  501 -0.00000000000E+00 -0.00000000000E+00 -0.53693382716E+03  0.53693382716E+03  0.00000000000E+00 0. -1.
          6    2    1    2  502    0  0.32110760812E+02 -0.12761281802E+02 -0.20491518020E+03  0.26845248447E+03  0.16994868069E+03 0.  0.
         24    2    3    3    0    0 -0.21478224662E+02  0.46110403391E+02 -0.10935649563E+03  0.14398880752E+03  0.78653989855E+02 0.  0.
         -6    2    1    2    0  501 -0.32110760812E+02  0.12761281802E+02 -0.27396631300E+03  0.32653367665E+03  0.17427779564E+03 0.  0.
        -24    2    5    5    0    0  0.58976337910E+01 -0.40006272988E+02 -0.23474089249E+03  0.25044309567E+03  0.77350976732E+02 0.  0.
          5    1    3    3  502    0  0.53588985474E+02 -0.58871685193E+02 -0.95558684575E+02  0.12446367695E+03  0.47000000000E+01 0. -1.
        -13    1    4    4    0    0  0.11190092165E+02  0.26476955028E+02 -0.60405961721E+00  0.28750864304E+02  0.00000000000E+00 0.  1.
         14    1    4    4    0    0 -0.32668316827E+02  0.19633448363E+02 -0.10875243601E+03  0.11523794322E+03  0.00000000000E+00 0. -1.
         -5    1    5    5    0  501 -0.38008394604E+02  0.52767554789E+02 -0.39225420507E+02  0.76090580972E+02  0.47000000000E+01 0.  1.
         11    1    6    6    0    0  0.38671200815E+02 -0.37894570784E+02 -0.13586861971E+03  0.14625916070E+03  0.00000000000E+00 0. -1.
        -12    1    6    6    0    0 -0.32773567024E+02 -0.21117022040E+01 -0.98872272782E+02  0.10418393497E+03  0.00000000000E+00 0.  1.
</event>
<event>
12    1  0.2576962E-002  0.1907784E+03  0.7818608E-02  0.1157761E+00
          3   -1    0    0  502    0  0.00000000000E+00  0.00000000000E+00  0.19095018865E+03  0.19095018865E+03  0.00000000000E+00 0.  1.
         -3   -1    0    0    0  501 -0.00000000000E+00 -0.00000000000E+00 -0.19072712413E+03  0.19072712413E+03  0.00000000000E+00 0. -1.
          6    2    1    2  502    0 -0.53708467560E+02 -0.60468795588E+02  0.48350356588E+01  0.19165849765E+03  0.17369089621E+03 0.  0.
         24    2    3    3    0    0 -0.72127464629E+02 -0.63068582906E+02  0.51543473658E+02  0.14116308670E+03  0.89945928566E+02 0.  0.
         -6    2    1    2    0  501  0.53708467560E+02  0.60468795588E+02 -0.46119711415E+01  0.19001881513E+03  0.17188602356E+03 0.  0.
        -24    2    5    5    0    0  0.97062962073E+01 -0.73226239775E+01 -0.49826480413E+02  0.97291745190E+02  0.82675102200E+02 0.  0.
          5    1    3    3  502    0  0.18418997069E+02  0.25997873183E+01 -0.46708437999E+02  0.50495410955E+02  0.47000000000E+01 0. -1.
        -13    1    4    4    0    0 -0.72626537256E+02 -0.44228401752E+01  0.29289710218E+02  0.78435084966E+02  0.00000000000E+00 0.  1.
         14    1    4    4    0    0  0.49907262691E+00 -0.58645742731E+02  0.22253763440E+02  0.62728001732E+02  0.00000000000E+00 0. -1.
         -5    1    5    5    0  501  0.44002171353E+02  0.67791419566E+02  0.45214509271E+02  0.92727069937E+02  0.47000000000E+01 0.  1.
         13    1    6    6    0    0  0.29379199698E+02 -0.14248882578E+02 -0.64155830400E+02  0.71987072478E+02  0.00000000000E+00 0. -1.
        -14    1    6    6    0    0 -0.19672903491E+02  0.69262586001E+01  0.14329349988E+02  0.25304672711E+02  0.00000000000E+00 0.  1.
</event>
<event>
12    1  0.2576962E-002  0.2058910E+03  0.7818608E-02  0.1144862E+00
          2   -1    0    0  502    0  0.00000000000E+00  0.00000000000E+00  0.80797345236E+03  0.80797345236E+03  0.00000000000E+00 0. -1.
         -2   -1    0    0    0  501 -0.00000000000E+00 -0.00000000000E+00 -0.52585173951E+02  0.52585173951E+02  0.00000000000E+00 0.  1.
          6    2    1    2  502    0 -0.93566762014E+02 -0.65612058881E+02  0.39776407585E+03  0.44778874744E+03  0.17099362876E+03 0.  0.
         24    2    3    3    0    0 -0.35784568365E+02  0.13280299795E+02  0.11939044169E+03  0.15270103785E+03  0.87215983034E+02 0.  0.
         -6    2    1    2    0  501  0.93566762014E+02  0.65612058881E+02  0.35762420256E+03  0.41276987886E+03  0.17153489854E+03 0.  0.
        -24    2    5    5    0    0  0.23217708443E+02  0.53294836617E+02  0.31275329157E+03  0.32829389437E+03  0.81134814360E+02 0.  0.
          5    1    3    3  502    0 -0.57782193649E+02 -0.78892358677E+02  0.27837363416E+03  0.29508770960E+03  0.47000000000E+01 0. -1.
        -13    1    4    4    0    0  0.21847037596E+02 -0.14977794253E+02  0.15817359904E+02  0.30851519359E+02  0.00000000000E+00 0.  1.
         14    1    4    4    0    0 -0.57631605961E+02  0.28258094049E+02  0.10357308179E+03  0.12184951849E+03  0.00000000000E+00 0. -1.
         -5    1    5    5    0  501  0.70349053571E+02  0.12317222264E+02  0.44870910991E+02  0.84475984492E+02  0.47000000000E+01 0.  1.
         13    1    6    6    0    0  0.29484908224E+02 -0.10400323526E+02  0.15367094120E+03  0.15681927404E+03  0.00000000000E+00 0. -1.
        -14    1    6    6    0    0 -0.62671997810E+01  0.63695160143E+02  0.15908235037E+03  0.17147462033E+03  0.00000000000E+00 0.  1.
</event>
<event>
12    1  0.2576962E-002  0.2044290E+03  0.7818608E-02  0.1146055E+00
         -2   -1    0    0    0  501 -0.00000000000E+00  0.00000000000E+00  0.56401280958E+03  0.56401280958E+03  0.00000000000E+00 0.  1.
          2   -1    0    0  502    0  0.00000000000E+00 -0.00000000000E+00 -0.81344579627E+02  0.81344579627E+02  0.00000000000E+00 0. -1.
          6    2    1    2  502    0  0.48626301732E+02  0.10110415490E+03  0.33781495465E+03  0.39493109738E+03  0.17107033855E+03 0.  0.
         24    2    3    3    0    0 -0.17564193653E+02  0.10530593370E+03  0.18324527499E+03  0.22666727924E+03  0.80008650168E+02 0.  0.
         -6    2    1    2    0  501 -0.48626301732E+02 -0.10110415490E+03  0.14485327531E+03  0.25042629183E+03  0.17071698485E+03 0.  0.
        -24    2    5    5    0    0 -0.56959449605E+02 -0.87779228659E+02  0.17356465230E+03  0.21735926624E+03  0.78554377399E+02 0.  0.
          5    1    3    3  502    0  0.66190495385E+02 -0.42017787917E+01  0.15456967966E+03  0.16826381813E+03  0.47000000000E+01 0. -1.
        -11    1    4    4    0    0  0.24324223061E+02  0.45487297093E+02  0.37905023295E+02  0.64012130220E+02  0.00000000000E+00 0.  1.
         12    1    4    4    0    0 -0.41888416714E+02  0.59818636603E+02  0.14534025170E+03  0.16265514902E+03  0.00000000000E+00 0. -1.
         -5    1    5    5    0  501  0.83331478729E+01 -0.13324926244E+02 -0.28711376992E+02  0.33067025594E+02  0.47000000000E+01 0.  1.
         13    1    6    6    0    0 -0.72203491723E+01 -0.25424100562E+02  0.94273497184E-01  0.26429665512E+02  0.00000000000E+00 0. -1.
        -14    1    6    6    0    0 -0.49739100433E+02 -0.62355128097E+02  0.17347037880E+03  0.19092960073E+03  0.00000000000E+00 0.  1.
</event>
<event>
12    1  0.2576962E-002  0.1934616E+03  0.7818608E-02  0.1155376E+00
          2   -1    0    0  502    0  0.00000000000E+00  0.00000000000E+00  0.21857786122E+04  0.21857786122E+04  0.00000000000E+00 0.  1.
         -2   -1    0    0    0  501 -0.00000000000E+00 -0.00000000000E+00 -0.35450492801E+02  0.35450492801E+02  0.00000000000E+00 0. -1.
          6    2    1    2  502    0  0.14990550444E+02 -0.88359079555E+02  0.18729130982E+04  0.18828477838E+04  0.17111475654E+03 0.  0.
         24    2    3    3    0    0 -0.14559004555E+02 -0.11638745784E+03  0.11361058704E+04  0.11449008025E+04  0.79393286339E+02 0.  0.
         -6    2    1    2    0  501 -0.14990550444E+02  0.88359079555E+02  0.27741502124E+03  0.33838132127E+03  0.17178702230E+03 0.  0.
        -24    2    5    5    0    0  0.57181682440E+02  0.64618070674E+02  0.18111978132E+03  0.21563226859E+03  0.79042141978E+02 0.  0.
          5    1    3    3  502    0  0.29549554998E+02  0.28028378283E+02  0.73680722781E+03  0.73794698126E+03  0.47000000000E+01 0. -1.
        -13    1    4    4    0    0  0.44026385281E+01 -0.10156629433E+03  0.10648194417E+04  0.10696614132E+04  0.00000000000E+00 0.  1.
         14    1    4    4    0    0 -0.18961643083E+02 -0.14821163503E+02  0.71286428648E+02  0.75239389321E+02  0.00000000000E+00 0. -1.
         -5    1    5    5    0  501 -0.72172232884E+02  0.23741008881E+02  0.96295239926E+02  0.12274905268E+03  0.47000000000E+01 0.  1.
         11    1    6    6    0    0  0.41619148559E+02  0.13663613738E+02  0.24482635375E+02  0.50182141266E+02  0.00000000000E+00 0. -1.
        -12    1    6    6    0    0  0.15562533881E+02  0.50954456936E+02  0.15663714594E+03  0.16545012732E+03  0.00000000000E+00 0.  1.
</event>
<event>
12    1  0.2576962E-002  0.1864723E+03  0.7818608E-02  0.1161682E+00
         -2   -1    0    0    0  501 -0.00000000000E+00  0.00000000000E+00  0.24363278733E+03  0.24363278733E+03  0.00000000000E+00 0.  1.
          2   -1    0    0  502    0  0.00000000000E+00 -0.00000000000E+00 -0.14304265310E+03  0.14304265310E+03  0.00000000000E+00 0. -1.
          6    2    1    2  502    0 -0.69649697185E+02 -0.90936576608E+01  0.41401034226E+02  0.19178747841E+03  0.17359324962E+03 0.  0.
         24    2    3    3    0    0  0.20780899094E+02  0.32481572160E+02  0.95828297000E+01  0.87189769939E+02  0.77610096378E+02 0.  0.
         -6    2    1    2    0  501  0.69649697185E+02  0.90936576608E+01  0.59189100003E+02  0.19488796202E+03  0.17188424376E+03 0.  0.
        -24    2    5    5    0    0 -0.30052087921E+02 -0.32647313679E+01  0.25356783522E+02  0.88775326717E+02  0.79525503480E+02 0.  0.
          5    1    3    3  502    0 -0.90430596279E+02 -0.41575229821E+02  0.31818204526E+02  0.10459770847E+03  0.47000000000E+01 0. -1.
        -13    1    4    4    0    0 -0.17565017828E+02 -0.15970305875E+01  0.27653575907E+02  0.32799399666E+02  0.00000000000E+00 0.  1.
         14    1    4    4    0    0  0.38345916922E+02  0.34078602748E+02 -0.18070746207E+02  0.54390370272E+02  0.00000000000E+00 0. -1.
         -5    1    5    5    0  501  0.99701785107E+02  0.12358389029E+02  0.33832316481E+02  0.10611263530E+03  0.47000000000E+01 0.  1.
         13    1    6    6    0    0 -0.34219812966E+02  0.11210958860E+02 -0.19854661637E+02  0.41120418124E+02  0.00000000000E+00 0. -1.
        -14    1    6    6    0    0  0.41677250451E+01 -0.14475690227E+02  0.45211445159E+02  0.47654908593E+02  0.00000000000E+00 0.  1.
</event>
<event>
12    1  0.2576962E-002  0.2258285E+03  0.7818608E-02  0.1129611E+00
         -2   -1    0    0    0  501 -0.00000000000E+00  0.00000000000E+00  0.51748005388E+03  0.51748005388E+03  0.00000000000E+00 0.  1.
          2   -1    0    0  502    0  0.00000000000E+00 -0.00000000000E+00 -0.98553717726E+02  0.98553717726E+02  0.00000000000E+00 0. -1.
          6    2    1    2  502    0  0.27795018212E+02 -0.14604963402E+03  0.21114007666E+03  0.30967612396E+03  0.17092721008E+03 0.  0.
         24    2    3    3    0    0 -0.22964618949E+02 -0.15316439234E+03  0.15061568860E+03  0.23022518250E+03  0.79572886071E+02 0.  0.
         -6    2    1    2    0  501 -0.27795018212E+02  0.14604963402E+03  0.20778625949E+03  0.30635764764E+03  0.16904679825E+03 0.  0.
        -24    2    5    5    0    0 -0.29302345324E+02  0.14061077388E+03  0.88873510310E+02  0.18721829582E+03  0.80759967074E+02 0.  0.
          5    1    3    3  502    0  0.50759637161E+02  0.71147583187E+01  0.60524388055E+02  0.79450941468E+02  0.47000000000E+01 0. -1.
        -11    1    4    4    0    0  0.17100352212E+01 -0.12246223653E+03  0.14599954118E+03  0.19056702133E+03  0.00000000000E+00 0.  1.
         12    1    4    4    0    0 -0.24674654171E+02 -0.30702155810E+02  0.46161474292E+01  0.39658161164E+02  0.00000000000E+00 0. -1.
         -5    1    5    5    0  501  0.15073271123E+01  0.54388601419E+01  0.11891274918E+03  0.11913935182E+03  0.47000000000E+01 0.  1.
         11    1    6    6    0    0  0.23382496585E+02  0.32406093947E+02  0.44448896888E+01  0.40207625096E+02  0.00000000000E+00 0. -1.
        -12    1    6    6    0    0 -0.52684841910E+02  0.10820467993E+03  0.84428620621E+02  0.14701067072E+03  0.00000000000E+00 0.  1.
</event>
<event>
12    1  0.2576962E-002  0.1753347E+03  0.7818608E-02  0.1172396E+00
         -4   -1    0    0    0  501 -0.00000000000E+00  0.00000000000E+00  0.47387151096E+03  0.47387151096E+03  0.00000000000E+00 0. -1.
          4   -1    0    0  502    0  0.00000000000E+00 -0.00000000000E+00 -0.76788729903E+02  0.76788729903E+02  0.00000000000E+00 0.  1.
          6    2    1    2  502    0 -0.36080284028E+02 -0.16551699535E+01  0.30759033507E+03  0.35436641860E+03  0.17221851792E+03 0.  0.
         24    2    3    3    0    0 -0.78903423679E+02 -0.39332648853E+02  0.20750567501E+03  0.23907356155E+03  0.79528329149E+02 0.  0.
         -6    2    1    2    0  501  0.36080284028E+02  0.16551699535E+01  0.89492445982E+02  0.19629382227E+03  0.17093226813E+03 0.  0.
        -24    2    5    5    0    0 -0.32108906995E+02  0.33899322347E+02  0.76362180707E+02  0.11958694511E+03  0.79307684593E+02 0.  0.
          5    1    3    3  502    0  0.42823139651E+02  0.37677478899E+02  0.10008466007E+03  0.11529285705E+03  0.47000000000E+01 0. -1.
        -11    1    4    4    0    0 -0.50525683094E+02 -0.95149366223E+01  0.36168838829E+02  0.62861463340E+02  0.00000000000E+00 0.  1.
         12    1    4    4    0    0 -0.28377740585E+02 -0.29817712230E+02  0.17133683618E+03  0.17621209821E+03  0.00000000000E+00 0. -1.
         -5    1    5    5    0  501  0.68189191024E+02 -0.32244152393E+02  0.13130265275E+02  0.76706877151E+02  0.47000000000E+01 0.  1.
         13    1    6    6    0    0 -0.27210996663E+02 -0.17322106848E+02  0.66390700232E+01  0.32932825203E+02  0.00000000000E+00 0. -1.
        -14    1    6    6    0    0 -0.48979103320E+01  0.51221429194E+02  0.69723110684E+02  0.86654119912E+02  0.00000000000E+00 0.  1.
</event>
<event>
12    1  0.2576962E-002  0.2776766E+03  0.7818608E-02  0.1096965E+00
         -2   -1    0    0    0  501 -0.00000000000E+00  0.00000000000E+00  0.36243099481E+03  0.36243099481E+03  0.00000000000E+00 0.  1.
          2   -1    0    0  502    0  0.00000000000E+00 -0.00000000000E+00 -0.21443622792E+03  0.21443622792E+03  0.00000000000E+00 0. -1.
          6    2    1    2  502    0  0.93671551061E+02 -0.19828638648E+03  0.48717988495E+02  0.28313566094E+03  0.17233835776E+03 0.  0.
         24    2    3    3    0    0  0.10256392643E+03 -0.18182646104E+03 -0.74197157619E+01  0.22377628658E+03  0.80253057980E+02 0.  0.
         -6    2    1    2    0  501 -0.93671551061E+02  0.19828638648E+03  0.99276778397E+02  0.29373156178E+03  0.16831666916E+03 0.  0.
        -24    2    5    5    0    0 -0.74622671974E+02  0.61582544075E+02  0.91083147585E+02  0.15538407930E+03  0.80542655904E+02 0.  0.
          5    1    3    3  502    0 -0.88923753735E+01 -0.16459925437E+02  0.56137704257E+02  0.59359374360E+02  0.47000000000E+01 0. -1.
        -11    1    4    4    0    0  0.26237285371E+02 -0.21819745697E+02  0.26593998585E+02  0.43263578293E+02  0.00000000000E+00 0.  1.
         12    1    4    4    0    0  0.76326641063E+02 -0.16000671534E+03 -0.34013714347E+02  0.18051270829E+03  0.00000000000E+00 0. -1.
         -5    1    5    5    0  501 -0.19048879086E+02  0.13670384240E+03  0.81936308121E+01  0.13834748248E+03  0.47000000000E+01 0.  1.
         13    1    6    6    0    0 -0.51166342590E+02  0.46484860072E+02  0.10264848644E+02  0.69887079977E+02  0.00000000000E+00 0. -1.
        -14    1    6    6    0    0 -0.23456329384E+02  0.15097684003E+02  0.80818298941E+02  0.85496999328E+02  0.00000000000E+00 0.  1.
</event>
<event>
12    1  0.2576962E-002  0.1876902E+03  0.7818608E-02  0.1160561E+00
         -1   -1    0    0    0  501 -0.00000000000E+00  0.00000000000E+00  0.43807278586E+02  0.43807278586E+02  0.00000000000E+00 0.  1.
          1   -1    0    0  502    0  0.00000000000E+00 -0.00000000000E+00 -0.82311214619E+03  0.82311214619E+03  0.00000000000E+00 0. -1.
          6    2    1    2  502    0 -0.35522215808E+02 -0.60065676372E+02 -0.32108716855E+03  0.37121437295E+03  0.17272355827E+03 0.  0.
         24    2    3    3    0    0 -0.36205737135E+01 -0.10288306086E+03 -0.25044543477E+03  0.28253862804E+03  0.80666769960E+02 0.  0.
         -6    2    1    2    0  501  0.35522215808E+02  0.60065676372E+02 -0.45821769906E+03  0.49570505183E+03  0.17575643769E+03 0.  0.
        -24    2    5    5    0    0  0.90409205530E+02  0.56833854931E+02 -0.30453714813E+03  0.33241748940E+03  0.79715752275E+02 0.  0.
          5    1    3    3  502    0 -0.31901642095E+02  0.42817384483E+02 -0.70641733785E+02  0.88675744905E+02  0.47000000000E+01 0. -1.
        -13    1    4    4    0    0  0.25988656552E+02 -0.95812363030E+01 -0.27411694870E+02  0.38969364559E+02  0.00000000000E+00 0.  1.
         14    1    4    4    0    0 -0.29609230265E+02 -0.93301824553E+02 -0.22303373990E+03  0.24356926348E+03  0.00000000000E+00 0. -1.
         -5    1    5    5    0  501 -0.54886989721E+02  0.32318214416E+01 -0.15368055093E+03  0.16328756243E+03  0.47000000000E+01 0.  1.
         13    1    6    6    0    0  0.54022338555E+02  0.15489778587E+01 -0.21114099777E+03  0.21794800603E+03  0.00000000000E+00 0. -1.
        -14    1    6    6    0    0  0.36386866975E+02  0.55284877072E+02 -0.93396150362E+02  0.11446948337E+03  0.00000000000E+00 0.  1.
</event>
<event>
12    1  0.2576962E-002  0.2762469E+03  0.7818608E-02  0.1097757E+00
          1   -1    0    0  502    0  0.00000000000E+00  0.00000000000E+00  0.11163701739E+04  0.11163701739E+04  0.00000000000E+00 0.  1.
         -1   -1    0    0    0  501 -0.00000000000E+00 -0.00000000000E+00 -0.10354642708E+04  0.10354642708E+04  0.00000000000E+00 0. -1.
          6    2    1    2  502    0  0.65887042091E+02  0.19682755261E+03 -0.99924288992E+03  0.10384813322E+04  0.19202847852E+03 0.  0.
         24    2    3    3    0    0 -0.39052850639E+02  0.11351929878E+03 -0.55315944642E+03  0.57268612529E+03  0.87018783052E+02 0.  0.
         -6    2    1    2    0  501 -0.65887042091E+02 -0.19682755261E+03  0.10801487930E+04  0.11133531125E+04  0.17248637701E+03 0.  0.
        -24    2    5    5    0    0 -0.78188086002E+02 -0.19967203160E+03  0.10747396708E+04  0.10988356972E+04  0.79951438857E+02 0.  0.
          5    1    3    3  502    0  0.10493989273E+03  0.83308253835E+02 -0.44608344350E+03  0.46579520694E+03  0.47000000000E+01 0. -1.
        -11    1    4    4    0    0 -0.17841835292E+00 -0.14156809003E+02 -0.39114131892E+02  0.41597624787E+02  0.00000000000E+00 0.  1.
         12    1    4    4    0    0 -0.38874432286E+02  0.12767610778E+03 -0.51404531453E+03  0.53108850051E+03  0.00000000000E+00 0. -1.
         -5    1    5    5    0  501  0.12301043910E+02  0.28444789941E+01  0.54091222234E+01  0.14517415240E+02  0.47000000000E+01 0.  1.
         11    1    6    6    0    0 -0.24313400164E+02 -0.54811892016E+01  0.17758597031E+03  0.17932641108E+03  0.00000000000E+00 0. -1.
        -12    1    6    6    0    0 -0.53874685838E+02 -0.19419084240E+03  0.89715370047E+03  0.91950928615E+03  0.00000000000E+00 0.  1.
</event>
<event>
12    1  0.2576962E-002  0.2045613E+03  0.7818608E-02  0.1145947E+00
         -2   -1    0    0    0  501 -0.00000000000E+00  0.00000000000E+00  0.25209914905E+03  0.25209914905E+03  0.00000000000E+00 0.  1.
          2   -1    0    0  502    0  0.00000000000E+00 -0.00000000000E+00 -0.17779518312E+03  0.17779518312E+03  0.00000000000E+00 0. -1.
          6    2    1    2  502    0  0.97329152038E+02  0.68466064816E+02  0.91873174094E+02  0.22124852142E+03  0.16232579044E+03 0.  0.
         24    2    3    3    0    0  0.59636648886E+02 -0.62572562141E+01  0.21885248589E+01  0.98489709888E+02  0.78100897351E+02 0.  0.
         -6    2    1    2    0  501 -0.97329152038E+02 -0.68466064816E+02 -0.17569208162E+02  0.20864581076E+03  0.17048117610E+03 0.  0.
        -24    2    5    5    0    0 -0.14049074505E+02 -0.81412017812E+02 -0.39434464217E+02  0.12144862941E+03  0.79808517584E+02 0.  0.
          5    1    3    3  502    0  0.37692503152E+02  0.74723321030E+02  0.89684649235E+02  0.12275881153E+03  0.47000000000E+01 0. -1.
        -13    1    4    4    0    0 -0.18838572161E+02 -0.64610985060E+01 -0.10920843404E+01  0.19945682319E+02  0.00000000000E+00 0.  1.
         14    1    4    4    0    0  0.78475221047E+02  0.20384229190E+00  0.32806091993E+01  0.78544027569E+02  0.00000000000E+00 0. -1.
         -5    1    5    5    0  501 -0.83280077533E+02  0.12945952996E+02  0.21865256055E+02  0.87197181349E+02  0.47000000000E+01 0.  1.
         13    1    6    6    0    0  0.20843371679E+02 -0.45567418016E+02 -0.49486493080E+02  0.70425483491E+02  0.00000000000E+00 0. -1.
        -14    1    6    6    0    0 -0.34892446184E+02 -0.35844599796E+02  0.10052028864E+02  0.51023145919E+02  0.00000000000E+00 0.  1.
</event>
<event>
12    1  0.2576962E-002  0.2244028E+03  0.7818608E-02  0.1130643E+00
         -1   -1    0    0    0  501 -0.00000000000E+00  0.00000000000E+00  0.12398884482E+03  0.12398884482E+03  0.00000000000E+00 0. -1.
          1   -1    0    0  502    0  0.00000000000E+00 -0.00000000000E+00 -0.40708409905E+03  0.40708409905E+03  0.00000000000E+00 0.  1.
          6    2    1    2  502    0 -0.99428552208E+02 -0.10425296020E+03 -0.12896486051E+03  0.25911297923E+03  0.17249024337E+03 0.  0.
         24    2    3    3    0    0  0.18873584789E+01 -0.57926167038E+01 -0.70162108446E+02  0.10601429652E+03  0.79241359620E+02 0.  0.
         -6    2    1    2    0  501  0.99428552208E+02  0.10425296020E+03 -0.15413039372E+03  0.27195996464E+03  0.17161389044E+03 0.  0.
        -24    2    5    5    0    0 -0.52783013235E+01  0.76798188364E+02 -0.10400233347E+03  0.15257737756E+03  0.80855108525E+02 0.  0.
          5    1    3    3  502    0 -0.10131591069E+03 -0.98460343493E+02 -0.58802752061E+02  0.15309868271E+03  0.47000000000E+01 0. -1.
        -13    1    4    4    0    0 -0.10310275145E+02  0.32625955085E+02 -0.50920922464E+02  0.61348961388E+02  0.00000000000E+00 0.  1.
         14    1    4    4    0    0  0.12197633624E+02 -0.38418571789E+02 -0.19241185982E+02  0.44665335131E+02  0.00000000000E+00 0. -1.
         -5    1    5    5    0  501  0.10470685353E+03  0.27454771832E+02 -0.50128060248E+02  0.11938258708E+03  0.47000000000E+01 0.  1.
         13    1    6    6    0    0  0.29029687573E+02  0.57062822370E+01 -0.45711957106E+02  0.54450596324E+02  0.00000000000E+00 0. -1.
        -14    1    6    6    0    0 -0.34307988896E+02  0.71091906127E+02 -0.58290376366E+02  0.98126781236E+02  0.00000000000E+00 0.  1.
</event>
<event>
12    1  0.2576962E-002  0.2268124E+03  0.7818608E-02  0.1128904E+00
         -1   -1    0    0    0  501 -0.00000000000E+00  0.00000000000E+00  0.14413082224E+02  0.14413082224E+02  0.00000000000E+00 0.  1.
          1   -1    0    0  502    0  0.00000000000E+00 -0.00000000000E+00 -0.38630969077E+04  0.38630969077E+04  0.00000000000E+00 0. -1.
          6    2    1    2  502    0  0.13163974760E+03  0.66108085209E+02 -0.13872139991E+04  0.14055840108E+04  0.17205937908E+03 0.  0.
         24    2    3    3    0    0  0.13999766809E+03  0.89753641002E+01 -0.11547556810E+04  0.11660157276E+04  0.80324902190E+02 0.  0.
         -6    2    1    2    0  501 -0.13163974760E+03 -0.66108085209E+02 -0.24614698264E+04  0.24719259792E+04  0.17287289615E+03 0.  0.
        -24    2    5    5    0    0 -0.15337551513E+03 -0.48283033356E+02 -0.23491338676E+04  0.23560310539E+04  0.81222528671E+02 0.  0.
          5    1    3    3  502    0 -0.83579204940E+01  0.57132721109E+02 -0.23245831811E+03  0.23956828320E+03  0.47000000000E+01 0. -1.
        -13    1    4    4    0    0 -0.79967998996E+00 -0.12004445997E+02 -0.30556034654E+02  0.32839267129E+02  0.00000000000E+00 0.  1.
         14    1    4    4    0    0  0.14079734808E+03  0.20979810097E+02 -0.11241996464E+04  0.11331764605E+04  0.00000000000E+00 0. -1.
         -5    1    5    5    0  501  0.21735767534E+02 -0.17825051853E+02 -0.11233595881E+03  0.11589492528E+03  0.47000000000E+01 0.  1.
         11    1    6    6    0    0 -0.16438995043E+02 -0.39664638418E+02 -0.55548533173E+03  0.55714224205E+03  0.00000000000E+00 0. -1.
        -12    1    6    6    0    0 -0.13693652009E+03 -0.86183949386E+01 -0.17936485359E+04  0.17988888119E+04  0.00000000000E+00 0.  1.
</event>
<event>
12    1  0.2576962E-002  0.2157772E+03  0.7818608E-02  0.1137071E+00
          2   -1    0    0  502    0  0.00000000000E+00  0.00000000000E+00  0.20786538485E+04  0.20786538485E+04  0.00000000000E+00 0. -1.
         -2   -1    0    0    0  501 -0.00000000000E+00 -0.00000000000E+00 -0.28761347242E+02  0.28761347242E+02  0.00000000000E+00 0.  1.
          6    2    1    2  502    0  0.10638205111E+03  0.76169267403E+02  0.15192510699E+04  0.15344491132E+04  0.17114721610E+03 0.  0.
         24    2    3    3    0    0  0.10389697494E+03  0.30126156843E+02  0.65753241461E+03  0.67148487612E+03  0.82709708456E+02 0.  0.
         -6    2    1    2    0  501 -0.10638205111E+03 -0.76169267403E+02  0.53064143136E+03  0.57296608252E+03  0.17202007136E+03 0.  0.
        -24    2    5    5    0    0 -0.24022767020E+02 -0.34072242167E+02  0.41576392182E+03  0.42540543937E+03  0.79825673426E+02 0.  0.
          5    1    3    3  502    0  0.24850761652E+01  0.46043110561E+02  0.86171865532E+03  0.86296423712E+03  0.47000000000E+01 0. -1.
        -13    1    4    4    0    0  0.13234492601E+02  0.41929600023E+02  0.24840016127E+03  0.25226153744E+03  0.00000000000E+00 0.  1.
         14    1    4    4    0    0  0.90662482339E+02 -0.11803443180E+02  0.40913225334E+03  0.41922333868E+03  0.00000000000E+00 0. -1.
         -5    1    5    5    0  501 -0.82359284085E+02 -0.42097025236E+02  0.11487750954E+03  0.14756064315E+03  0.47000000000E+01 0.  1.
         11    1    6    6    0    0 -0.40847865865E+02  0.76308662086E+01  0.14136142513E+03  0.14734256269E+03  0.00000000000E+00 0. -1.
        -12    1    6    6    0    0  0.16825098845E+02 -0.41703108376E+02  0.27440249669E+03  0.27806287668E+03  0.00000000000E+00 0.  1.
</event>
<event>
12    1  0.2576962E-002  0.1780450E+03  0.7818608E-02  0.1169709E+00
          1   -1    0    0  502    0  0.00000000000E+00  0.00000000000E+00  0.48731386132E+03  0.48731386132E+03  0.00000000000E+00 0.  1.
         -1   -1    0    0    0  501 -0.00000000000E+00 -0.00000000000E+00 -0.67254882325E+02  0.67254882325E+02  0.00000000000E+00 0. -1.
          6    2    1    2  502    0  0.50554751441E+02  0.42710635062E+02  0.26843310991E+03  0.32722627459E+03  0.17504490581E+03 0.  0.
         24    2    3    3    0    0  0.92135739911E+02  0.19102567815E+02  0.24662671076E+03  0.27446332846E+03  0.75176336305E+02 0.  0.
         -6    2    1    2    0  501 -0.50554751441E+02 -0.42710635062E+02  0.15162586909E+03  0.22734246905E+03  0.15593015365E+03 0.  0.
        -24    2    5    5    0    0  0.21057279461E+02 -0.10537230762E+02  0.43532840586E+02  0.93665231929E+02  0.79521224917E+02 0.  0.
          5    1    3    3  502    0 -0.41580988470E+02  0.23608067246E+02  0.21806399143E+02  0.52762946135E+02  0.47000000000E+01 0. -1.
        -13    1    4    4    0    0 -0.21589153710E+01 -0.18527116843E+02  0.32104405702E+02  0.37129608664E+02  0.00000000000E+00 0.  1.
         14    1    4    4    0    0  0.94294655282E+02  0.37629684658E+02  0.21452230506E+03  0.23733371979E+03  0.00000000000E+00 0. -1.
         -5    1    5    5    0  501 -0.71612030903E+02 -0.32173404299E+02  0.10809302850E+03  0.13367723712E+03  0.47000000000E+01 0.  1.
         13    1    6    6    0    0 -0.87503636867E+01 -0.38542194001E+02  0.32852593029E+02  0.51394186946E+02  0.00000000000E+00 0. -1.
        -14    1    6    6    0    0  0.29807643148E+02  0.28004963239E+02  0.10680247557E+02  0.42271044983E+02  0.00000000000E+00 0.  1.
</event>
<event>
12    1  0.2576962E-002  0.2421063E+03  0.7818608E-02  0.1118398E+00
         -2   -1    0    0    0  501 -0.00000000000E+00  0.00000000000E+00  0.41622545510E+03  0.41622545510E+03  0.00000000000E+00 0. -1.
          2   -1    0    0  502    0  0.00000000000E+00 -0.00000000000E+00 -0.14582103209E+03  0.14582103209E+03  0.00000000000E+00 0.  1.
          6    2    1    2  502    0  0.12768687449E+03 -0.11154595837E+03  0.83409307604E+02  0.25644983822E+03  0.17338675897E+03 0.  0.
         24    2    3    3    0    0  0.61451000225E+02 -0.13249677679E+03  0.27642145218E+02  0.16724112658E+03  0.76641274396E+02 0.  0.
         -6    2    1    2    0  501 -0.12768687449E+03  0.11154595837E+03  0.18699511541E+03  0.30559664896E+03  0.17226636331E+03 0.  0.
        -24    2    5    5    0    0 -0.66826901031E+01  0.76321287065E+02  0.11760247286E+03  0.16165145472E+03  0.80195099498E+02 0.  0.
          5    1    3    3  502    0  0.66235874263E+02  0.20950818421E+02  0.55767162385E+02  0.89208711640E+02  0.47000000000E+01 0. -1.
        -13    1    4    4    0    0 -0.95429259679E+01 -0.42114393654E+02 -0.13381865753E+02  0.45208007254E+02  0.00000000000E+00 0.  1.
         14    1    4    4    0    0  0.70993926193E+02 -0.90382383132E+02  0.41024010971E+02  0.12203311933E+03  0.00000000000E+00 0. -1.
         -5    1    5    5    0  501 -0.12100418438E+03  0.35224671300E+02  0.69392642550E+02  0.14394519425E+03  0.47000000000E+01 0.  1.
         11    1    6    6    0    0  0.13619850386E+02 -0.99836670794E+01  0.36616031307E+01  0.17279504344E+02  0.00000000000E+00 0. -1.
        -12    1    6    6    0    0 -0.20302540489E+02  0.86304954145E+02  0.11394086973E+03  0.14437195037E+03  0.00000000000E+00 0.  1.
</event>
<event>
12    1  0.2576962E-002  0.1847138E+03  0.7818608E-02  0.1163317E+00
         -1   -1    0    0    0  501 -0.00000000000E+00  0.00000000000E+00  0.26759087918E+02  0.26759087918E+02  0.00000000000E+00 0.  1.
          1   -1    0    0  502    0  0.00000000000E+00 -0.00000000000E+00 -0.14269377256E+04  0.14269377256E+04  0.00000000000E+00 0. -1.
          6    2    1    2  502    0  0.42486219264E+02  0.52377965162E+02 -0.46273797019E+03  0.49821919167E+03  0.17189358287E+03 0.  0.
         24    2    3    3    0    0 -0.17794197980E+02  0.47555523361E+02 -0.13772292877E+03  0.16759273810E+03  0.80879907718E+02 0.  0.
         -6    2    1    2    0  501 -0.42486219264E+02 -0.52377965162E+02 -0.93744066749E+03  0.95547762184E+03  0.17202892409E+03 0.  0.
        -24    2    5    5    0    0 -0.45311658684E+02 -0.10404331504E+03 -0.74535552863E+03  0.75648997887E+03  0.62000534332E+02 0.  0.
          5    1    3    3  502    0  0.60280417244E+02  0.48224418012E+01 -0.32501504142E+03  0.33062645357E+03  0.47000000000E+01 0. -1.
        -13    1    4    4    0    0  0.11349713866E+02  0.60729747788E+02 -0.74861317094E+02  0.97062531743E+02  0.00000000000E+00 0.  1.
         14    1    4    4    0    0 -0.29143911846E+02 -0.13174224427E+02 -0.62861611674E+02  0.70530206360E+02  0.00000000000E+00 0. -1.
         -5    1    5    5    0  501  0.28254394198E+01  0.51665349875E+02 -0.19208513886E+03  0.19898764297E+03  0.47000000000E+01 0.  1.
         13    1    6    6    0    0 -0.43405885796E+02 -0.25290059031E+02 -0.26541562647E+03  0.27012795632E+03  0.00000000000E+00 0. -1.
        -14    1    6    6    0    0 -0.19057728880E+01 -0.78753256006E+02 -0.47993990215E+03  0.48636202255E+03  0.00000000000E+00 0.  1.
</event>
<event>
12    1  0.2576962E-002  0.5876292E+03  0.7818608E-02  0.9931409E-01
         -1   -1    0    0    0  501 -0.00000000000E+00  0.00000000000E+00  0.54347715936E+03  0.54347715936E+03  0.00000000000E+00 0.  1.
          1   -1    0    0  502    0  0.00000000000E+00 -0.00000000000E+00 -0.73124424056E+03  0.73124424056E+03  0.00000000000E+00 0. -1.
          6    2    1    2  502    0 -0.30782208439E+03 -0.46992664433E+03 -0.32466292464E+03  0.67131075651E+03  0.17224003741E+03 0.  0.
         24    2    3    3    0    0 -0.18220499206E+03 -0.35379164631E+03 -0.16680366427E+03  0.43848329306E+03  0.77954780187E+02 0.  0.
         -6    2    1    2    0  501  0.30782208439E+03  0.46992664433E+03  0.13689584344E+03  0.60341064341E+03  0.17256432409E+03 0.  0.
        -24    2    5    5    0    0  0.51544192989E+02  0.10318421663E+03  0.28652392863E+02  0.14306609801E+03  0.79643972718E+02 0.  0.
          5    1    3    3  502    0 -0.12561709233E+03 -0.11613499802E+03 -0.15785926037E+03  0.23282746345E+03  0.47000000000E+01 0. -1.
        -13    1    4    4    0    0 -0.20323991899E+02 -0.40059307848E+02  0.61851886789E+01  0.45343900924E+02  0.00000000000E+00 0.  1.
         14    1    4    4    0    0 -0.16188100016E+03 -0.31373233846E+03 -0.17298885294E+03  0.39313939214E+03  0.00000000000E+00 0. -1.
         -5    1    5    5    0  501  0.25627789140E+03  0.36674242769E+03  0.10824345058E+03  0.46034454540E+03  0.47000000000E+01 0.  1.
         13    1    6    6    0    0  0.12496199059E+02  0.60395083296E+01  0.35527018426E+02  0.38141836479E+02  0.00000000000E+00 0. -1.
        -14    1    6    6    0    0  0.39047993931E+02  0.97144708305E+02 -0.68746255628E+01  0.10492426153E+03  0.00000000000E+00 0.  1.
</event>
<event>
12    1  0.2576962E-002  0.2005651E+03  0.7818608E-02  0.1149263E+00
         -1   -1    0    0    0  501 -0.00000000000E+00  0.00000000000E+00  0.33680133709E+02  0.33680133709E+02  0.00000000000E+00 0. -1.
          1   -1    0    0  502    0  0.00000000000E+00 -0.00000000000E+00 -0.12699068128E+04  0.12699068128E+04  0.00000000000E+00 0.  1.
          6    2    1    2  502    0 -0.10242645882E+03 -0.10690398384E+02 -0.46142572825E+03  0.50344269076E+03  0.17301842707E+03 0.  0.
         24    2    3    3    0    0 -0.37825496308E+02  0.17262122314E+02 -0.39975561692E+03  0.40974146130E+03  0.79716766195E+02 0.  0.
         -6    2    1    2    0  501  0.10242645882E+03  0.10690398384E+02 -0.77480095083E+03  0.80014425574E+03  0.17119828416E+03 0.  0.
        -24    2    5    5    0    0  0.13051736551E+02  0.41323825238E+02 -0.16019072029E+03  0.17829694867E+03  0.65197612526E+02 0.  0.
          5    1    3    3  502    0 -0.64600962512E+02 -0.27952520698E+02 -0.61670111330E+02  0.93701229460E+02  0.47000000000E+01 0. -1.
        -11    1    4    4    0    0 -0.57371542909E+02  0.30962226809E+02 -0.31578202896E+03  0.32244137954E+03  0.00000000000E+00 0.  1.
         12    1    4    4    0    0  0.19546046601E+02 -0.13700104495E+02 -0.83973587967E+02  0.87300081770E+02  0.00000000000E+00 0. -1.
         -5    1    5    5    0  501  0.89374722269E+02 -0.30633426854E+02 -0.61461023054E+03  0.62184730706E+03  0.47000000000E+01 0.  1.
         13    1    6    6    0    0 -0.15005831207E+02 -0.85486293604E+01 -0.17625203098E+02  0.24675936019E+02  0.00000000000E+00 0. -1.
        -14    1    6    6    0    0  0.28057567758E+02  0.49872454598E+02 -0.14256551719E+03  0.15362101265E+03  0.00000000000E+00 0.  1.
</event>
<event>
12    1  0.2576962E-002  0.2598389E+03  0.7818608E-02  0.1107240E+00
         -2   -1    0    0    0  501 -0.00000000000E+00  0.00000000000E+00  0.49397597951E+02  0.49397597951E+02  0.00000000000E+00 0. -1.
          2   -1    0    0  502    0  0.00000000000E+00 -0.00000000000E+00 -0.13720939786E+04  0.13720939786E+04  0.00000000000E+00 0.  1.
          6    2    1    2  502    0 -0.64083097107E+02 -0.18523006769E+03 -0.70405300953E+03  0.75027387295E+03  0.16971571197E+03 0.  0.
         24    2    3    3    0    0 -0.84001788627E+02 -0.58050935237E+02 -0.32323413828E+03  0.34825846441E+03  0.79858864931E+02 0.  0.
         -6    2    1    2    0  501  0.64083097107E+02  0.18523006769E+03 -0.61864337114E+03  0.67121770362E+03  0.17145484446E+03 0.  0.
        -24    2    5    5    0    0  0.17417711606E+02  0.15681602130E+03 -0.57320298253E+03  0.60000018363E+03  0.80894498987E+02 0.  0.
          5    1    3    3  502    0  0.19918691520E+02 -0.12717913246E+03 -0.38081887125E+03  0.40201540854E+03  0.47000000000E+01 0. -1.
        -11    1    4    4    0    0 -0.39331150541E+02 -0.37138280060E+02 -0.27127800811E+03  0.27661877907E+03  0.00000000000E+00 0.  1.
         12    1    4    4    0    0 -0.44670638086E+02 -0.20912655177E+02 -0.51956130172E+02  0.71639685343E+02  0.00000000000E+00 0. -1.
         -5    1    5    5    0  501  0.46665385500E+02  0.28414046391E+02 -0.45440388608E+02  0.71217519987E+02  0.47000000000E+01 0.  1.
         13    1    6    6    0    0 -0.26986012730E+02  0.20379699082E+02 -0.10658539278E+03  0.11182138870E+03  0.00000000000E+00 0. -1.
        -14    1    6    6    0    0  0.44403724336E+02  0.13643632222E+03 -0.46661758975E+03  0.48817879493E+03  0.00000000000E+00 0.  1.
</event>
<event>
12    1  0.2576962E-002  0.2126863E+03  0.7818608E-02  0.1139456E+00
         -2   -1    0    0    0  501 -0.00000000000E+00  0.00000000000E+00  0.68808098554E+02  0.68808098554E+02  0.00000000000E+00 0. -1.
          2   -1    0    0  502    0  0.00000000000E+00 -0.00000000000E+00 -0.10734187391E+04  0.10734187391E+04  0.00000000000E+00 0.  1.
          6    2    1    2  502    0  0.10527607087E+03 -0.65433705682E+02 -0.85856727455E+03  0.88463958583E+03  0.17344973611E+03 0.  0.
         24    2    3    3    0    0  0.13081244981E+03 -0.78913692643E+02 -0.80831057189E+03  0.82648769110E+03  0.79853960522E+02 0.  0.
         -6    2    1    2    0  501 -0.10527607087E+03  0.65433705682E+02 -0.14604336603E+03  0.25758725186E+03  0.17221471082E+03 0.  0.
        -24    2    5    5    0    0 -0.95030134163E+02  0.58049845859E+02 -0.17706624086E+03  0.22376404433E+03  0.79481965758E+02 0.  0.
          5    1    3    3  502    0 -0.25536378941E+02  0.13479986961E+02 -0.50256702661E+02  0.58151894726E+02  0.47000000000E+01 0. -1.
        -13    1    4    4    0    0  0.37027393768E+02 -0.53020335591E+02 -0.47122536584E+03  0.47564222824E+03  0.00000000000E+00 0.  1.
         14    1    4    4    0    0  0.93785056038E+02 -0.25893357052E+02 -0.33708520605E+03  0.35084546286E+03  0.00000000000E+00 0. -1.
         -5    1    5    5    0  501 -0.10245936702E+02  0.73838598233E+01  0.31022874827E+02  0.33823207526E+02  0.47000000000E+01 0.  1.
         13    1    6    6    0    0  0.40479192735E+01 -0.96367003882E+01 -0.73428097714E+00  0.10478111155E+02  0.00000000000E+00 0. -1.
        -14    1    6    6    0    0 -0.99078053437E+02  0.67686546247E+02 -0.17633195988E+03  0.21328593318E+03  0.00000000000E+00 0.  1.
</event>
<event>
12    1  0.2576962E-002  0.2117666E+03  0.7818608E-02  0.1140175E+00
          2   -1    0    0  502    0  0.00000000000E+00  0.00000000000E+00  0.40649100849E+03  0.40649100849E+03  0.00000000000E+00 0. -1.
         -2   -1    0    0    0  501 -0.00000000000E+00 -0.00000000000E+00 -0.11534209976E+03  0.11534209976E+03  0.00000000000E+00 0.  1.
          6    2    1    2  502    0  0.11604262440E+03  0.37751500987E+02  0.19925036142E+03  0.28995429891E+03  0.17170242407E+03 0.  0.
         24    2    3    3    0    0  0.56804819581E+02  0.86098321006E+02  0.15387249895E+03  0.20091625689E+03  0.77787453624E+02 0.  0.
         -6    2    1    2    0  501 -0.11604262440E+03 -0.37751500987E+02  0.91898547311E+02  0.23187880933E+03  0.17444590197E+03 0.  0.
        -24    2    5    5    0    0 -0.95766143882E+02 -0.75941724004E+02  0.19327091720E+02  0.14727186539E+03  0.79857160619E+02 0.  0.
          5    1    3    3  502    0  0.59237804818E+02 -0.48346820019E+02  0.45377862467E+02  0.89038042025E+02  0.47000000000E+01 0. -1.
        -11    1    4    4    0    0  0.50472549977E+02  0.16558273165E+02  0.36870250847E+02  0.64661194769E+02  0.00000000000E+00 0.  1.
         12    1    4    4    0    0  0.63322696036E+01  0.69540047841E+02  0.11700224810E+03  0.13625506212E+03  0.00000000000E+00 0. -1.
         -5    1    5    5    0  501 -0.20276480517E+02  0.38190223017E+02  0.72571455591E+02  0.84606943940E+02  0.47000000000E+01 0.  1.
         11    1    6    6    0    0  0.69846922938E+01 -0.28299195868E+02 -0.90337577764E+01  0.30516211967E+02  0.00000000000E+00 0. -1.
        -12    1    6    6    0    0 -0.10275083618E+03 -0.47642528136E+02  0.28360849496E+02  0.11675565342E+03  0.00000000000E+00 0.  1.
</event>
<event>
12    1  0.2576962E-002  0.1800347E+03  0.7818608E-02  0.1167769E+00
         -4   -1    0    0    0  501 -0.00000000000E+00  0.00000000000E+00  0.11440449165E+04  0.11440449165E+04  0.00000000000E+00 0.  1.
          4   -1    0    0  502    0  0.00000000000E+00 -0.00000000000E+00 -0.28342205911E+02  0.28342205911E+02  0.00000000000E+00 0. -1.
          6    2    1    2  502    0 -0.48583872767E+02 -0.14870556023E+02  0.54604607410E+03  0.57491804460E+03  0.17257727788E+03 0.  0.
         24    2    3    3    0    0 -0.80865145525E+00  0.40450563136E+01  0.49792619659E+03  0.50436391805E+03  0.80221245242E+02 0.  0.
         -6    2    1    2    0  501  0.48583872767E+02  0.14870556023E+02  0.56965663647E+03  0.59746907779E+03  0.17285568926E+03 0.  0.
        -24    2    5    5    0    0  0.20992861982E+02  0.19436754033E+02  0.56134714457E+03  0.56791824538E+03  0.81252871076E+02 0.  0.
          5    1    3    3  502    0 -0.47775221312E+02 -0.18915612336E+02  0.48119877511E+02  0.70554126549E+02  0.47000000000E+01 0. -1.
        -13    1    4    4    0    0 -0.20638078151E+02 -0.29312266674E+02  0.33346431649E+03  0.33538573258E+03  0.00000000000E+00 0.  1.
         14    1    4    4    0    0  0.19829426696E+02  0.33357322987E+02  0.16446188010E+03  0.16897818547E+03  0.00000000000E+00 0. -1.
         -5    1    5    5    0  501  0.27591010785E+02 -0.45661980098E+01  0.83094919011E+01  0.29550832409E+02  0.47000000000E+01 0.  1.
         11    1    6    6    0    0  0.42230759761E+02 -0.15710010682E+02  0.28770691619E+03  0.29121385806E+03  0.00000000000E+00 0. -1.
        -12    1    6    6    0    0 -0.21237897779E+02  0.35146764714E+02  0.27364022838E+03  0.27670438732E+03  0.00000000000E+00 0.  1.
</event>
<event>
12    1  0.2576962E-002  0.1737709E+03  0.7818608E-02  0.1173972E+00
          1   -1    0    0  502    0  0.00000000000E+00  0.00000000000E+00  0.12953781274E+04  0.12953781274E+04  0.00000000000E+00 0.  1.
         -1   -1    0    0    0  501 -0.00000000000E+00 -0.00000000000E+00 -0.23472782051E+02  0.23472782051E+02  0.00000000000E+00 0. -1.
          6    2    1    2  502    0  0.88229837932E+01 -0.51925623570E+01  0.68710812124E+03  0.70850616593E+03  0.17250683797E+03 0.  0.
         24    2    3    3    0    0 -0.28159381946E+01  0.63043352232E+02  0.47470709835E+03  0.48506067130E+03  0.77166261122E+02 0.  0.
         -6    2    1    2    0  501 -0.88229837932E+01  0.51925623570E+01  0.58479722413E+03  0.61034474353E+03  0.17443653536E+03 0.  0.
        -24    2    5    5    0    0  0.31923285568E+02 -0.40503150673E+02  0.47634920381E+03  0.48571962662E+03  0.79720702038E+02 0.  0.
          5    1    3    3  502    0  0.11638921988E+02 -0.68235914589E+02  0.21240102289E+03  0.22344549463E+03  0.47000000000E+01 0. -1.
        -11    1    4    4    0    0  0.38182982698E+01  0.48414318650E+02  0.46208965555E+03  0.46463466876E+03  0.00000000000E+00 0.  1.
         12    1    4    4    0    0 -0.66342364645E+01  0.14629033582E+02  0.12617442800E+02  0.20426002542E+02  0.00000000000E+00 0. -1.
         -5    1    5    5    0  501 -0.40746269361E+02  0.45695713030E+02  0.10844802031E+03  0.12462511691E+03  0.47000000000E+01 0.  1.
         13    1    6    6    0    0 -0.39197156371E+01 -0.12669013658E+02  0.86707854682E+01  0.15844576308E+02  0.00000000000E+00 0. -1.
        -14    1    6    6    0    0  0.35843001205E+02 -0.27834137015E+02  0.46767841835E+03  0.46987505031E+03  0.00000000000E+00 0.  1.
</event>
<event>
12    1  0.2576962E-002  0.2029028E+03  0.7818608E-02  0.1147313E+00
          1   -1    0    0  502    0  0.00000000000E+00  0.00000000000E+00  0.33050365421E+03  0.33050365421E+03  0.00000000000E+00 0.  1.
         -1   -1    0    0    0  501 -0.00000000000E+00 -0.00000000000E+00 -0.29666644356E+03  0.29666644356E+03  0.00000000000E+00 0. -1.
          6    2    1    2  502    0 -0.10636744687E+03  0.22881534047E+02 -0.22192340247E+03  0.30071184254E+03  0.17128927966E+03 0.  0.
         24    2    3    3    0    0 -0.12774280996E+03  0.39011475567E+02 -0.12392878613E+03  0.19901564796E+03  0.80054752383E+02 0.  0.
         -6    2    1    2    0  501  0.10636744687E+03 -0.22881534047E+02  0.25576061312E+03  0.32645825522E+03  0.17124223434E+03 0.  0.
        -24    2    5    5    0    0  0.71015987609E+02 -0.24502030899E+01  0.49608752088E+02  0.11624920507E+03  0.77482742625E+02 0.  0.
          5    1    3    3  502    0  0.21375363087E+02 -0.16129941520E+02 -0.97994616341E+02  0.10169619458E+03  0.47000000000E+01 0. -1.
        -11    1    4    4    0    0 -0.49857429365E+02  0.53867007876E+02 -0.40139307238E+02  0.83657526774E+02  0.00000000000E+00 0.  1.
         12    1    4    4    0    0 -0.77885380594E+02 -0.14855532309E+02 -0.83789478895E+02  0.11535812119E+03  0.00000000000E+00 0. -1.
         -5    1    5    5    0  501  0.35351459263E+02 -0.20431330957E+02  0.20615186103E+03  0.21020905015E+03  0.47000000000E+01 0.  1.
         11    1    6    6    0    0  0.36430713748E+02  0.35343807769E+02  0.10587429982E+02  0.51850509403E+02  0.00000000000E+00 0. -1.
        -12    1    6    6    0    0  0.34585273861E+02 -0.37794010858E+02  0.39021322107E+02  0.64398695668E+02  0.00000000000E+00 0.  1.
</event>
<event>
12    1  0.2576962E-002  0.2127325E+03  0.7818608E-02  0.1139420E+00
         -2   -1    0    0    0  501 -0.00000000000E+00  0.00000000000E+00  0.33030353354E+02  0.33030353354E+02  0.00000000000E+00 0.  1.
          2   -1    0    0  502    0  0.00000000000E+00 -0.00000000000E+00 -0.19527846420E+04  0.19527846420E+04  0.00000000000E+00 0. -1.
          6    2    1    2  502    0 -0.11672531314E+03  0.24311947905E+02 -0.14917177270E+04  0.15063562760E+04  0.17225441565E+03 0.  0.
         24    2    3    3    0    0 -0.67455727501E+02  0.35573686039E+02 -0.44948868005E+03  0.46289195218E+03  0.80081980426E+02 0.  0.
         -6    2    1    2    0  501  0.11672531314E+03 -0.24311947905E+02 -0.42803656164E+03  0.47945871933E+03  0.18013743615E+03 0.  0.
        -24    2    5    5    0    0 -0.13303001262E+02 -0.98793458847E+01 -0.20164693726E+03  0.21794387353E+03  0.81015266376E+02 0.  0.
          5    1    3    3  502    0 -0.49269585637E+02 -0.11261738133E+02 -0.10422290469E+04  0.10434643238E+04  0.47000000000E+01 0. -1.
        -11    1    4    4    0    0 -0.61940778035E+02  0.56244964047E+02 -0.40467096557E+03  0.41322965327E+03  0.00000000000E+00 0.  1.
         12    1    4    4    0    0 -0.55149494657E+01 -0.20671278008E+02 -0.44817714481E+02  0.49662298914E+02  0.00000000000E+00 0. -1.
         -5    1    5    5    0  501  0.13002831440E+03 -0.14432602021E+02 -0.22638962439E+03  0.26151484581E+03  0.47000000000E+01 0.  1.
         11    1    6    6    0    0  0.72104437149E+00 -0.40519154976E+02 -0.15617515401E+03  0.16134745290E+03  0.00000000000E+00 0. -1.
        -12    1    6    6    0    0 -0.14024045634E+02  0.30639809091E+02 -0.45471783242E+02  0.56596420631E+02  0.00000000000E+00 0.  1.
</event>
<event>
12    1  0.2576962E-002  0.1986082E+03  0.7818608E-02  0.1150919E+00
          2   -1    0    0  502    0  0.00000000000E+00  0.00000000000E+00  0.74247266312E+03  0.74247266312E+03  0.00000000000E+00 0. -1.
         -2   -1    0    0    0  501 -0.00000000000E+00 -0.00000000000E+00 -0.96344289532E+02  0.96344289532E+02  0.00000000000E+00 0.  1.
          6    2    1    2  502    0  0.93224053259E+01 -0.92600922451E+02  0.39602905608E+02  0.19968250949E+03  0.17217106721E+03 0.  0.
         24    2    3    3    0    0  0.34000837770E+02 -0.84662432169E+02  0.83512060033E+02  0.14847559103E+03  0.82139835470E+02 0.  0.
         -6    2    1    2    0  501 -0.93224053259E+01  0.92600922451E+02  0.60652546798E+03  0.63913444316E+03  0.17876760067E+03 0.  0.
        -24    2    5    5    0    0  0.55118393013E+02  0.50350796173E+02  0.46891314483E+03  0.48134682912E+03  0.79006281964E+02 0.  0.
          5    1    3    3  502    0 -0.24678432445E+02 -0.79384902821E+01 -0.43909154425E+02  0.51206918460E+02  0.47000000000E+01 0. -1.
        -13    1    4    4    0    0  0.22845746166E+02 -0.29170874773E+02 -0.10701584093E+02  0.38566720822E+02  0.00000000000E+00 0.  1.
         14    1    4    4    0    0  0.11155091605E+02 -0.55491557396E+02  0.94213644126E+02  0.10990887021E+03  0.00000000000E+00 0. -1.
         -5    1    5    5    0  501 -0.64440798339E+02  0.42250126278E+02  0.13761232315E+03  0.15778761404E+03  0.47000000000E+01 0.  1.
         13    1    6    6    0    0  0.57057018349E+02  0.48352474189E+00  0.29236454754E+03  0.29788045554E+03  0.00000000000E+00 0. -1.
        -14    1    6    6    0    0 -0.19386253359E+01  0.49867271431E+02  0.17654859729E+03  0.18346637358E+03  0.00000000000E+00 0.  1.
</event>
<event>
12    1  0.2576962E-002  0.2232473E+03  0.7818608E-02  0.1131485E+00
          1   -1    0    0  502    0  0.00000000000E+00  0.00000000000E+00  0.89658240019E+03  0.89658240019E+03  0.00000000000E+00 0.  1.
         -1   -1    0    0    0  501 -0.00000000000E+00 -0.00000000000E+00 -0.60719696660E+02  0.60719696660E+02  0.00000000000E+00 0. -1.
          6    2    1    2  502    0  0.13060091038E+03  0.41802670511E+02  0.27247187358E+03  0.34986127936E+03  0.17134156487E+03 0.  0.
         24    2    3    3    0    0  0.49624623949E+02  0.12027687691E+01  0.23221413762E+03  0.25062274708E+03  0.80151766589E+02 0.  0.
         -6    2    1    2    0  501 -0.13060091038E+03 -0.41802670511E+02  0.56339082995E+03  0.60744081749E+03  0.18102778357E+03 0.  0.
        -24    2    5    5    0    0  0.48347224617E+01  0.11209851252E+02  0.22438177676E+03  0.23852027556E+03  0.79973150539E+02 0.  0.
          5    1    3    3  502    0  0.80976286432E+02  0.40599901741E+02  0.40257735962E+02  0.99238532287E+02  0.47000000000E+01 0. -1.
        -13    1    4    4    0    0  0.10030523682E+02 -0.27016107185E+02  0.16595404846E+03  0.16843760759E+03  0.00000000000E+00 0.  1.
         14    1    4    4    0    0  0.39594100267E+02  0.28218875955E+02  0.66260089164E+02  0.82185139485E+02  0.00000000000E+00 0. -1.
         -5    1    5    5    0  501 -0.13543563284E+03 -0.53012521763E+02  0.33900905319E+03  0.36892054192E+03  0.47000000000E+01 0.  1.
         13    1    6    6    0    0  0.27755951121E+02  0.32914646939E+02  0.81293360876E+02  0.91991180709E+02  0.00000000000E+00 0. -1.
        -14    1    6    6    0    0 -0.22921228659E+02 -0.21704795687E+02  0.14308841588E+03  0.14652909485E+03  0.00000000000E+00 0.  1.
</event>
<event>
12    1  0.2576962E-002  0.1818949E+03  0.7818608E-02  0.1165982E+00
         -2   -1    0    0    0  501 -0.00000000000E+00  0.00000000000E+00  0.50139733143E+02  0.50139733143E+02  0.00000000000E+00 0.  1.
          2   -1    0    0  502    0  0.00000000000E+00 -0.00000000000E+00 -0.67571467171E+03  0.67571467171E+03  0.00000000000E+00 0. -1.
          6    2    1    2  502    0 -0.56796545060E+02  0.21997400805E+01 -0.36957618801E+03  0.41223883769E+03  0.17356155728E+03 0.  0.
         24    2    3    3    0    0  0.24947862361E+01  0.19909943211E+01 -0.66831249126E+02  0.10370667800E+03  0.79236804484E+02 0.  0.
         -6    2    1    2    0  501  0.56796545060E+02 -0.21997400805E+01 -0.25599875056E+03  0.31361556717E+03  0.17201359625E+03 0.  0.
        -24    2    5    5    0    0  0.76351982328E+02 -0.49842936663E+02 -0.23550062536E+03  0.25798686555E+03  0.52751632291E+02 0.  0.
          5    1    3    3  502    0 -0.59291331296E+02  0.20874575941E+00 -0.30274493888E+03  0.30853215969E+03  0.47000000000E+01 0. -1.
        -11    1    4    4    0    0 -0.37775149622E+02  0.30917854632E+01 -0.23765969272E+02  0.44736365093E+02  0.00000000000E+00 0.  1.
         12    1    4    4    0    0  0.40269935858E+02 -0.11007911421E+01 -0.43065279854E+02  0.58970312904E+02  0.00000000000E+00 0. -1.
         -5    1    5    5    0  501 -0.19555437268E+02  0.47643196583E+02 -0.20498125196E+02  0.55628701620E+02  0.47000000000E+01 0.  1.
         11    1    6    6    0    0  0.12708335191E+02 -0.35642490166E+02 -0.11366537102E+03  0.11979860374E+03  0.00000000000E+00 0. -1.
        -12    1    6    6    0    0  0.63643647138E+02 -0.14200446497E+02 -0.12183525434E+03  0.13818826181E+03  0.00000000000E+00 0.  1.
</event>
<event>
12    1  0.2576962E-002  0.1761075E+03  0.7818608E-02  0.1171624E+00
          1   -1    0    0  502    0  0.00000000000E+00  0.00000000000E+00  0.65441297206E+03  0.65441297206E+03  0.00000000000E+00 0. -1.
         -1   -1    0    0    0  501 -0.00000000000E+00 -0.00000000000E+00 -0.48104843475E+02  0.48104843475E+02  0.00000000000E+00 0.  1.
          6    2    1    2  502    0 -0.16995124881E+02  0.35627540503E+02  0.34526958945E+03  0.38741698869E+03  0.17123865748E+03 0.  0.
         24    2    3    3    0    0  0.71027024231E+01 -0.39929253637E+02  0.23308679823E+03  0.24995207292E+03  0.80633675171E+02 0.  0.
         -6    2    1    2    0  501  0.16995124881E+02 -0.35627540503E+02  0.26103853913E+03  0.31510082684E+03  0.17201527912E+03 0.  0.
        -24    2    5    5    0    0 -0.24026498606E+02  0.32110131573E+02  0.18367695980E+03  0.20429437501E+03  0.79941434262E+02 0.  0.
          5    1    3    3  502    0 -0.24097827304E+02  0.75556794140E+02  0.11218279122E+03  0.13746491577E+03  0.47000000000E+01 0. -1.
        -13    1    4    4    0    0  0.48831312930E+01 -0.73648975820E+01 -0.46497591890E+01  0.99853366560E+01  0.00000000000E+00 0.  1.
         14    1    4    4    0    0  0.22195711301E+01 -0.32564356055E+02  0.23773655741E+03  0.23996673626E+03  0.00000000000E+00 0. -1.
         -5    1    5    5    0  501  0.41021623487E+02 -0.67737672076E+02  0.77361579329E+02  0.11080645183E+03  0.47000000000E+01 0.  1.
         13    1    6    6    0    0 -0.42624506347E+02 -0.42903177146E+01  0.12966289890E+03  0.13655666486E+03  0.00000000000E+00 0. -1.
        -14    1    6    6    0    0  0.18598007741E+02  0.36400449287E+02  0.54014060906E+02  0.67737710146E+02  0.00000000000E+00 0.  1.
</event>
<event>
12    1  0.2576962E-002  0.3506775E+03  0.7818608E-02  0.1062337E+00
         -1   -1    0    0    0  501 -0.00000000000E+00  0.00000000000E+00  0.10594375276E+03  0.10594375276E+03  0.00000000000E+00 0.  1.
          1   -1    0    0  502    0  0.00000000000E+00 -0.00000000000E+00 -0.24922907598E+04  0.24922907598E+04  0.00000000000E+00 0. -1.
          6    2    1    2  502    0  0.26089092913E+03 -0.15970310834E+03 -0.21427972807E+04  0.21713084166E+04  0.17155434711E+03 0.  0.
         24    2    3    3    0    0  0.17690253657E+03 -0.11295232322E+03 -0.18387417657E+04  0.18523859618E+04  0.79433844027E+02 0.  0.
         -6    2    1    2    0  501 -0.26089092913E+03  0.15970310834E+03 -0.24354972634E+03  0.42692609597E+03  0.17140671663E+03 0.  0.
        -24    2    5    5    0    0 -0.65176463364E+02  0.10691983452E+03 -0.95140337650E+02  0.17565400688E+03  0.78248475349E+02 0.  0.
          5    1    3    3  502    0  0.83988392565E+02 -0.46750785118E+02 -0.30405551501E+03  0.31892245484E+03  0.47000000000E+01 0. -1.
        -11    1    4    4    0    0  0.46121850407E+01  0.11084358308E+02 -0.11266180367E+03  0.11329967898E+03  0.00000000000E+00 0.  1.
         12    1    4    4    0    0  0.17229035153E+03 -0.12403668153E+03 -0.17260799621E+04  0.17390862828E+04  0.00000000000E+00 0. -1.
         -5    1    5    5    0  501 -0.19571446577E+03  0.52783273823E+02 -0.14840938869E+03  0.25127208909E+03  0.47000000000E+01 0.  1.
         13    1    6    6    0    0 -0.46175666221E+02  0.11212395888E+03 -0.97787104488E+02  0.15577641706E+03  0.00000000000E+00 0. -1.
        -14    1    6    6    0    0 -0.19000797143E+02 -0.52041243657E+01  0.26467668376E+01  0.19877589823E+02  0.00000000000E+00 0.  1.
</event>
<event>
12    1  0.2576962E-002  0.1796910E+03  0.7818608E-02  0.1168102E+00
          2   -1    0    0  502    0  0.00000000000E+00  0.00000000000E+00  0.25964941049E+04  0.25964941049E+04  0.00000000000E+00 0. -1.
         -2   -1    0    0    0  501 -0.00000000000E+00 -0.00000000000E+00 -0.17296105933E+02  0.17296105933E+02  0.00000000000E+00 0.  1.
          6    2    1    2  502    0  0.41444602502E+02  0.24395896602E+02  0.19754005933E+04  0.19834356257E+04  0.17174563336E+03 0.  0.
         24    2    3    3    0    0  0.90094585075E+02  0.74810619762E+01  0.15924022656E+04  0.15969608640E+04  0.79787374453E+02 0.  0.
         -6    2    1    2    0  501 -0.41444602502E+02 -0.24395896602E+02  0.60379740572E+03  0.63035458515E+03  0.17453590180E+03 0.  0.
        -24    2    5    5    0    0 -0.39826242208E+02  0.23678569788E+02  0.55083603990E+03  0.55865542422E+03  0.80800593568E+02 0.  0.
          5    1    3    3  502    0 -0.48649982572E+02  0.16914834626E+02  0.38299832767E+03  0.38647476170E+03  0.47000000000E+01 0. -1.
        -13    1    4    4    0    0  0.30798907345E+02  0.18143507221E+02  0.11405318781E+04  0.11410919001E+04  0.00000000000E+00 0.  1.
         14    1    4    4    0    0  0.59295677729E+02 -0.10662445245E+02  0.45187038745E+03  0.45586896384E+03  0.00000000000E+00 0. -1.
         -5    1    5    5    0  501 -0.16183602944E+01 -0.48074466390E+02  0.52961365820E+02  0.71699160931E+02  0.47000000000E+01 0.  1.
         11    1    6    6    0    0 -0.16362255267E+02  0.36592338930E+02  0.11119266510E+03  0.11819700266E+03  0.00000000000E+00 0. -1.
        -12    1    6    6    0    0 -0.23463986941E+02 -0.12913769142E+02  0.43964337480E+03  0.44045842156E+03  0.00000000000E+00 0.  1.
</event>
<event>
12    1  0.2576962E-002  0.1991211E+03  0.7818608E-02  0.1150483E+00
         -1   -1    0    0    0  501 -0.00000000000E+00  0.00000000000E+00  0.50875804389E+03  0.50875804389E+03  0.00000000000E+00 0.  1.
          1   -1    0    0  502    0  0.00000000000E+00 -0.00000000000E+00 -0.91300051309E+02  0.91300051309E+02  0.00000000000E+00 0. -1.
          6    2    1    2  502    0 -0.94785084154E+02 -0.33896597131E+02  0.32390019967E+03  0.38043021052E+03  0.17228643086E+03 0.  0.
         24    2    3    3    0    0  0.95202495694E+01 -0.47212419876E+02  0.13094668090E+03  0.16063470515E+03  0.79604192833E+02 0.  0.
         -6    2    1    2    0  501  0.94785084154E+02  0.33896597131E+02  0.93557792918E+02  0.21962788468E+03  0.17131887123E+03 0.  0.
        -24    2    5    5    0    0  0.10652831260E+03  0.15120594575E+02  0.10202966647E+02  0.13325335864E+03  0.77945130030E+02 0.  0.
          5    1    3    3  502    0 -0.10430533372E+03  0.13315822746E+02  0.19295351877E+03  0.21979550538E+03  0.47000000000E+01 0. -1.
        -11    1    4    4    0    0  0.28347484891E+02 -0.51588068233E+02  0.12825667994E+03  0.14111939850E+03  0.00000000000E+00 0.  1.
         12    1    4    4    0    0 -0.18827235321E+02  0.43756483568E+01  0.26900009596E+01  0.19515306648E+02  0.00000000000E+00 0. -1.
         -5    1    5    5    0  501 -0.11743228441E+02  0.18776002555E+02  0.83354826270E+02  0.86374526041E+02  0.47000000000E+01 0.  1.
         13    1    6    6    0    0  0.34890146405E+01 -0.12367874666E+02 -0.18767465415E+02  0.22745445808E+02  0.00000000000E+00 0. -1.
        -14    1    6    6    0    0  0.10303929795E+03  0.27488469241E+02  0.28970432063E+02  0.11050791283E+03  0.00000000000E+00 0.  1.
</event>
<event>
12    1  0.2576962E-002  0.2374456E+03  0.7818608E-02  0.1121506E+00
          1   -1    0    0  502    0  0.00000000000E+00  0.00000000000E+00  0.14827990967E+03  0.14827990967E+03  0.00000000000E+00 0. -1.
         -1   -1    0    0    0  501 -0.00000000000E+00 -0.00000000000E+00 -0.41298115741E+03  0.41298115741E+03  0.00000000000E+00 0.  1.
          6    2    1    2  502    0 -0.13886313267E+02 -0.16326028357E+03 -0.21145262522E+03  0.31805710395E+03  0.17205045416E+03 0.  0.
         24    2    3    3    0    0  0.11769866314E+02 -0.59914036650E+02 -0.17886089149E+03  0.20659860311E+03  0.83447844562E+02 0.  0.
         -6    2    1    2    0  501  0.13886313267E+02  0.16326028357E+03 -0.53248622520E+02  0.24320396313E+03  0.17165663983E+03 0.  0.
        -24    2    5    5    0    0 -0.54364648730E+02  0.11402481249E+03 -0.50602229008E+02  0.15887473437E+03  0.81996480076E+02 0.  0.
          5    1    3    3  502    0 -0.25656179582E+02 -0.10334624692E+03 -0.32591733730E+02  0.11145850084E+03  0.47000000000E+01 0. -1.
        -13    1    4    4    0    0 -0.52308808327E+01 -0.77885941321E+02 -0.14480635920E+03  0.16450672824E+03  0.00000000000E+00 0.  1.
         14    1    4    4    0    0  0.17000747147E+02  0.17971904671E+02 -0.34054532284E+02  0.42091874871E+02  0.00000000000E+00 0. -1.
         -5    1    5    5    0  501  0.68250961997E+02  0.49235471077E+02 -0.26463935124E+01  0.84329228767E+02  0.47000000000E+01 0.  1.
         13    1    6    6    0    0 -0.63068732856E+02  0.84694436352E+02 -0.72928446325E+01  0.10584894046E+03  0.00000000000E+00 0. -1.
        -14    1    6    6    0    0  0.87040841256E+01  0.29330376136E+02 -0.43309384375E+02  0.53025793909E+02  0.00000000000E+00 0.  1.
</event>
<event>
12    1  0.2576962E-002  0.1987909E+03  0.7818608E-02  0.1150763E+00
          2   -1    0    0  502    0  0.00000000000E+00  0.00000000000E+00  0.79421056027E+03  0.79421056027E+03  0.00000000000E+00 0.  1.
         -2   -1    0    0    0  501 -0.00000000000E+00 -0.00000000000E+00 -0.63194865531E+02  0.63194865531E+02  0.00000000000E+00 0. -1.
          6    2    1    2  502    0  0.97676628057E+02 -0.43270889731E+02  0.17305504867E+03  0.26625079292E+03  0.17183812526E+03 0.  0.
         24    2    3    3    0    0  0.27311127857E+02  0.69100839059E+01  0.15727850276E+03  0.17827111837E+03  0.79059580385E+02 0.  0.
         -6    2    1    2    0  501 -0.97676628057E+02  0.43270889731E+02  0.55796064607E+03  0.59115463288E+03  0.16349502698E+03 0.  0.
        -24    2    5    5    0    0 -0.57587694849E+02  0.84231077266E+02  0.27924635002E+03  0.30656965725E+03  0.74801161592E+02 0.  0.
          5    1    3    3  502    0  0.70365500201E+02 -0.50180973637E+02  0.15776545916E+02  0.87979674554E+02  0.47000000000E+01 0. -1.
        -11    1    4    4    0    0 -0.23335223510E+02  0.43553599036E+01  0.17252324565E+02  0.29345263997E+02  0.00000000000E+00 0.  1.
         12    1    4    4    0    0  0.50646351367E+02  0.25547240023E+01  0.14002617819E+03  0.14892585437E+03  0.00000000000E+00 0. -1.
         -5    1    5    5    0  501 -0.40088933208E+02 -0.40960187535E+02  0.27871429605E+03  0.28458497563E+03  0.47000000000E+01 0.  1.
         11    1    6    6    0    0 -0.34811776844E+02  0.19205544635E+01  0.42987698201E+02  0.55348807874E+02  0.00000000000E+00 0. -1.
        -12    1    6    6    0    0 -0.22775918005E+02  0.82310522802E+02  0.23625865182E+03  0.25122084938E+03  0.00000000000E+00 0.  1.
</event>
<event>
12    1  0.2576962E-002  0.2451941E+03  0.7818608E-02  0.1116380E+00
         -2   -1    0    0    0  501 -0.00000000000E+00  0.00000000000E+00  0.15761420768E+03  0.15761420768E+03  0.00000000000E+00 0.  1.
          2   -1    0    0  502    0  0.00000000000E+00 -0.00000000000E+00 -0.15315702707E+04  0.15315702707E+04  0.00000000000E+00 0. -1.
          6    2    1    2  502    0  0.11557601660E+03  0.13035778783E+03  0.44613206694E+02  0.24965606591E+03  0.17316710016E+03 0.  0.
         24    2    3    3    0    0  0.27623041139E+01  0.11875249153E+02  0.32047988266E+01  0.80831328577E+02  0.79842226156E+02 0.  0.
         -6    2    1    2    0  501 -0.11557601660E+03 -0.13035778783E+03 -0.14185692698E+04  0.14395284125E+04  0.17190784989E+03 0.  0.
        -24    2    5    5    0    0 -0.14386551114E+03 -0.11053393304E+03 -0.13281310247E+04  0.13426034576E+04  0.75742919512E+02 0.  0.
          5    1    3    3  502    0  0.11281371248E+03  0.11848253867E+03  0.41408407867E+02  0.16882473733E+03  0.47000000000E+01 0. -1.
        -11    1    4    4    0    0  0.65333235151E+01 -0.24628942009E+02  0.26975264087E+02  0.37107060962E+02  0.00000000000E+00 0.  1.
         12    1    4    4    0    0 -0.37710194012E+01  0.36504191163E+02 -0.23770465261E+02  0.43724267615E+02  0.00000000000E+00 0. -1.
         -5    1    5    5    0  501  0.28289494545E+02 -0.19823854785E+02 -0.90438245015E+02  0.96924954896E+02  0.47000000000E+01 0.  1.
         13    1    6    6    0    0 -0.42277684001E+02 -0.14307598117E+01 -0.44206437370E+03  0.44408373099E+03  0.00000000000E+00 0. -1.
        -14    1    6    6    0    0 -0.10158782714E+03 -0.10910317323E+03 -0.88606665104E+03  0.89851972662E+03  0.00000000000E+00 0.  1.
</event>
<event>
12    1  0.2576962E-002  0.1925344E+03  0.7818608E-02  0.1156195E+00
         -2   -1    0    0    0  501 -0.00000000000E+00  0.00000000000E+00  0.37074588805E+02  0.37074588805E+02  0.00000000000E+00 0.  1.
          2   -1    0    0  502    0  0.00000000000E+00 -0.00000000000E+00 -0.10251387314E+04  0.10251387314E+04  0.00000000000E+00 0. -1.
          6    2    1    2  502    0  0.81616423919E+02 -0.33078922291E+02 -0.40953647138E+03  0.45234883302E+03  0.17071581529E+03 0.  0.
         24    2    3    3    0    0  0.11282399757E+03  0.42646906264E+01 -0.24812731182E+03  0.28369692858E+03  0.78545161556E+02 0.  0.
         -6    2    1    2    0  501 -0.81616423919E+02  0.33078922291E+02 -0.57852767121E+03  0.60986448718E+03  0.17171188258E+03 0.  0.
        -24    2    5    5    0    0 -0.12388386626E+03  0.34185956065E+02 -0.45609991428E+03  0.48025581512E+03  0.78119294961E+02 0.  0.
          5    1    3    3  502    0 -0.31207573650E+02 -0.37343612917E+02 -0.16140915957E+03  0.16865190444E+03  0.47000000000E+01 0.  1.
        -11    1    4    4    0    0  0.57069145071E+02 -0.48755047605E+01 -0.44946417096E+02  0.72806855966E+02  0.00000000000E+00 0.  1.
         12    1    4    4    0    0  0.55754852499E+02  0.91401953869E+01 -0.20318089472E+03  0.21089007262E+03  0.00000000000E+00 0. -1.
         -5    1    5    5    0  501  0.42267442337E+02 -0.11070337738E+01 -0.12242775693E+03  0.12960867206E+03  0.47000000000E+01 0.  1.
         11    1    6    6    0    0 -0.27576618267E+02  0.43289631811E+02 -0.20040844964E+03  0.20687679615E+03  0.00000000000E+00 0. -1.
        -12    1    6    6    0    0 -0.96307247989E+02 -0.91036757465E+01 -0.25569146464E+03  0.27337901897E+03  0.00000000000E+00 0.  1.
</event>
<event>
12    1  0.2576962E-002  0.3757431E+03  0.7818608E-02  0.1052518E+00
         -2   -1    0    0    0  501 -0.00000000000E+00  0.00000000000E+00  0.75131126436E+02  0.75131126436E+02  0.00000000000E+00 0.  1.
          2   -1    0    0  502    0  0.00000000000E+00 -0.00000000000E+00 -0.23087154492E+04  0.23087154492E+04  0.00000000000E+00 0. -1.
          6    2    1    2  502    0 -0.24407151156E+03  0.22657363029E+03 -0.60444237987E+03  0.71210054649E+03  0.17558497949E+03 0.  0.
         24    2    3    3    0    0 -0.10678712156E+03  0.40298906601E+02 -0.18303270160E+03  0.23131630863E+03  0.83539054235E+02 0.  0.
         -6    2    1    2    0  501  0.24407151156E+03 -0.22657363029E+03 -0.16291419429E+04  0.16717460292E+04  0.17240882576E+03 0.  0.
        -24    2    5    5    0    0  0.96705341230E+02 -0.70235355366E+02 -0.90719023305E+03  0.91848989362E+03  0.79653233389E+02 0.  0.
          5    1    3    3  502    0 -0.13728439000E+03  0.18627472369E+03 -0.42140967828E+03  0.48078423785E+03  0.47000000000E+01 0. -1.
        -13    1    4    4    0    0 -0.74806784820E+01  0.36764333087E+02 -0.26598380970E+02  0.45989679365E+02  0.00000000000E+00 0.  1.
         14    1    4    4    0    0 -0.99306443076E+02  0.35345735140E+01 -0.15643432063E+03  0.18532662927E+03  0.00000000000E+00 0. -1.
         -5    1    5    5    0  501  0.14736617033E+03 -0.15633827492E+03 -0.72195170989E+03  0.75325613557E+03  0.47000000000E+01 0.  1.
         11    1    6    6    0    0  0.41438199917E+02 -0.68412822820E+02 -0.37503024555E+03  0.38346463177E+03  0.00000000000E+00 0. -1.
        -12    1    6    6    0    0  0.55267141313E+02 -0.18225325463E+01 -0.53215998749E+03  0.53502526186E+03  0.00000000000E+00 0.  1.
</event>
<event>
12    1  0.2576962E-002  0.1766030E+03  0.7818608E-02  0.1171132E+00
         -2   -1    0    0    0  501 -0.00000000000E+00  0.00000000000E+00  0.17304580523E+02  0.17304580523E+02  0.00000000000E+00 0.  1.
          2   -1    0    0  502    0  0.00000000000E+00 -0.00000000000E+00 -0.20903698413E+04  0.20903698413E+04  0.00000000000E+00 0. -1.
          6    2    1    2  502    0 -0.10313892873E+02 -0.34479731628E+02 -0.64066608435E+03  0.66431481318E+03  0.17194740793E+03 0.  0.
         24    2    3    3    0    0  0.51927034853E+02 -0.50679206578E+02 -0.33558326360E+03  0.35249118740E+03  0.79806713144E+02 0.  0.
         -6    2    1    2    0  501  0.10313892873E+02  0.34479731628E+02 -0.14323991764E+04  0.14433596086E+04  0.17385146233E+03 0.  0.
        -24    2    5    5    0    0 -0.23054449198E+01  0.29915898331E+01 -0.13705331414E+04  0.13726471836E+04  0.76058756214E+02 0.  0.
          5    1    3    3  502    0 -0.62240927726E+02  0.16199474949E+02 -0.30508282075E+03  0.31182362577E+03  0.47000000000E+01 0. -1.
        -11    1    4    4    0    0  0.12063440493E+02 -0.12850021955E+02 -0.63986846224E+01  0.18750808667E+02  0.00000000000E+00 0.  1.
         12    1    4    4    0    0  0.39863594360E+02 -0.37829184622E+02 -0.32918457897E+03  0.33374037874E+03  0.00000000000E+00 0. -1.
         -5    1    5    5    0  501  0.12619337793E+02  0.31488141795E+02 -0.61866035048E+02  0.70712425023E+02  0.47000000000E+01 0.  1.
         11    1    6    6    0    0 -0.95239517672E+01  0.38514190144E+02 -0.66280122563E+03  0.66398758512E+03  0.00000000000E+00 0. -1.
        -12    1    6    6    0    0  0.72185068474E+01 -0.35522600311E+02 -0.70773191574E+03  0.70865959849E+03  0.00000000000E+00 0.  1.
</event>
<event>
12    1  0.2576962E-002  0.1801760E+03  0.7818608E-02  0.1167633E+00
          2   -1    0    0  502    0  0.00000000000E+00  0.00000000000E+00  0.90748527002E+03  0.90748527002E+03  0.00000000000E+00 0.  1.
         -2   -1    0    0    0  501 -0.00000000000E+00 -0.00000000000E+00 -0.36748809479E+02  0.36748809479E+02  0.00000000000E+00 0. -1.
          6    2    1    2  502    0  0.54459990263E+02  0.15392139161E+02  0.35442796836E+03  0.39680478354E+03  0.16921005584E+03 0.  0.
         24    2    3    3    0    0  0.47508240991E+02  0.67732699121E+02  0.17241635556E+03  0.20723110861E+03  0.79828448670E+02 0.  0.
         -6    2    1    2    0  501 -0.54459990263E+02 -0.15392139161E+02  0.51630849219E+03  0.54742929596E+03  0.17292069421E+03 0.  0.
        -24    2    5    5    0    0 -0.57945188952E+02  0.53893295118E+02  0.31636059324E+03  0.33573642809E+03  0.79829768961E+02 0.  0.
          5    1    3    3  502    0  0.69517492719E+01 -0.52340559960E+02  0.18201161280E+03  0.18957367493E+03  0.47000000000E+01 0. -1.
        -13    1    4    4    0    0  0.37327885644E+02  0.21106331879E+02  0.14706816207E+03  0.15319233854E+03  0.00000000000E+00 0.  1.
         14    1    4    4    0    0  0.10180355347E+02  0.46626367242E+02  0.25348193489E+02  0.54038770067E+02  0.00000000000E+00 0. -1.
         -5    1    5    5    0  501  0.34851986892E+01 -0.69285434279E+02  0.19994789895E+03  0.21169286787E+03  0.47000000000E+01 0.  1.
         11    1    6    6    0    0  0.41561820198E+01  0.46896941564E+02  0.17411485023E+03  0.18036789639E+03  0.00000000000E+00 0. -1.
        -12    1    6    6    0    0 -0.62101370972E+02  0.69963535533E+01  0.14224574301E+03  0.15536853171E+03  0.00000000000E+00 0.  1.
</event>
<event>
12    1  0.2576962E-002  0.1709371E+03  0.7818608E-02  0.1176874E+00
         -1   -1    0    0    0  501 -0.00000000000E+00  0.00000000000E+00  0.77646421540E+02  0.77646421540E+02  0.00000000000E+00 0. -1.
          1   -1    0    0  502    0  0.00000000000E+00 -0.00000000000E+00 -0.37827637147E+03  0.37827637147E+03  0.00000000000E+00 0.  1.
          6    2    1    2  502    0  0.12916789882E+02 -0.50842038616E+01 -0.16741479222E+03  0.23985452567E+03  0.17120101706E+03 0.  0.
         24    2    3    3    0    0  0.22525918066E+02  0.38961052317E+02 -0.38625082147E+02  0.10332174808E+03  0.84605591267E+02 0.  0.
         -6    2    1    2    0  501 -0.12916789882E+02  0.50842038616E+01 -0.13321515771E+03  0.21606826734E+03  0.16954800298E+03 0.  0.
        -24    2    5    5    0    0  0.84346234535E+01 -0.13300195918E+02 -0.15813142271E+03  0.17816339604E+03  0.80551913415E+02 0.  0.
          5    1    3    3  502    0 -0.96091281843E+01 -0.44045256179E+02 -0.12878971007E+03  0.13653277759E+03  0.47000000000E+01 0. -1.
        -11    1    4    4    0    0  0.47518570612E+01  0.45335592255E+01 -0.59124412589E+02  0.59488061565E+02  0.00000000000E+00 0.  1.
         12    1    4    4    0    0  0.17774061005E+02  0.34427493092E+02  0.20499330442E+02  0.43833686518E+02  0.00000000000E+00 0. -1.
         -5    1    5    5    0  501 -0.21351413335E+02  0.18384399780E+02  0.24916264999E+02  0.37904871299E+02  0.47000000000E+01 0.  1.
         13    1    6    6    0    0 -0.77393209396E+01 -0.25523554078E+02 -0.97406951697E+01  0.28394190317E+02  0.00000000000E+00 0. -1.
        -14    1    6    6    0    0  0.16173944393E+02  0.12223358160E+02 -0.14839072754E+03  0.14976920572E+03  0.00000000000E+00 0.  1.
</event>
<event>
12    1  0.2576962E-002  0.2516170E+03  0.7818608E-02  0.1112287E+00
         -2   -1    0    0    0  501 -0.00000000000E+00  0.00000000000E+00  0.25911414107E+03  0.25911414107E+03  0.00000000000E+00 0. -1.
          2   -1    0    0  502    0  0.00000000000E+00 -0.00000000000E+00 -0.27625787128E+03  0.27625787128E+03  0.00000000000E+00 0.  1.
          6    2    1    2  502    0  0.14165317073E+03 -0.10911795391E+03  0.82412006641E+02  0.25989253920E+03  0.16964682270E+03 0.  0.
         24    2    3    3    0    0  0.32254630557E+02 -0.83828687846E+02 -0.93981262129E+00  0.11997397952E+03  0.79531518374E+02 0.  0.
         -6    2    1    2    0  501 -0.14165317073E+03  0.10911795391E+03 -0.99555736854E+02  0.27547947315E+03  0.18440511584E+03 0.  0.
        -24    2    5    5    0    0 -0.93857979997E+01 -0.79950941188E+00 -0.13351735250E+02  0.83048377634E+02  0.81425007056E+02 0.  0.
          5    1    3    3  502    0  0.10939854017E+03 -0.25289266061E+02  0.83351819262E+02  0.13991855968E+03  0.47000000000E+01 0. -1.
        -13    1    4    4    0    0  0.12618875688E+02  0.11366301980E+02 -0.13858762783E+02  0.21920176783E+02  0.00000000000E+00 0.  1.
         14    1    4    4    0    0  0.19635754869E+02 -0.95194989826E+02  0.12918950162E+02  0.98053802733E+02  0.00000000000E+00 0. -1.
         -5    1    5    5    0  501 -0.13226737273E+03  0.10991746332E+03 -0.86204001604E+02  0.19243109552E+03  0.47000000000E+01 0.  1.
         13    1    6    6    0    0  0.28930492549E+01  0.11078143453E+02  0.32318927431E+02  0.34287141419E+02  0.00000000000E+00 0. -1.
        -14    1    6    6    0    0 -0.12278847255E+02 -0.11877652864E+02 -0.45670662682E+02  0.48761236215E+02  0.00000000000E+00 0.  1.
</event>
<event>
12    1  0.2576962E-002  0.4437470E+03  0.7818608E-02  0.1029603E+00
          1   -1    0    0  502    0  0.00000000000E+00  0.00000000000E+00  0.50729124977E+03  0.50729124977E+03  0.00000000000E+00 0. -1.
         -1   -1    0    0    0  501 -0.00000000000E+00 -0.00000000000E+00 -0.42001222880E+03  0.42001222880E+03  0.00000000000E+00 0.  1.
          6    2    1    2  502    0  0.37192823324E+03  0.17046028801E+03 -0.84004620427E+02  0.45198231286E+03  0.17275391287E+03 0.  0.
         24    2    3    3    0    0  0.73744421384E+02  0.50142694903E+02 -0.16902147431E+02  0.12347852179E+03  0.83718177343E+02 0.  0.
         -6    2    1    2    0  501 -0.37192823324E+03 -0.17046028801E+03  0.17128364140E+03  0.47532116572E+03  0.17089413183E+03 0.  0.
        -24    2    5    5    0    0 -0.10085793950E+03 -0.18372591477E+02  0.95377933876E+02  0.15533126272E+03  0.67238194722E+02 0.  0.
          5    1    3    3  502    0  0.29818381185E+03  0.12031759311E+03 -0.67102472996E+02  0.32850379107E+03  0.47000000000E+01 0. -1.
        -13    1    4    4    0    0  0.14805019389E+01  0.49897337203E+02 -0.40831471182E+01  0.50086008389E+02  0.00000000000E+00 0.  1.
         14    1    4    4    0    0  0.72263919445E+02  0.24535769993E+00 -0.12819000312E+02  0.73392513398E+02  0.00000000000E+00 0. -1.
         -5    1    5    5    0  501 -0.27107029373E+03 -0.15208769654E+03  0.75905707529E+02  0.31998990299E+03  0.47000000000E+01 0.  1.
         13    1    6    6    0    0  0.43826767567E+01  0.11975530621E+02  0.13580724613E+02  0.18629473160E+02  0.00000000000E+00 0. -1.
        -14    1    6    6    0    0 -0.10524061626E+03 -0.30348122099E+02  0.81797209263E+02  0.13670178956E+03  0.00000000000E+00 0.  1.
</event>
<event>
12    1  0.2576962E-002  0.2344927E+03  0.7818608E-02  0.1123517E+00
          2   -1    0    0  502    0  0.00000000000E+00  0.00000000000E+00  0.18828623134E+04  0.18828623134E+04  0.00000000000E+00 0.  1.
         -2   -1    0    0    0  501 -0.00000000000E+00 -0.00000000000E+00 -0.32003056524E+02  0.32003056524E+02  0.00000000000E+00 0. -1.
          6    2    1    2  502    0  0.15256104132E+03  0.47060226490E+02  0.12096995470E+04  0.12322763442E+04  0.17216985248E+03 0.  0.
         24    2    3    3    0    0  0.14144671477E+01  0.15261164544E+02  0.41486246341E+03  0.42255753698E+03  0.78797872177E+02 0.  0.
         -6    2    1    2    0  501 -0.15256104132E+03 -0.47060226490E+02  0.64115970986E+03  0.68258902576E+03  0.17132562063E+03 0.  0.
        -24    2    5    5    0    0 -0.14705546212E+03 -0.71106204651E+02  0.38809291078E+03  0.42827934197E+03  0.78266762319E+02 0.  0.
          5    1    3    3  502    0  0.15114657418E+03  0.31799061946E+02  0.79483708360E+03  0.80971880717E+03  0.47000000000E+01 0. -1.
        -13    1    4    4    0    0 -0.32816071927E+02 -0.13231284211E+02  0.20358500487E+03  0.20663691749E+03  0.00000000000E+00 0.  1.
         14    1    4    4    0    0  0.34230539074E+02  0.28492448756E+02  0.21127745853E+03  0.21592061950E+03  0.00000000000E+00 0. -1.
         -5    1    5    5    0  501 -0.55055792055E+01  0.24045978160E+02  0.25306679909E+03  0.25430968379E+03  0.47000000000E+01 0.  1.
         11    1    6    6    0    0 -0.11777205661E+03 -0.26837132272E+02  0.20802143011E+03  0.24054813317E+03  0.00000000000E+00 0. -1.
        -12    1    6    6    0    0 -0.29283405508E+02 -0.44269072379E+02  0.18007148067E+03  0.18773120880E+03  0.00000000000E+00 0.  1.
</event>
<event>
12    1  0.2576962E-002  0.1857370E+03  0.7818608E-02  0.1162363E+00
          1   -1    0    0  502    0  0.00000000000E+00  0.00000000000E+00  0.43694001025E+03  0.43694001025E+03  0.00000000000E+00 0. -1.
         -1   -1    0    0    0  501 -0.00000000000E+00 -0.00000000000E+00 -0.95820877434E+02  0.95820877434E+02  0.00000000000E+00 0.  1.
          6    2    1    2  502    0 -0.69848098625E+02 -0.86504480510E+01  0.28226003721E+03  0.33784551439E+03  0.17180010435E+03 0.  0.
         24    2    3    3    0    0 -0.12578414623E+02 -0.28251027862E+02  0.54341937656E+02  0.10197955767E+03  0.80563309920E+02 0.  0.
         -6    2    1    2    0  501  0.69848098625E+02  0.86504480510E+01  0.58859095608E+02  0.19491537329E+03  0.17197099313E+03 0.  0.
        -24    2    5    5    0    0  0.82713802661E+02  0.36619809218E+02  0.91030229811E+02  0.15013944918E+03  0.77927965983E+02 0.  0.
          5    1    3    3  502    0 -0.57269684002E+02  0.19600579811E+02  0.22791809955E+03  0.23586595672E+03  0.47000000000E+01 0. -1.
        -11    1    4    4    0    0  0.27037073876E+02 -0.36532533932E+02  0.23998992528E+02  0.51396313502E+02  0.00000000000E+00 0.  1.
         12    1    4    4    0    0 -0.39615488499E+02  0.82815060696E+01  0.30342945128E+02  0.50583244170E+02  0.00000000000E+00 0. -1.
         -5    1    5    5    0  501 -0.12865704036E+02 -0.27969361167E+02 -0.32171134204E+02  0.44775924116E+02  0.47000000000E+01 0.  1.
         13    1    6    6    0    0  0.26322219781E+02 -0.13074795793E+02 -0.32440399857E+01  0.29569128068E+02  0.00000000000E+00 0. -1.
        -14    1    6    6    0    0  0.56391582879E+02  0.49694605012E+02  0.94274269797E+02  0.12057032111E+03  0.00000000000E+00 0.  1.
</event>
<event>
12    1  0.2576962E-002  0.2660668E+03  0.7818608E-02  0.1103552E+00
          1   -1    0    0  502    0  0.00000000000E+00  0.00000000000E+00  0.25796092148E+04  0.25796092148E+04  0.00000000000E+00 0. -1.
         -1   -1    0    0    0  501 -0.00000000000E+00 -0.00000000000E+00 -0.35486190311E+02  0.35486190311E+02  0.00000000000E+00 0.  1.
          6    2    1    2  502    0 -0.19798179957E+03 -0.42512746389E+02  0.18974889273E+04  0.19161623084E+04  0.17380919526E+03 0.  0.
         24    2    3    3    0    0 -0.12542735231E+03 -0.84274754274E+02  0.96852938480E+03  0.98342647510E+03  0.79020299919E+02 0.  0.
         -6    2    1    2    0  501  0.19798179957E+03  0.42512746389E+02  0.64663409719E+03  0.69893309671E+03  0.17137004248E+03 0.  0.
        -24    2    5    5    0    0  0.20624789024E+03  0.55166229403E+02  0.48330605008E+03  0.53483989191E+03  0.82990763591E+02 0.  0.
          5    1    3    3  502    0 -0.72554447264E+02  0.41762007885E+02  0.92895954254E+03  0.93273583334E+03  0.47000000000E+01 0. -1.
        -13    1    4    4    0    0 -0.12592686383E+03 -0.95874069869E+02  0.92096767837E+03  0.93446823216E+03  0.00000000000E+00 0.  1.
         14    1    4    4    0    0  0.49951151777E+00  0.11599315595E+02  0.47561706426E+02  0.48958242944E+02  0.00000000000E+00 0. -1.
         -5    1    5    5    0  501 -0.82660906705E+01 -0.12653483014E+02  0.16332804711E+03  0.16409320480E+03  0.47000000000E+01 0.  1.
         11    1    6    6    0    0  0.49483636595E+02 -0.14306797156E+00  0.20303323571E+03  0.20897642346E+03  0.00000000000E+00 0. -1.
        -12    1    6    6    0    0  0.15676425365E+03  0.55309297375E+02  0.28027281437E+03  0.32586346846E+03  0.00000000000E+00 0.  1.
</event>
<event>
12    1  0.2576962E-002  0.1767254E+03  0.7818608E-02  0.1171010E+00
          1   -1    0    0  502    0  0.00000000000E+00  0.00000000000E+00  0.25083861920E+02  0.25083861920E+02  0.00000000000E+00 0. -1.
         -1   -1    0    0    0  501 -0.00000000000E+00 -0.00000000000E+00 -0.16268216269E+04  0.16268216269E+04  0.00000000000E+00 0.  1.
          6    2    1    2  502    0 -0.51601911697E+02 -0.15611210357E+02 -0.12106435766E+04  0.12238930300E+04  0.17131786868E+03 0.  0.
         24    2    3    3    0    0 -0.21718999376E+02 -0.43353977187E+02 -0.11250276471E+04  0.11289465875E+04  0.80510299892E+02 0.  0.
         -6    2    1    2    0  501  0.51601911697E+02  0.15611210357E+02 -0.39109418842E+03  0.42801245887E+03  0.16532856241E+03 0.  0.
        -24    2    5    5    0    0  0.88282978589E+02 -0.90943380066E+01 -0.33817707524E+03  0.35888810964E+03  0.80995985897E+02 0.  0.
          5    1    3    3  502    0 -0.29882912321E+02  0.27742766830E+02 -0.85615929463E+02  0.94946442471E+02  0.47000000000E+01 0. -1.
        -13    1    4    4    0    0 -0.47395097990E+02 -0.32302997729E+02 -0.94723133943E+03  0.94896627409E+03  0.00000000000E+00 0.  1.
         14    1    4    4    0    0  0.25676098614E+02 -0.11050979458E+02 -0.17779630768E+03  0.17998031340E+03  0.00000000000E+00 0. -1.
         -5    1    5    5    0  501 -0.36681066892E+02  0.24705548364E+02 -0.52917113182E+02  0.69124349225E+02  0.47000000000E+01 0.  1.
         13    1    6    6    0    0  0.50316232553E+02 -0.19175972463E+02 -0.72426278097E+02  0.90249692172E+02  0.00000000000E+00 0. -1.
        -14    1    6    6    0    0  0.37966746036E+02  0.10081634456E+02 -0.26575079714E+03  0.26863841747E+03  0.00000000000E+00 0.  1.
</event>
<event>
12    1  0.2576962E-002  0.1950942E+03  0.7818608E-02  0.1153945E+00
          2   -1    0    0  502    0  0.00000000000E+00  0.00000000000E+00  0.76204217971E+03  0.76204217971E+03  0.00000000000E+00 0. -1.
         -2   -1    0    0    0  501 -0.00000000000E+00 -0.00000000000E+00 -0.56950222302E+02  0.56950222302E+02  0.00000000000E+00 0.  1.
          6    2    1    2  502    0 -0.22082253117E+02 -0.90039653229E+02  0.49547871701E+03  0.53235133430E+03  0.17118416709E+03 0.  0.
         24    2    3    3    0    0  0.37219055735E+01  0.25118552080E+02  0.16396602461E+03  0.18042801584E+03  0.70884535916E+02 0.  0.
         -6    2    1    2    0  501  0.22082253117E+02  0.90039653229E+02  0.20961324041E+03  0.28664106772E+03  0.17213548761E+03 0.  0.
        -24    2    5    5    0    0  0.62563609201E+02  0.80824490310E+02  0.20751999457E+03  0.24480649953E+03  0.80117854638E+02 0.  0.
          5    1    3    3  502    0 -0.25804158691E+02 -0.11515820531E+03  0.33151269240E+03  0.35192331846E+03  0.47000000000E+01 0. -1.
        -11    1    4    4    0    0 -0.19265502845E+02  0.37197339987E+02  0.13581814918E+03  0.14213152834E+03  0.00000000000E+00 0.  1.
         12    1    4    4    0    0  0.22987408418E+02 -0.12078787907E+02  0.28147875427E+02  0.38296487491E+02  0.00000000000E+00 0. -1.
         -5    1    5    5    0  501 -0.40481356084E+02  0.92151629195E+01  0.20932458320E+01  0.41834568196E+02  0.47000000000E+01 0.  1.
         11    1    6    6    0    0  0.16952982833E+02 -0.15434055365E+02  0.44753508538E+02  0.50284095084E+02  0.00000000000E+00 0. -1.
        -12    1    6    6    0    0  0.45610626368E+02  0.96258545675E+02  0.16276648604E+03  0.19452240444E+03  0.00000000000E+00 0.  1.
</event>
<event>
12    1  0.2576962E-002  0.4201572E+03  0.7818608E-02  0.1037015E+00
          2   -1    0    0  502    0  0.00000000000E+00  0.00000000000E+00  0.10485070388E+04  0.10485070388E+04  0.00000000000E+00 0.  1.
         -2   -1    0    0    0  501 -0.00000000000E+00 -0.00000000000E+00 -0.24099896798E+03  0.24099896798E+03  0.00000000000E+00 0. -1.
          6    2    1    2  502    0  0.15008270903E+03 -0.35278583185E+03  0.50023484432E+02  0.42346480297E+03  0.17273513729E+03 0.  0.
         24    2    3    3    0    0  0.12494961357E+03 -0.25086378417E+03  0.98378188275E+02  0.30779266426E+03  0.80703234759E+02 0.  0.
         -6    2    1    2    0  501 -0.15008270903E+03  0.35278583185E+03  0.75748458637E+03  0.86604120379E+03  0.17106082359E+03 0.  0.
        -24    2    5    5    0    0 -0.15882119404E+03  0.24615257362E+03  0.46983766955E+03  0.55910496996E+03  0.77689578009E+02 0.  0.
          5    1    3    3  502    0  0.25133095461E+02 -0.10192204768E+03 -0.48354703843E+02  0.11567213871E+03  0.47000000000E+01 0. -1.
        -13    1    4    4    0    0 -0.49021159937E+01 -0.52313406000E+02  0.31675977569E+02  0.61352186135E+02  0.00000000000E+00 0.  1.
         14    1    4    4    0    0  0.12985172957E+03 -0.19855037817E+03  0.66702210706E+02  0.24644047812E+03  0.00000000000E+00 0. -1.
         -5    1    5    5    0  501  0.87384850047E+01  0.10663325823E+03  0.28764691682E+03  0.30693623383E+03  0.47000000000E+01 0.  1.
         11    1    6    6    0    0 -0.13798266318E+03  0.24615778989E+03  0.43524610268E+03  0.51872154645E+03  0.00000000000E+00 0. -1.
        -12    1    6    6    0    0 -0.20838530856E+02 -0.52162641928E-02  0.34591566873E+02  0.40383423507E+02  0.00000000000E+00 0.  1.
</event>
<event>
12    1  0.2576962E-002  0.2338849E+03  0.7818608E-02  0.1123935E+00
         -1   -1    0    0    0  501 -0.00000000000E+00  0.00000000000E+00  0.50265395644E+02  0.50265395644E+02  0.00000000000E+00 0.  1.
          1   -1    0    0  502    0  0.00000000000E+00 -0.00000000000E+00 -0.11411855833E+04  0.11411855833E+04  0.00000000000E+00 0. -1.
          6    2    1    2  502    0  0.10156978390E+03  0.12084513364E+03 -0.67547457502E+03  0.71507799909E+03  0.17363949998E+03 0.  0.
         24    2    3    3    0    0  0.34084208689E+01  0.59332850989E+02 -0.45689916206E+03  0.46765788014E+03  0.80093969979E+02 0.  0.
         -6    2    1    2    0  501 -0.10156978390E+03 -0.12084513364E+03 -0.41544561262E+03  0.47637297985E+03  0.17151149102E+03 0.  0.
        -24    2    5    5    0    0 -0.67365820855E+02 -0.79817060569E+01 -0.26820116794E+03  0.28766399526E+03  0.78846979853E+02 0.  0.
          5    1    3    3  502    0  0.98161363033E+02  0.61512282651E+02 -0.21857541296E+03  0.24742011895E+03  0.47000000000E+01 0. -1.
        -13    1    4    4    0    0  0.95947704889E+01 -0.18540159924E+02 -0.75010824184E+02  0.77861549532E+02  0.00000000000E+00 0.  1.
         14    1    4    4    0    0 -0.61863496200E+01  0.77873010912E+02 -0.38188833787E+03  0.38979633061E+03  0.00000000000E+00 0. -1.
         -5    1    5    5    0  501 -0.34203963047E+02 -0.11286342758E+03 -0.14724444469E+03  0.18870898459E+03  0.47000000000E+01 0.  1.
         11    1    6    6    0    0  0.65353186144E+01  0.20989435634E+02 -0.88909832269E+02  0.91587253872E+02  0.00000000000E+00 0. -1.
        -12    1    6    6    0    0 -0.73901139469E+02 -0.28971141691E+02 -0.17929133567E+03  0.19607674138E+03  0.00000000000E+00 0.  1.
</event>
<event>
12    1  0.2576962E-002  0.1785741E+03  0.7818608E-02  0.1169190E+00
          2   -1    0    0  502    0  0.00000000000E+00  0.00000000000E+00  0.11822186819E+04  0.11822186819E+04  0.00000000000E+00 0. -1.
         -2   -1    0    0    0  501 -0.00000000000E+00 -0.00000000000E+00 -0.36017166147E+02  0.36017166147E+02  0.00000000000E+00 0.  1.
          6    2    1    2  502    0  0.40013730433E+02 -0.15400107803E+02  0.86014875118E+03  0.87708807769E+03  0.16610045127E+03 0.  0.
         24    2    3    3    0    0  0.48157119812E+02  0.15854537630E+02  0.27285478141E+03  0.28888788678E+03  0.80224714626E+02 0.  0.
         -6    2    1    2    0  501 -0.40013730433E+02  0.15400107803E+02  0.28605276456E+03  0.34114777035E+03  0.18087939396E+03 0.  0.
        -24    2    5    5    0    0  0.24692835002E+02  0.60313219926E+02  0.14039269428E+03  0.17548826014E+03  0.82695829639E+02 0.  0.
          5    1    3    3  502    0 -0.81433893794E+01 -0.31254645432E+02  0.58729396978E+03  0.58820019091E+03  0.47000000000E+01 0. -1.
        -11    1    4    4    0    0 -0.13267586780E+02  0.12070335460E+01  0.59073846984E+01  0.14573365531E+02  0.00000000000E+00 0.  1.
         12    1    4    4    0    0  0.61424706592E+02  0.14647504084E+02  0.26694739671E+03  0.27431452124E+03  0.00000000000E+00 0. -1.
         -5    1    5    5    0  501 -0.64706565435E+02 -0.44913112123E+02  0.14566007028E+03  0.16565951021E+03  0.47000000000E+01 0.  1.
         11    1    6    6    0    0 -0.29950411602E+02  0.31482632223E+02  0.60758808205E+02  0.74698166385E+02  0.00000000000E+00 0. -1.
        -12    1    6    6    0    0  0.54643246604E+02  0.28830587702E+02  0.79633886076E+02  0.10079009375E+03  0.00000000000E+00 0.  1.
</event>
<event>
12    1  0.2576962E-002  0.2711117E+03  0.7818608E-02  0.1100645E+00
          4   -1    0    0  502    0  0.00000000000E+00  0.00000000000E+00  0.80495874562E+03  0.80495874562E+03  0.00000000000E+00 0.  1.
         -4   -1    0    0    0  501 -0.00000000000E+00 -0.00000000000E+00 -0.28227226550E+03  0.28227226550E+03  0.00000000000E+00 0. -1.
          6    2    1    2  502    0  0.30434962403E+01 -0.20933451392E+03 -0.18574008734E+03  0.32874909172E+03  0.17247139957E+03 0.  0.
         24    2    3    3    0    0  0.67610876601E+02 -0.10682508980E+03 -0.10429762586E+03  0.18269398851E+03  0.80723405722E+02 0.  0.
         -6    2    1    2    0  501 -0.30434962403E+01  0.20933451392E+03  0.70842656746E+03  0.75848191940E+03  0.17203609790E+03 0.  0.
        -24    2    5    5    0    0 -0.77857711135E+01  0.63188243613E+02  0.14665841970E+03  0.17797630932E+03  0.78188888259E+02 0.  0.
          5    1    3    3  502    0 -0.64567380361E+02 -0.10250942412E+03 -0.81442461477E+02  0.14605510320E+03  0.47000000000E+01 0. -1.
        -13    1    4    4    0    0  0.63061385379E+02 -0.92166715758E+02 -0.11774972032E+03  0.16228505308E+03  0.00000000000E+00 0.  1.
         14    1    4    4    0    0  0.45494912220E+01 -0.14658374045E+02  0.13452094455E+02  0.20408935427E+02  0.00000000000E+00 0. -1.
         -5    1    5    5    0  501  0.47422748732E+01  0.14614627031E+03  0.56176814776E+03  0.58050561008E+03  0.47000000000E+01 0.  1.
         11    1    6    6    0    0  0.27118062995E+02  0.59904150876E+02  0.94113575758E+02  0.11480967631E+03  0.00000000000E+00 0. -1.
        -12    1    6    6    0    0 -0.34903834109E+02  0.32840927367E+01  0.52544843947E+02  0.63166633011E+02  0.00000000000E+00 0.  1.
</event>
<event>
12    1  0.2576962E-002  0.2171346E+03  0.7818608E-02  0.1136037E+00
          2   -1    0    0  502    0  0.00000000000E+00  0.00000000000E+00  0.11388411375E+04  0.11388411375E+04  0.00000000000E+00 0.  1.
         -2   -1    0    0    0  501 -0.00000000000E+00 -0.00000000000E+00 -0.42919140962E+02  0.42919140962E+02  0.00000000000E+00 0. -1.
          6    2    1    2  502    0  0.12984248118E+03  0.33166315103E+02  0.65629134866E+03  0.69091762342E+03  0.16938049961E+03 0.  0.
         24    2    3    3    0    0  0.24979902627E+02  0.40366232328E+02  0.45741211403E+03  0.46592198089E+03  0.74860015839E+02 0.  0.
         -6    2    1    2    0  501 -0.12984248118E+03 -0.33166315103E+02  0.43963064785E+03  0.49084265501E+03  0.17231462816E+03 0.  0.
        -24    2    5    5    0    0 -0.46538018910E+02  0.23523436827E+02  0.10676668869E+03  0.14302967838E+03  0.79619242646E+02 0.  0.
          5    1    3    3  502    0  0.10486257855E+03 -0.71999172250E+01  0.19887923463E+03  0.22499564252E+03  0.47000000000E+01 0. -1.
        -11    1    4    4    0    0 -0.26913414871E+02  0.15098921284E+02  0.16795160305E+03  0.17076314090E+03  0.00000000000E+00 0.  1.
         12    1    4    4    0    0  0.51893317497E+02  0.25267311043E+02  0.28946051098E+03  0.29515883999E+03  0.00000000000E+00 0. -1.
         -5    1    5    5    0  501 -0.83304462265E+02 -0.56689751929E+02  0.33286395916E+03  0.34781297663E+03  0.47000000000E+01 0.  1.
         13    1    6    6    0    0 -0.18069652637E+02  0.51484610078E+02  0.52938504264E+02  0.76024092596E+02  0.00000000000E+00 0. -1.
        -14    1    6    6    0    0 -0.28468366273E+02 -0.27961173251E+02  0.53828184423E+02  0.67005585783E+02  0.00000000000E+00 0.  1.
</event>
<event>
12    1  0.2576962E-002  0.2391397E+03  0.7818608E-02  0.1120367E+00
         -1   -1    0    0    0  501 -0.00000000000E+00  0.00000000000E+00  0.35486812355E+02  0.35486812355E+02  0.00000000000E+00 0.  1.
          1   -1    0    0  502    0  0.00000000000E+00 -0.00000000000E+00 -0.16116605173E+04  0.16116605173E+04  0.00000000000E+00 0. -1.
          6    2    1    2  502    0 -0.13256771590E+02 -0.16443656831E+03 -0.79362234573E+03  0.82949934599E+03  0.17611817160E+03 0.  0.
         24    2    3    3    0    0  0.27186905311E+02 -0.68688260464E+02 -0.14588540847E+03  0.17345921052E+03  0.57864845669E+02 0.  0.
         -6    2    1    2    0  501  0.13256771590E+02  0.16443656831E+03 -0.78255135919E+03  0.81764798364E+03  0.17013661683E+03 0.  0.
        -24    2    5    5    0    0 -0.36422812593E+02  0.16250791429E+03 -0.66132954818E+03  0.68654268910E+03  0.79048397706E+02 0.  0.
          5    1    3    3  502    0 -0.40443676900E+02 -0.95748307842E+02 -0.64773693726E+03  0.65604013547E+03  0.47000000000E+01 0. -1.
        -11    1    4    4    0    0  0.39583419748E+02 -0.24251426933E+02 -0.87453910431E+02  0.99010935138E+02  0.00000000000E+00 0.  1.
         12    1    4    4    0    0 -0.12396514437E+02 -0.44436833531E+02 -0.58431498034E+02  0.74448275380E+02  0.00000000000E+00 0. -1.
         -5    1    5    5    0  501  0.49679584183E+02  0.19286540191E+01 -0.12122181101E+03  0.13110529454E+03  0.47000000000E+01 0.  1.
         11    1    6    6    0    0  0.18631747818E+02  0.82587338403E+02 -0.36648909599E+03  0.37614102139E+03  0.00000000000E+00 0. -1.
        -12    1    6    6    0    0 -0.55054560412E+02  0.79920575884E+02 -0.29484045218E+03  0.31040166771E+03  0.00000000000E+00 0.  1.
</event>
<event>
12    1  0.2576962E-002  0.1928632E+03  0.7818608E-02  0.1155904E+00
          2   -1    0    0  502    0  0.00000000000E+00  0.00000000000E+00  0.18480983747E+03  0.18480983747E+03  0.00000000000E+00 0. -1.
         -2   -1    0    0    0  501 -0.00000000000E+00 -0.00000000000E+00 -0.25487645358E+03  0.25487645358E+03  0.00000000000E+00 0.  1.
          6    2    1    2  502    0 -0.83338063950E+02 -0.30168769100E+02  0.65546592505E+02  0.20521651330E+03  0.17309556323E+03 0.  0.
         24    2    3    3    0    0 -0.99164656819E+01 -0.45262154711E+02  0.87974367395E+02  0.12683516049E+03  0.78744331077E+02 0.  0.
         -6    2    1    2    0  501  0.83338063950E+02  0.30168769100E+02 -0.13561320861E+03  0.23446977775E+03  0.16949851563E+03 0.  0.
        -24    2    5    5    0    0  0.11387145935E+03  0.15253447388E+02 -0.60989164289E+02  0.15233821837E+03  0.79296139269E+02 0.  0.
          5    1    3    3  502    0 -0.73421598268E+02  0.15093385611E+02 -0.22427774890E+02  0.78381352807E+02  0.47000000000E+01 0. -1.
        -11    1    4    4    0    0 -0.25242052478E+02 -0.36692227257E+02  0.83684127600E+01  0.45315682567E+02  0.00000000000E+00 0.  1.
         12    1    4    4    0    0  0.15325586796E+02 -0.85699274547E+01  0.79605954636E+02  0.81519477922E+02  0.00000000000E+00 0. -1.
         -5    1    5    5    0  501 -0.30533395403E+02  0.14915321713E+02 -0.74624044318E+02  0.82131559385E+02  0.47000000000E+01 0.  1.
         11    1    6    6    0    0  0.19287848090E+02 -0.26169640203E+02 -0.18745883912E+00  0.32510095249E+02  0.00000000000E+00 0. -1.
        -12    1    6    6    0    0  0.94583611263E+02  0.41423087590E+02 -0.60801705450E+02  0.11982812312E+03  0.00000000000E+00 0.  1.
</event>
<event>
12    1  0.2576962E-002  0.1999820E+03  0.7818608E-02  0.1149754E+00
         -2   -1    0    0    0  501 -0.00000000000E+00  0.00000000000E+00  0.70271009796E+02  0.70271009796E+02  0.00000000000E+00 0. -1.
          2   -1    0    0  502    0  0.00000000000E+00 -0.00000000000E+00 -0.66706697774E+03  0.66706697774E+03  0.00000000000E+00 0.  1.
          6    2    1    2  502    0 -0.50307625436E+02 -0.86226709778E+02 -0.44080183477E+03  0.48441794501E+03  0.17432322066E+03 0.  0.
         24    2    3    3    0    0 -0.97319518857E+01 -0.95791939450E+02 -0.17400729496E+03  0.21434518561E+03  0.79965701038E+02 0.  0.
         -6    2    1    2    0  501  0.50307625436E+02  0.86226709778E+02 -0.15599413318E+03  0.25292004253E+03  0.17224539375E+03 0.  0.
        -24    2    5    5    0    0 -0.33433010201E+02  0.59223142948E+02 -0.11592019622E+03  0.15612284679E+03  0.79446236965E+02 0.  0.
          5    1    3    3  502    0 -0.40575673550E+02  0.95652296725E+01 -0.26679453980E+03  0.27007275940E+03  0.47000000000E+01 0. -1.
        -13    1    4    4    0    0 -0.23313428107E+02 -0.74057093669E+02 -0.17191111339E+03  0.18863032619E+03  0.00000000000E+00 0.  1.
         14    1    4    4    0    0  0.13581476221E+02 -0.21734845782E+02 -0.20961815696E+01  0.25714859414E+02  0.00000000000E+00 0. -1.
         -5    1    5    5    0  501  0.83740635637E+02  0.27003566830E+02 -0.40073936966E+02  0.96797195736E+02  0.47000000000E+01 0.  1.
         13    1    6    6    0    0 -0.34704829564E+02  0.68103201092E+02 -0.54073937980E+02  0.93629386214E+02  0.00000000000E+00 0. -1.
        -14    1    6    6    0    0  0.12718193634E+01 -0.88800581445E+01 -0.61846258237E+02  0.62493460579E+02  0.00000000000E+00 0.  1.
</event>
<event>
12    1  0.2576962E-002  0.2363825E+03  0.7818608E-02  0.1122226E+00
          2   -1    0    0  502    0  0.00000000000E+00  0.00000000000E+00  0.40614297124E+03  0.40614297124E+03  0.00000000000E+00 0. -1.
         -2   -1    0    0    0  501 -0.00000000000E+00 -0.00000000000E+00 -0.14394432066E+03  0.14394432066E+03  0.00000000000E+00 0.  1.
          6    2    1    2  502    0 -0.32672189785E+02 -0.15817562818E+03  0.73101277077E+02  0.24713876919E+03  0.17218238351E+03 0.  0.
         24    2    3    3    0    0 -0.65632670527E+02 -0.80024089969E+02 -0.77186703799E+01  0.12988686037E+03  0.78099399538E+02 0.  0.
         -6    2    1    2    0  501  0.32672189785E+02  0.15817562818E+03  0.18909737350E+03  0.30294852271E+03  0.17301152972E+03 0.  0.
        -24    2    5    5    0    0  0.53954704363E+02  0.11304511920E+03  0.20183679641E+03  0.25123690735E+03  0.81802091250E+02 0.  0.
          5    1    3    3  502    0  0.32960480742E+02 -0.78151538209E+02  0.80819947457E+02  0.11725190882E+03  0.47000000000E+01 0. -1.
        -11    1    4    4    0    0 -0.23844867245E+02  0.10340189394E+01 -0.27662701597E+02  0.36535899452E+02  0.00000000000E+00 0.  1.
         12    1    4    4    0    0 -0.41787803283E+02 -0.81058108909E+02  0.19944031217E+02  0.93350960917E+02  0.00000000000E+00 0. -1.
         -5    1    5    5    0  501 -0.21282514578E+02  0.45130508981E+02 -0.12739422907E+02  0.51711615365E+02  0.47000000000E+01 0.  1.
         13    1    6    6    0    0 -0.14938308176E+02  0.31866603166E+02  0.90891459841E+02  0.97467383880E+02  0.00000000000E+00 0. -1.
        -14    1    6    6    0    0  0.68893012539E+02  0.81178516031E+02  0.11094533657E+03  0.15376952347E+03  0.00000000000E+00 0.  1.
</event>
<event>
12    1  0.2576962E-002  0.1757006E+03  0.7818608E-02  0.1172030E+00
          1   -1    0    0  502    0  0.00000000000E+00  0.00000000000E+00  0.63045740658E+03  0.63045740658E+03  0.00000000000E+00 0.  1.
         -1   -1    0    0    0  501 -0.00000000000E+00 -0.00000000000E+00 -0.48989471894E+02  0.48989471894E+02  0.00000000000E+00 0. -1.
          6    2    1    2  502    0 -0.36413252788E+02 -0.10677999286E+02  0.28425222350E+03  0.33447160558E+03  0.17213943106E+03 0.  0.
         24    2    3    3    0    0 -0.86165444751E+01 -0.33988964948E+02  0.28446705147E+03  0.29789026793E+03  0.81164116328E+02 0.  0.
         -6    2    1    2    0  501  0.36413252788E+02  0.10677999286E+02  0.29721571119E+03  0.34497527290E+03  0.17097021754E+03 0.  0.
        -24    2    5    5    0    0 -0.15118893076E+02 -0.49148808574E+02  0.16819390952E+03  0.19363616922E+03  0.81003632750E+02 0.  0.
          5    1    3    3  502    0 -0.27796708313E+02  0.23310965662E+02 -0.21482796745E+00  0.36581337649E+02  0.47000000000E+01 0. -1.
        -13    1    4    4    0    0  0.44625371499E+01 -0.46499986847E+02  0.80122852128E+02  0.92746075107E+02  0.00000000000E+00 0.  1.
         14    1    4    4    0    0 -0.13079081625E+02  0.12511021898E+02  0.20434419934E+03  0.20514419282E+03  0.00000000000E+00 0. -1.
         -5    1    5    5    0  501  0.51532145864E+02  0.59826807861E+02  0.12902180167E+03  0.15133910368E+03  0.47000000000E+01 0.  1.
         11    1    6    6    0    0 -0.34752222412E+02 -0.53606305314E+02  0.76069209647E+02  0.99337191365E+02  0.00000000000E+00 0. -1.
        -12    1    6    6    0    0  0.19633329335E+02  0.44574967400E+01  0.92124699871E+02  0.94298977854E+02  0.00000000000E+00 0.  1.
</event>
<event>
12    1  0.2576962E-002  0.2662339E+03  0.7818608E-02  0.1103455E+00
          2   -1    0    0  502    0  0.00000000000E+00  0.00000000000E+00  0.13531804695E+04  0.13531804695E+04  0.00000000000E+00 0. -1.
         -2   -1    0    0    0  501 -0.00000000000E+00 -0.00000000000E+00 -0.57793509460E+02  0.57793509460E+02  0.00000000000E+00 0.  1.
          6    2    1    2  502    0 -0.17865929811E+03 -0.90828331972E+02  0.85861134562E+03  0.89828662182E+03  0.17186180908E+03 0.  0.
         24    2    3    3    0    0 -0.45128223725E+02  0.14711690227E+02  0.31686876217E+03  0.33041660074E+03  0.80723770985E+02 0.  0.
         -6    2    1    2    0  501  0.17865929811E+03  0.90828331972E+02  0.43677561438E+03  0.51268735710E+03  0.17862378936E+03 0.  0.
        -24    2    5    5    0    0  0.66860109638E+02  0.99012832210E+02  0.32849563969E+03  0.35676209454E+03  0.71386214368E+02 0.  0.
          5    1    3    3  502    0 -0.13353107438E+03 -0.10554002220E+03  0.54174258345E+03  0.56787002107E+03  0.47000000000E+01 0. -1.
        -13    1    4    4    0    0 -0.64536528478E+02  0.27062313110E+02  0.22042852240E+03  0.23127054673E+03  0.00000000000E+00 0.  1.
         14    1    4    4    0    0  0.19408304752E+02 -0.12350622884E+02  0.96440239768E+02  0.99146054008E+02  0.00000000000E+00 0. -1.
         -5    1    5    5    0  501  0.11179918847E+03 -0.81845002379E+01  0.10827997469E+03  0.15592526256E+03  0.47000000000E+01 0.  1.
         11    1    6    6    0    0 -0.14516582376E+02  0.80890327748E+01  0.50543662270E+02  0.53205501696E+02  0.00000000000E+00 0. -1.
        -12    1    6    6    0    0  0.81376692013E+02  0.90923799436E+02  0.27795197742E+03  0.30355659284E+03  0.00000000000E+00 0.  1.
</event>
<event>
12    1  0.2576962E-002  0.2065770E+03  0.7818608E-02  0.1144306E+00
         -2   -1    0    0    0  501 -0.00000000000E+00  0.00000000000E+00  0.77763591753E+02  0.77763591753E+02  0.00000000000E+00 0. -1.
          2   -1    0    0  502    0  0.00000000000E+00 -0.00000000000E+00 -0.55796687140E+03  0.55796687140E+03  0.00000000000E+00 0.  1.
          6    2    1    2  502    0  0.94426299765E+02  0.63933984867E+02 -0.19908992597E+03  0.28677588024E+03  0.17204571008E+03 0.  0.
         24    2    3    3    0    0  0.10704952156E+03  0.98583045796E+02 -0.17978734171E+03  0.24488813847E+03  0.80426955293E+02 0.  0.
         -6    2    1    2    0  501 -0.94426299765E+02 -0.63933984867E+02 -0.28111335368E+03  0.34895458291E+03  0.17245492979E+03 0.  0.
        -24    2    5    5    0    0 -0.85180926691E+02 -0.10979922926E+03 -0.21287597442E+03  0.26608403630E+03  0.78567632476E+02 0.  0.
          5    1    3    3  502    0 -0.12623221799E+02 -0.34649060929E+02 -0.19302584257E+02  0.41887741773E+02  0.47000000000E+01 0. -1.
        -13    1    4    4    0    0  0.64540613519E+01 -0.13870271093E+02 -0.14259631619E+02  0.20913546376E+02  0.00000000000E+00 0.  1.
         14    1    4    4    0    0  0.10059546021E+03  0.11245331689E+03 -0.16552771009E+03  0.22397459209E+03  0.00000000000E+00 0. -1.
         -5    1    5    5    0  501 -0.92453730744E+01  0.45865244393E+02 -0.68237379260E+02  0.82870546606E+02  0.47000000000E+01 0.  1.
         13    1    6    6    0    0 -0.47634146271E+02 -0.44574362685E+02 -0.16360056371E+03  0.17612788009E+03  0.00000000000E+00 0. -1.
        -14    1    6    6    0    0 -0.37546780420E+02 -0.65224866575E+02 -0.49275410708E+02  0.89956156210E+02  0.00000000000E+00 0.  1.
</event>
<event>
12    1  0.2576962E-002  0.1907491E+03  0.7818608E-02  0.1157787E+00
         -3   -1    0    0    0  501 -0.00000000000E+00  0.00000000000E+00  0.38286491995E+03  0.38286491995E+03  0.00000000000E+00 0.  1.
          3   -1    0    0  502    0  0.00000000000E+00 -0.00000000000E+00 -0.11473411198E+03  0.11473411198E+03  0.00000000000E+00 0. -1.
          6    2    1    2  502    0  0.41198324637E+02 -0.83707594091E+02  0.33750080420E+02  0.19819179285E+03  0.17157113849E+03 0.  0.
         24    2    3    3    0    0 -0.40600271792E+02 -0.39522498738E+02  0.85616304130E+00  0.99462704790E+02  0.81741584599E+02 0.  0.
         -6    2    1    2    0  501 -0.41198324637E+02  0.83707594091E+02  0.23438072755E+03  0.29940723908E+03  0.16126408809E+03 0.  0.
        -24    2    5    5    0    0 -0.84127916277E+02  0.63479950466E+02  0.13138214810E+03  0.18590435466E+03  0.78688943523E+02 0.  0.
          5    1    3    3  502    0  0.81798596429E+02 -0.44185095353E+02  0.32893917378E+02  0.98729088062E+02  0.47000000000E+01 0. -1.
        -11    1    4    4    0    0 -0.11768544649E+02 -0.53357453289E+02 -0.23284875907E+02  0.59394460269E+02  0.00000000000E+00 0.  1.
         12    1    4    4    0    0 -0.28831727143E+02  0.13834954550E+02  0.24141038949E+02  0.40068244521E+02  0.00000000000E+00 0. -1.
         -5    1    5    5    0  501  0.42929591640E+02  0.20227643625E+02  0.10299857944E+03  0.11350288442E+03  0.47000000000E+01 0.  1.
         13    1    6    6    0    0  0.43762043708E+01 -0.11571034982E+02  0.27511878538E+02  0.30165269366E+02  0.00000000000E+00 0. -1.
        -14    1    6    6    0    0 -0.88504120648E+02  0.75050985448E+02  0.10387026956E+03  0.15573908529E+03  0.00000000000E+00 0.  1.
</event>
<event>
12    1  0.2576962E-002  0.1811406E+03  0.7818608E-02  0.1166704E+00
          2   -1    0    0  502    0  0.00000000000E+00  0.00000000000E+00  0.14840538205E+03  0.14840538205E+03  0.00000000000E+00 0. -1.
         -2   -1    0    0    0  501 -0.00000000000E+00 -0.00000000000E+00 -0.22143272908E+03  0.22143272908E+03  0.00000000000E+00 0.  1.
          6    2    1    2  502    0  0.14727813467E+01  0.46945530508E+02 -0.43804166979E+02  0.18851228504E+03  0.17723437772E+03 0.  0.
         24    2    3    3    0    0  0.69451334089E+02  0.36724213875E+02 -0.45429309382E+02  0.11958993718E+03  0.77883086944E+02 0.  0.
         -6    2    1    2    0  501 -0.14727813467E+01 -0.46945530508E+02 -0.29223180049E+02  0.18132582610E+03  0.17268181444E+03 0.  0.
        -24    2    5    5    0    0 -0.52780590431E+02  0.17425140326E+02 -0.11175504312E+02  0.96922727008E+02  0.78611048031E+02 0.  0.
          5    1    3    3  502    0 -0.67978552742E+02  0.10221316633E+02  0.16251424025E+01  0.68922347859E+02  0.47000000000E+01 0. -1.
        -13    1    4    4    0    0  0.19954615412E+02  0.53611611186E+02 -0.15225281677E+02  0.59196289853E+02  0.00000000000E+00 0.  1.
         14    1    4    4    0    0  0.49496718676E+02 -0.16887397311E+02 -0.30204027705E+02  0.60393647325E+02  0.00000000000E+00 0. -1.
         -5    1    5    5    0  501  0.51307809084E+02 -0.64370670834E+02 -0.18047675737E+02  0.84403099091E+02  0.47000000000E+01 0.  1.
         13    1    6    6    0    0 -0.28436651877E+02  0.40777645916E+02 -0.30226067251E+02  0.58181394946E+02  0.00000000000E+00 0. -1.
        -14    1    6    6    0    0 -0.24343938554E+02 -0.23352505590E+02  0.19050562939E+02  0.38741332062E+02  0.00000000000E+00 0.  1.
</event>
<event>
12    1  0.2576962E-002  0.2054348E+03  0.7818608E-02  0.1145233E+00
          1   -1    0    0  502    0  0.00000000000E+00  0.00000000000E+00  0.13271337527E+04  0.13271337527E+04  0.00000000000E+00 0.  1.
         -1   -1    0    0    0  501 -0.00000000000E+00 -0.00000000000E+00 -0.32017534821E+02  0.32017534821E+02  0.00000000000E+00 0. -1.
          6    2    1    2  502    0 -0.10172333250E+03  0.40549177157E+02  0.70350105677E+03  0.73288155340E+03  0.17380955754E+03 0.  0.
         24    2    3    3    0    0 -0.21679299158E+02  0.58731579033E+02  0.54582538874E+03  0.55505761434E+03  0.79020312972E+02 0.  0.
         -6    2    1    2    0  501  0.10172333250E+03 -0.40549177157E+02  0.59161516110E+03  0.62626973411E+03  0.17382004740E+03 0.  0.
        -24    2    5    5    0    0  0.51165142365E+02  0.44505847272E+02  0.32057383776E+03  0.33769396117E+03  0.81676090266E+02 0.  0.
          5    1    3    3  502    0 -0.80044033344E+02 -0.18182401876E+02  0.15767566803E+03  0.17782393905E+03  0.47000000000E+01 0. -1.
        -13    1    4    4    0    0 -0.32669984006E+02 -0.20873425694E+01  0.10683838434E+03  0.11174133176E+03  0.00000000000E+00 0.  1.
         14    1    4    4    0    0  0.10990684847E+02  0.60818921603E+02  0.43898700439E+03  0.44331628258E+03  0.00000000000E+00 0. -1.
         -5    1    5    5    0  501  0.50558190137E+02 -0.85055024429E+02  0.27104132334E+03  0.28857577294E+03  0.47000000000E+01 0.  1.
         11    1    6    6    0    0 -0.20860522180E+02  0.20342624321E+02  0.11153683711E+03  0.11527987588E+03  0.00000000000E+00 0. -1.
        -12    1    6    6    0    0  0.72025664545E+02  0.24163222951E+02  0.20903700065E+03  0.22241408530E+03  0.00000000000E+00 0.  1.
</event>
<event>
12    1  0.2576962E-002  0.2280288E+03  0.7818608E-02  0.1128035E+00
          2   -1    0    0  502    0  0.00000000000E+00  0.00000000000E+00  0.35434916166E+03  0.35434916166E+03  0.00000000000E+00 0.  1.
         -2   -1    0    0    0  501 -0.00000000000E+00 -0.00000000000E+00 -0.16649295187E+03  0.16649295187E+03  0.00000000000E+00 0. -1.
          6    2    1    2  502    0 -0.94052975985E+02  0.12117716652E+03  0.33606039898E+01  0.22555546954E+03  0.16533030031E+03 0.  0.
         24    2    3    3    0    0 -0.54716454690E+02  0.70975023223E+02  0.65222237302E+02  0.13658036754E+03  0.79805464875E+02 0.  0.
         -6    2    1    2    0  501  0.94052975985E+02 -0.12117716652E+03  0.18449560581E+03  0.29528664399E+03  0.17212119446E+03 0.  0.
        -24    2    5    5    0    0  0.12074148642E+03 -0.13057228856E+03  0.18173480974E+03  0.26647246515E+03  0.79701973182E+02 0.  0.
          5    1    3    3  502    0 -0.39336521295E+02  0.50202143292E+02 -0.61861633312E+02  0.88975101994E+02  0.47000000000E+01 0. -1.
        -13    1    4    4    0    0 -0.35137631998E+02 -0.19207451265E+01 -0.23565250197E+01  0.35268904922E+02  0.00000000000E+00 0.  1.
         14    1    4    4    0    0 -0.19578822692E+02  0.72895768349E+02  0.67578762322E+02  0.10131146262E+03  0.00000000000E+00 0. -1.
         -5    1    5    5    0  501 -0.26688510436E+02  0.93951220430E+01  0.27607960674E+01  0.28814178843E+02  0.47000000000E+01 0.  1.
         13    1    6    6    0    0  0.68649880981E+02 -0.92206662024E+02  0.62576515684E+02  0.13088428093E+03  0.00000000000E+00 0. -1.
        -14    1    6    6    0    0  0.52091605440E+02 -0.38365626534E+02  0.11915829406E+03  0.13558818422E+03  0.00000000000E+00 0.  1.
</event>
<event>
12    1  0.2576962E-002  0.1899229E+03  0.7818608E-02  0.1158531E+00
          2   -1    0    0  502    0  0.00000000000E+00  0.00000000000E+00  0.91737269329E+03  0.91737269329E+03  0.00000000000E+00 0.  1.
         -2   -1    0    0    0  501 -0.00000000000E+00 -0.00000000000E+00 -0.44034806776E+02  0.44034806776E+02  0.00000000000E+00 0. -1.
          6    2    1    2  502    0 -0.79863471060E+02 -0.24159138994E+02  0.59101312299E+03  0.62034812186E+03  0.16903680883E+03 0.  0.
         24    2    3    3    0    0 -0.80850270000E+02 -0.76980364304E+01  0.21641639605E+03  0.24535913601E+03  0.82274073820E+02 0.  0.
         -6    2    1    2    0  501  0.79863471060E+02  0.24159138994E+02  0.28232476352E+03  0.34105937821E+03  0.17219869151E+03 0.  0.
        -24    2    5    5    0    0  0.40698452006E+02  0.81632739288E+02  0.16810550243E+03  0.20724890383E+03  0.79827188804E+02 0.  0.
          5    1    3    3  502    0  0.98679893963E+00 -0.16461102564E+02  0.37459672694E+03  0.37498898585E+03  0.47000000000E+01 0. -1.
        -13    1    4    4    0    0  0.23547533364E+01  0.21753087400E+02  0.79522038961E+02  0.82477247500E+02  0.00000000000E+00 0.  1.
         14    1    4    4    0    0 -0.83205023336E+02 -0.29451123831E+02  0.13689435708E+03  0.16288188851E+03  0.00000000000E+00 0. -1.
         -5    1    5    5    0  501  0.39165019054E+02 -0.57473600293E+02  0.11421926110E+03  0.13381047438E+03  0.47000000000E+01 0.  1.
         11    1    6    6    0    0  0.64465107229E+02  0.65201890518E+02  0.13639615142E+03  0.16435007362E+03  0.00000000000E+00 0. -1.
        -12    1    6    6    0    0 -0.23766655223E+02  0.16430848770E+02  0.31709351006E+02  0.42898830206E+02  0.00000000000E+00 0.  1.
</event>
<event>
12    1  0.2576962E-002  0.1802960E+03  0.7818608E-02  0.1167517E+00
          2   -1    0    0  502    0  0.00000000000E+00  0.00000000000E+00  0.11833992077E+04  0.11833992077E+04  0.00000000000E+00 0.  1.
         -2   -1    0    0    0  501 -0.00000000000E+00 -0.00000000000E+00 -0.32684342663E+02  0.32684342663E+02  0.00000000000E+00 0. -1.
          6    2    1    2  502    0  0.12528495233E+01 -0.49447708225E+02  0.81476270710E+03  0.83419708892E+03  0.17204612404E+03 0.  0.
         24    2    3    3    0    0  0.22131818645E+02 -0.83473024842E+02  0.38394242740E+03  0.40150567819E+03  0.79608157771E+02 0.  0.
         -6    2    1    2    0  501 -0.12528495233E+01  0.49447708225E+02  0.33595215790E+03  0.38188646141E+03  0.17471912182E+03 0.  0.
        -24    2    5    5    0    0  0.56639693567E+02  0.67797851010E+02  0.19392330565E+03  0.22734663108E+03  0.79218928931E+02 0.  0.
          5    1    3    3  502    0 -0.20878969122E+02  0.34025316617E+02  0.43082027970E+03  0.43269141073E+03  0.47000000000E+01 0. -1.
        -11    1    4    4    0    0 -0.95115636286E+01 -0.19332783922E+01  0.17134114750E+03  0.17161583912E+03  0.00000000000E+00 0.  1.
         12    1    4    4    0    0  0.31643382274E+02 -0.81539746450E+02  0.21260127990E+03  0.22988983907E+03  0.00000000000E+00 0. -1.
         -5    1    5    5    0  501 -0.57892543091E+02 -0.18350142785E+02  0.14202885225E+03  0.15453983033E+03  0.47000000000E+01 0.  1.
         13    1    6    6    0    0  0.14546903650E+02  0.45325487477E+02  0.29184893011E+02  0.55836996703E+02  0.00000000000E+00 0. -1.
        -14    1    6    6    0    0  0.42092789917E+02  0.22472363533E+02  0.16473841264E+03  0.17150963438E+03  0.00000000000E+00 0.  1.
</event>
<event>
12    1  0.2576962E-002  0.2007621E+03  0.7818608E-02  0.1149098E+00
          2   -1    0    0  502    0  0.00000000000E+00  0.00000000000E+00  0.58491718248E+03  0.58491718248E+03  0.00000000000E+00 0. -1.
         -2   -1    0    0    0  501 -0.00000000000E+00 -0.00000000000E+00 -0.68910547593E+02  0.68910547593E+02  0.00000000000E+00 0.  1.
          6    2    1    2  502    0 -0.76707449958E+02  0.64632537745E+02  0.25601170789E+03  0.32535473661E+03  0.17393191843E+03 0.  0.
         24    2    3    3    0    0  0.95174273386E+00 -0.18560914791E+02  0.72676686826E+02  0.10951701817E+03  0.79791372276E+02 0.  0.
         -6    2    1    2    0  501  0.76707449958E+02 -0.64632537745E+02  0.25999492700E+03  0.32847299346E+03  0.17388429357E+03 0.  0.
        -24    2    5    5    0    0 -0.92136614237E+00 -0.10913786766E+02  0.20120714473E+03  0.21716247895E+03  0.80964606559E+02 0.  0.
          5    1    3    3  502    0 -0.77659192692E+02  0.83193452536E+02  0.18333502106E+03  0.21583771844E+03  0.47000000000E+01 0. -1.
        -13    1    4    4    0    0 -0.22730404239E+02  0.22535539234E+02  0.16553641959E+02  0.36035328048E+02  0.00000000000E+00 0.  1.
         14    1    4    4    0    0  0.23682146972E+02 -0.41096454025E+02  0.56123044868E+02  0.73481690127E+02  0.00000000000E+00 0. -1.
         -5    1    5    5    0  501  0.77628816101E+02 -0.53718750979E+02  0.58787782267E+02  0.11131051451E+03  0.47000000000E+01 0.  1.
         13    1    6    6    0    0  0.24419474584E+02 -0.36152174184E+02  0.84490334151E+02  0.95088942586E+02  0.00000000000E+00 0. -1.
        -14    1    6    6    0    0 -0.25340840727E+02  0.25238387417E+02  0.11671681058E+03  0.12207353636E+03  0.00000000000E+00 0.  1.
</event>
<event>
12    1  0.2576962E-002  0.2254485E+03  0.7818608E-02  0.1129885E+00
          2   -1    0    0  502    0  0.00000000000E+00  0.00000000000E+00  0.19683061724E+04  0.19683061724E+04  0.00000000000E+00 0.  1.
         -2   -1    0    0    0  501 -0.00000000000E+00 -0.00000000000E+00 -0.28411718308E+02  0.28411718308E+02  0.00000000000E+00 0. -1.
          6    2    1    2  502    0 -0.12572033439E+03 -0.74875717549E+02  0.66775485516E+03  0.70471909171E+03  0.17123222851E+03 0.  0.
         24    2    3    3    0    0 -0.16833373050E+02 -0.69070439956E+02  0.43029852125E+03  0.44338085855E+03  0.79847856688E+02 0.  0.
         -6    2    1    2    0  501  0.12572033439E+03  0.74875717549E+02  0.12721395990E+04  0.12919987990E+04  0.17178405594E+03 0.  0.
        -24    2    5    5    0    0  0.73982425592E+02  0.74974376700E+02  0.46437487838E+03  0.48256519782E+03  0.78298058849E+02 0.  0.
          5    1    3    3  502    0 -0.10888696134E+03 -0.58052775924E+01  0.23745633391E+03  0.26133823316E+03  0.47000000000E+01 0. -1.
        -13    1    4    4    0    0 -0.46226521874E+02 -0.29353940239E+02  0.27545288848E+03  0.28084308591E+03  0.00000000000E+00 0.  1.
         14    1    4    4    0    0  0.29393148824E+02 -0.39716499717E+02  0.15484563277E+03  0.16253777264E+03  0.00000000000E+00 0. -1.
         -5    1    5    5    0  501  0.51737908797E+02 -0.98659151141E-01  0.80776472058E+03  0.80943360120E+03  0.47000000000E+01 0.  1.
         13    1    6    6    0    0  0.76998852187E+02  0.27900669895E+02  0.25040719719E+03  0.26345974080E+03  0.00000000000E+00 0. -1.
        -14    1    6    6    0    0 -0.30164265951E+01  0.47073706805E+02  0.21396768120E+03  0.21910545703E+03  0.00000000000E+00 0.  1.
</event>
<event>
12    1  0.2576962E-002  0.1939809E+03  0.7818608E-02  0.1154919E+00
          2   -1    0    0  502    0  0.00000000000E+00  0.00000000000E+00  0.11558263075E+03  0.11558263075E+03  0.00000000000E+00 0.  1.
         -2   -1    0    0    0  501 -0.00000000000E+00 -0.00000000000E+00 -0.37207965845E+03  0.37207965845E+03  0.00000000000E+00 0. -1.
          6    2    1    2  502    0  0.84703975013E+02 -0.35047907231E+02 -0.21467152836E+03  0.28956755282E+03  0.17135455458E+03 0.  0.
         24    2    3    3    0    0  0.27916945401E+01  0.34810606479E+02 -0.98205117560E+02  0.13089698695E+03  0.79184620950E+02 0.  0.
         -6    2    1    2    0  501 -0.84703975013E+02  0.35047907231E+02 -0.41825499340E+02  0.19809473638E+03  0.17055507323E+03 0.  0.
        -24    2    5    5    0    0 -0.12268074455E+03  0.88158177447E+01 -0.40588499463E+02  0.15168377096E+03  0.78944641100E+02 0.  0.
          5    1    3    3  502    0  0.81912280473E+02 -0.69858513710E+02 -0.11646641080E+03  0.15867056587E+03  0.47000000000E+01 0. -1.
        -13    1    4    4    0    0 -0.58437773596E+01 -0.23459695488E+02 -0.13403829580E+02  0.27643619402E+02  0.00000000000E+00 0.  1.
         14    1    4    4    0    0  0.86354718997E+01  0.58270301968E+02 -0.84801287979E+02  0.10325336754E+03  0.00000000000E+00 0. -1.
         -5    1    5    5    0  501  0.37976769535E+02  0.26232089486E+02 -0.12369998775E+01  0.46410965426E+02  0.47000000000E+01 0.  1.
         13    1    6    6    0    0 -0.36391089741E+02 -0.18630863802E+02 -0.45288835899E+02  0.61012286924E+02  0.00000000000E+00 0. -1.
        -14    1    6    6    0    0 -0.86289654806E+02  0.27446681547E+02  0.47003364363E+01  0.90671484035E+02  0.00000000000E+00 0.  1.
</event>
<event>
12    1  0.2576962E-002  0.2487189E+03  0.7818608E-02  0.1114117E+00
          2   -1    0    0  502    0  0.00000000000E+00  0.00000000000E+00  0.14609763253E+04  0.14609763253E+04  0.00000000000E+00 0.  1.
         -2   -1    0    0    0  501 -0.00000000000E+00 -0.00000000000E+00 -0.17993412618E+03  0.17993412618E+03  0.00000000000E+00 0. -1.
          6    2    1    2  502    0  0.13776124122E+03  0.11593794877E+03  0.13579122125E+04  0.13804834454E+04  0.17143278173E+03 0.  0.
         24    2    3    3    0    0  0.86543608652E+02  0.10057247033E+02  0.46598651105E+03  0.48082377876E+03  0.80356289908E+02 0.  0.
         -6    2    1    2    0  501 -0.13776124122E+03 -0.11593794877E+03 -0.76870013361E+02  0.26042700608E+03  0.17173659772E+03 0.  0.
        -24    2    5    5    0    0 -0.92702312049E+02 -0.49328525344E+02  0.21381046772E+02  0.13337393369E+03  0.79400472004E+02 0.  0.
          5    1    3    3  502    0  0.51217632563E+02  0.10588070174E+03  0.89192570143E+03  0.89965966663E+03  0.47000000000E+01 0. -1.
        -13    1    4    4    0    0  0.72985907750E+02 -0.16401078424E+02  0.41593651639E+03  0.42260989550E+03  0.00000000000E+00 0.  1.
         14    1    4    4    0    0  0.13557700902E+02  0.26458325456E+02  0.50049994653E+02  0.58213883262E+02  0.00000000000E+00 0. -1.
         -5    1    5    5    0  501 -0.45058929167E+02 -0.66609423428E+02 -0.98251060133E+02  0.12705307239E+03  0.47000000000E+01 0.  1.
         13    1    6    6    0    0 -0.49272471667E+02  0.78062792925E+01 -0.16084504723E+02  0.52415892177E+02  0.00000000000E+00 0. -1.
        -14    1    6    6    0    0 -0.43429840382E+02 -0.57134804636E+02  0.37465551495E+02  0.80958041511E+02  0.00000000000E+00 0.  1.
</event>
<event>
12    1  0.2576962E-002  0.3779631E+03  0.7818608E-02  0.1051689E+00
         -2   -1    0    0    0  501 -0.00000000000E+00  0.00000000000E+00  0.75924104502E+02  0.75924104502E+02  0.00000000000E+00 0. -1.
          2   -1    0    0  502    0  0.00000000000E+00 -0.00000000000E+00 -0.18868711251E+04  0.18868711251E+04  0.00000000000E+00 0.  1.
          6    2    1    2  502    0 -0.31260911852E+03  0.12449743597E+03 -0.85340289985E+03  0.93335130641E+03  0.17211646975E+03 0.  0.
         24    2    3    3    0    0 -0.32086858408E+03  0.13991563602E+03 -0.79797319371E+03  0.87503765460E+03  0.79979032497E+02 0.  0.
         -6    2    1    2    0  501  0.31260911852E+03 -0.12449743597E+03 -0.95754412073E+03  0.10294439232E+04  0.17216264193E+03 0.  0.
        -24    2    5    5    0    0  0.16256968231E+03 -0.11622800448E+01 -0.36806110020E+03  0.40877032570E+03  0.72069086263E+02 0.  0.
          5    1    3    3  502    0  0.82594655603E+01 -0.15418200053E+02 -0.55429706146E+02  0.58313651812E+02  0.47000000000E+01 0. -1.
        -11    1    4    4    0    0 -0.12141712831E+03  0.28731943249E+02 -0.36174607741E+03  0.38265894493E+03  0.00000000000E+00 0.  1.
         12    1    4    4    0    0 -0.19945145577E+03  0.11118369277E+03 -0.43622711629E+03  0.49237870967E+03  0.00000000000E+00 0. -1.
         -5    1    5    5    0  501  0.15003943621E+03 -0.12333515592E+03 -0.58948302054E+03  0.62067359748E+03  0.47000000000E+01 0.  1.
         11    1    6    6    0    0  0.99694171209E+01  0.16943552216E+02 -0.18818088744E+02  0.27213851315E+02  0.00000000000E+00 0. -1.
        -12    1    6    6    0    0  0.15260026519E+03 -0.18105832261E+02 -0.34924301145E+03  0.38155647439E+03  0.00000000000E+00 0.  1.
</event>
<event>
12    1  0.2576962E-002  0.1829642E+03  0.7818608E-02  0.1164965E+00
          2   -1    0    0  502    0  0.00000000000E+00  0.00000000000E+00  0.15422684320E+04  0.15422684320E+04  0.00000000000E+00 0. -1.
         -2   -1    0    0    0  501 -0.00000000000E+00 -0.00000000000E+00 -0.27559461282E+02  0.27559461282E+02  0.00000000000E+00 0.  1.
          6    2    1    2  502    0 -0.54985257125E+02  0.27675659908E+02  0.39623879989E+03  0.43652273629E+03  0.17250389012E+03 0.  0.
         24    2    3    3    0    0 -0.26761063883E+02 -0.17562065285E+01  0.38401705706E+03  0.39369399776E+03  0.82502272428E+02 0.  0.
         -6    2    1    2    0  501  0.54985257125E+02 -0.27675659908E+02  0.11184701709E+04  0.11333051570E+04  0.17209222873E+03 0.  0.
        -24    2    5    5    0    0  0.77058375884E+02  0.22700740619E+02  0.93582436877E+03  0.94250006453E+03  0.78011573099E+02 0.  0.
          5    1    3    3  502    0 -0.28224193241E+02  0.29431866437E+02  0.12221742827E+02  0.42828738527E+02  0.47000000000E+01 0. -1.
        -13    1    4    4    0    0 -0.19330352934E+02 -0.27600255429E+02  0.62076798129E+02  0.70632609397E+02  0.00000000000E+00 0.  1.
         14    1    4    4    0    0 -0.74307109493E+01  0.25844048900E+02  0.32194025893E+03  0.32306138836E+03  0.00000000000E+00 0. -1.
         -5    1    5    5    0  501 -0.22073118759E+02 -0.50376400528E+02  0.18264580211E+03  0.19080509252E+03  0.47000000000E+01 0.  1.
         11    1    6    6    0    0  0.63747791613E+02  0.18679972770E+02  0.91531069228E+03  0.91771803170E+03  0.00000000000E+00 0. -1.
        -12    1    6    6    0    0  0.13310584271E+02  0.40207678494E+01  0.20513676491E+02  0.24782032824E+02  0.00000000000E+00 0.  1.
</event>
<event>
12    1  0.2576962E-002  0.2056704E+03  0.7818608E-02  0.1145041E+00
         -2   -1    0    0    0  501 -0.00000000000E+00  0.00000000000E+00  0.16149228441E+02  0.16149228441E+02  0.00000000000E+00 0. -1.
          2   -1    0    0  502    0  0.00000000000E+00 -0.00000000000E+00 -0.35465435542E+04  0.35465435542E+04  0.00000000000E+00 0.  1.
          6    2    1    2  502    0 -0.10371139588E+03  0.79640905519E+01 -0.82873598269E+03  0.85289588795E+03  0.17265163277E+03 0.  0.
         24    2    3    3    0    0  0.92860618214E+01  0.26271564056E+02 -0.41564908304E+03  0.42421597741E+03  0.80116223315E+02 0.  0.
         -6    2    1    2    0  501  0.10371139588E+03 -0.79640905519E+01 -0.27016583431E+04  0.27097968947E+04  0.18226883288E+03 0.  0.
        -24    2    5    5    0    0  0.60711432075E+02 -0.48260846928E+01 -0.25528430889E+04  0.25547907212E+04  0.78984955276E+02 0.  0.
          5    1    3    3  502    0 -0.11299745770E+03 -0.18307473504E+02 -0.41308689965E+03  0.42867991054E+03  0.47000000000E+01 0. -1.
        -11    1    4    4    0    0  0.65921826749E+01  0.25520634042E+01 -0.38638715598E+03  0.38645181356E+03  0.00000000000E+00 0.  1.
         12    1    4    4    0    0  0.26938791465E+01  0.23719500651E+02 -0.29261927062E+02  0.37764163851E+02  0.00000000000E+00 0. -1.
         -5    1    5    5    0  501  0.42999963807E+02 -0.31380058591E+01 -0.14881525414E+03  0.15500617353E+03  0.47000000000E+01 0.  1.
         13    1    6    6    0    0  0.29775891032E+02 -0.16147641997E+02 -0.33603315049E+03  0.33773603340E+03  0.00000000000E+00 0. -1.
        -14    1    6    6    0    0  0.30935541043E+02  0.11321557304E+02 -0.22168099384E+04  0.22170546878E+04  0.00000000000E+00 0.  1.
</event>
<event>
12    1  0.2576962E-002  0.3153989E+03  0.7818608E-02  0.1077787E+00
         -2   -1    0    0    0  501 -0.00000000000E+00  0.00000000000E+00  0.51938264442E+03  0.51938264442E+03  0.00000000000E+00 0.  1.
          2   -1    0    0  502    0  0.00000000000E+00 -0.00000000000E+00 -0.20502168427E+03  0.20502168427E+03  0.00000000000E+00 0. -1.
          6    2    1    2  502    0  0.10298464901E+03  0.24414815584E+03  0.64395230194E+02  0.32218942313E+03  0.17159580056E+03 0.  0.
         24    2    3    3    0    0  0.42500863274E+02  0.14808655003E+03  0.10339634970E+03  0.20206741111E+03  0.80028018994E+02 0.  0.
         -6    2    1    2    0  501 -0.10298464901E+03 -0.24414815584E+03  0.24996572996E+03  0.40221490556E+03  0.17052801580E+03 0.  0.
        -24    2    5    5    0    0 -0.89713214073E+02 -0.22816246149E+03  0.26982453819E+03  0.37309213658E+03  0.79283613419E+02 0.  0.
          5    1    3    3  502    0  0.60483785732E+02  0.96061605811E+02 -0.39001119505E+02  0.12012201201E+03  0.47000000000E+01 0. -1.
        -11    1    4    4    0    0  0.30771217610E+01  0.23947302473E+02  0.60169227156E+02  0.64832691373E+02  0.00000000000E+00 0.  1.
         12    1    4    4    0    0  0.39423741513E+02  0.12413924756E+03  0.43227122542E+02  0.13723471974E+03  0.00000000000E+00 0. -1.
         -5    1    5    5    0  501 -0.13271434933E+02 -0.15985694353E+02 -0.19858808230E+02  0.29122768986E+02  0.47000000000E+01 0.  1.
         13    1    6    6    0    0  0.10844935436E+02 -0.63663361861E+02  0.75483855412E+02  0.99340065914E+02  0.00000000000E+00 0. -1.
        -14    1    6    6    0    0 -0.10055814951E+03 -0.16449909963E+03  0.19434068277E+03  0.27375207066E+03  0.00000000000E+00 0.  1.
</event>
<event>
12    1  0.2576962E-002  0.2301634E+03  0.7818608E-02  0.1126525E+00
         -2   -1    0    0    0  501 -0.00000000000E+00  0.00000000000E+00  0.23710058685E+03  0.23710058685E+03  0.00000000000E+00 0.  1.
          2   -1    0    0  502    0  0.00000000000E+00 -0.00000000000E+00 -0.28626314741E+03  0.28626314741E+03  0.00000000000E+00 0. -1.
          6    2    1    2  502    0  0.11146677443E+03  0.10104060484E+03  0.98150139316E+02  0.24859165100E+03  0.17184386364E+03 0.  0.
         24    2    3    3    0    0  0.85071723526E+02  0.93248939177E+02  0.13623311938E+03  0.20137076434E+03  0.77834177020E+02 0.  0.
         -6    2    1    2    0  501 -0.11146677443E+03 -0.10104060484E+03 -0.14731269988E+03  0.27477208326E+03  0.17653504061E+03 0.  0.
        -24    2    5    5    0    0 -0.10267607526E+03 -0.11290144921E+03 -0.51613403024E+02  0.17782673041E+03  0.75294681147E+02 0.  0.
          5    1    3    3  502    0  0.26395050901E+02  0.77916656631E+01 -0.38082980067E+02  0.47220886657E+02  0.47000000000E+01 0. -1.
        -13    1    4    4    0    0  0.71758244638E+02  0.51161183807E+02  0.42666796787E+02  0.97914084534E+02  0.00000000000E+00 0.  1.
         14    1    4    4    0    0  0.13313478889E+02  0.42087755371E+02  0.93566322596E+02  0.10345667981E+03  0.00000000000E+00 0. -1.
         -5    1    5    5    0  501 -0.87906991625E+01  0.11860844371E+02 -0.95699296857E+02  0.96945352853E+02  0.47000000000E+01 0.  1.
         13    1    6    6    0    0 -0.63998901517E+02 -0.85766419818E+02 -0.69172495029E+02  0.12742280892E+03  0.00000000000E+00 0. -1.
        -14    1    6    6    0    0 -0.38677173748E+02 -0.27135029393E+02  0.17559092006E+02  0.50403921488E+02  0.00000000000E+00 0.  1.
</event>
<event>
12    1  0.2576962E-002  0.2893348E+03  0.7818608E-02  0.1090697E+00
         -1   -1    0    0    0  501 -0.00000000000E+00  0.00000000000E+00  0.17612202097E+04  0.17612202097E+04  0.00000000000E+00 0. -1.
          1   -1    0    0  502    0  0.00000000000E+00 -0.00000000000E+00 -0.70666327723E+02  0.70666327723E+02  0.00000000000E+00 0.  1.
          6    2    1    2  502    0  0.21243198017E+03 -0.94720532826E+02  0.13696555955E+04  0.13999150539E+04  0.17235539516E+03 0.  0.
         24    2    3    3    0    0  0.11964209124E+03 -0.17796784718E+01  0.92810116567E+03  0.93921952492E+03  0.80275432237E+02 0.  0.
         -6    2    1    2    0  501 -0.21243198017E+03  0.94720532826E+02  0.32089828651E+03  0.43197148358E+03  0.17182644385E+03 0.  0.
        -24    2    5    5    0    0 -0.19479592404E+03  0.12032850000E+03  0.21940185056E+03  0.32571511921E+03  0.74355678454E+02 0.  0.
          5    1    3    3  502    0  0.92789888931E+02 -0.92940854354E+02  0.44155442981E+03  0.46069552894E+03  0.47000000000E+01 0. -1.
        -13    1    4    4    0    0  0.42940739085E+02  0.36717836982E+02  0.29894220350E+03  0.30423436305E+03  0.00000000000E+00 0.  1.
         14    1    4    4    0    0  0.76701352150E+02 -0.38497515454E+02  0.62915896217E+03  0.63498516187E+03  0.00000000000E+00 0. -1.
         -5    1    5    5    0  501 -0.17636056129E+02 -0.25607967178E+02  0.10149643595E+03  0.10625636437E+03  0.47000000000E+01 0.  1.
         11    1    6    6    0    0 -0.23332231729E+02 -0.40449770542E+01  0.47617220337E+01  0.24154272366E+02  0.00000000000E+00 0. -1.
        -12    1    6    6    0    0 -0.17146369231E+03  0.12437347706E+03  0.21464012853E+03  0.30156084684E+03  0.00000000000E+00 0.  1.
</event>
<event>
12    1  0.2576962E-002  0.1923245E+03  0.7818608E-02  0.1156381E+00
          2   -1    0    0  502    0  0.00000000000E+00  0.00000000000E+00  0.22876167638E+03  0.22876167638E+03  0.00000000000E+00 0.  1.
         -2   -1    0    0    0  501 -0.00000000000E+00 -0.00000000000E+00 -0.20675268057E+03  0.20675268057E+03  0.00000000000E+00 0. -1.
          6    2    1    2  502    0  0.85655917245E+02 -0.29638004932E+01  0.11266976953E+03  0.22300063360E+03  0.17230520987E+03 0.  0.
         24    2    3    3    0    0  0.10081546701E+03  0.72154703376E+01  0.23083991137E+02  0.13145211535E+03  0.80814395891E+02 0.  0.
         -6    2    1    2    0  501 -0.85655917245E+02  0.29638004932E+01 -0.90660773724E+02  0.21251372335E+03  0.17203774716E+03 0.  0.
        -24    2    5    5    0    0 -0.43057708860E+02  0.66335577506E+02 -0.58495428827E+02  0.12952403187E+03  0.84263779308E+02 0.  0.
          5    1    3    3  502    0 -0.15159549764E+02 -0.10179270831E+02  0.89585778394E+02  0.91548518252E+02  0.47000000000E+01 0. -1.
        -13    1    4    4    0    0  0.48208840595E+02  0.42921931872E+02  0.20855438403E+02  0.67833132451E+02  0.00000000000E+00 0.  1.
         14    1    4    4    0    0  0.52606626414E+02 -0.35706461535E+02  0.22285527334E+01  0.63618982901E+02  0.00000000000E+00 0. -1.
         -5    1    5    5    0  501 -0.42598208385E+02 -0.63371777013E+02 -0.32165344897E+02  0.82989691479E+02  0.47000000000E+01 0.  1.
         13    1    6    6    0    0 -0.40674111321E+02  0.21477449829E+02 -0.69436691935E+02  0.83289365286E+02  0.00000000000E+00 0. -1.
        -14    1    6    6    0    0 -0.23835975387E+01  0.44858127677E+02  0.10941263107E+02  0.46234666586E+02  0.00000000000E+00 0.  1.
</event>
<event>
12    1  0.2576962E-002  0.3011793E+03  0.7818608E-02  0.1084653E+00
         -1   -1    0    0    0  501 -0.00000000000E+00  0.00000000000E+00  0.28711061181E+03  0.28711061181E+03  0.00000000000E+00 0.  1.
          1   -1    0    0  502    0  0.00000000000E+00 -0.00000000000E+00 -0.36788388204E+03  0.36788388204E+03  0.00000000000E+00 0. -1.
          6    2    1    2  502    0  0.22302789070E+03  0.10571973636E+03  0.82700941390E+02  0.31212717676E+03  0.17223770224E+03 0.  0.
         24    2    3    3    0    0  0.88505213327E+02  0.11040481820E+03  0.70558257752E+02  0.17689465298E+03  0.79314903070E+02 0.  0.
         -6    2    1    2    0  501 -0.22302789070E+03 -0.10571973636E+03 -0.16347421163E+03  0.34286731710E+03  0.17296264503E+03 0.  0.
        -24    2    5    5    0    0 -0.64839712774E+02 -0.94834480276E+02 -0.52841711463E+02  0.14946713993E+03  0.79689475124E+02 0.  0.
          5    1    3    3  502    0  0.13452267738E+03 -0.46850818333E+01  0.12142683638E+02  0.13523252377E+03  0.47000000000E+01 0. -1.
        -13    1    4    4    0    0 -0.33633282288E+01  0.20922616699E+02  0.39680180755E+02  0.44984270707E+02  0.00000000000E+00 0.  1.
         14    1    4    4    0    0  0.91868541556E+02  0.89482201499E+02  0.30878076997E+02  0.13191038227E+03  0.00000000000E+00 0. -1.
         -5    1    5    5    0  501 -0.15818817793E+03 -0.10885256088E+02 -0.11063250016E+03  0.19340017717E+03  0.47000000000E+01 0.  1.
         13    1    6    6    0    0 -0.68801460315E+02 -0.90336825407E+02 -0.68559489909E+02  0.13264534150E+03  0.00000000000E+00 0. -1.
        -14    1    6    6    0    0  0.39617475406E+01 -0.44976548687E+01  0.15717778446E+02  0.16821798423E+02  0.00000000000E+00 0.  1.
</event>
<event>
12    1  0.2576962E-002  0.2860570E+03  0.7818608E-02  0.1092426E+00
          1   -1    0    0  502    0  0.00000000000E+00  0.00000000000E+00  0.93106173034E+03  0.93106173034E+03  0.00000000000E+00 0. -1.
         -1   -1    0    0    0  501 -0.00000000000E+00 -0.00000000000E+00 -0.90212669774E+02  0.90212669774E+02  0.00000000000E+00 0.  1.
          6    2    1    2  502    0  0.11217127429E+03  0.19892715520E+03  0.33853880234E+03  0.44325506555E+03  0.17237205280E+03 0.  0.
         24    2    3    3    0    0  0.67240520880E+02  0.21079008717E+03  0.30702619404E+03  0.38691115514E+03  0.80507202487E+02 0.  0.
         -6    2    1    2    0  501 -0.11217127429E+03 -0.19892715520E+03  0.50231025822E+03  0.57801933456E+03  0.17215210649E+03 0.  0.
        -24    2    5    5    0    0 -0.11755960660E+03 -0.13469097833E+03  0.46812325489E+03  0.50490188288E+03  0.61843421835E+02 0.  0.
          5    1    3    3  502    0  0.44930753413E+02 -0.11862931971E+02  0.31512608308E+02  0.56343910404E+02  0.47000000000E+01 0. -1.
        -11    1    4    4    0    0  0.55313329936E+02  0.15119764889E+03  0.15627512226E+03  0.22437069180E+03  0.00000000000E+00 0.  1.
         12    1    4    4    0    0  0.11927190944E+02  0.59592438276E+02  0.15075107177E+03  0.16254046335E+03  0.00000000000E+00 0. -1.
         -5    1    5    5    0  501  0.53883323038E+01 -0.64236176869E+02  0.34187003325E+02  0.73117451679E+02  0.47000000000E+01 0.  1.
         13    1    6    6    0    0 -0.58074381758E+02 -0.23757712333E+02  0.13801971398E+03  0.15161300788E+03  0.00000000000E+00 0. -1.
        -14    1    6    6    0    0 -0.59485224838E+02 -0.11093326599E+03  0.33010354091E+03  0.35328887500E+03  0.00000000000E+00 0.  1.
</event>
<event>
12    1  0.2576962E-002  0.2306150E+03  0.7818608E-02  0.1126208E+00
         -1   -1    0    0    0  501 -0.00000000000E+00  0.00000000000E+00  0.53351444049E+02  0.53351444049E+02  0.00000000000E+00 0.  1.
          1   -1    0    0  502    0  0.00000000000E+00 -0.00000000000E+00 -0.11333836541E+04  0.11333836541E+04  0.00000000000E+00 0. -1.
          6    2    1    2  502    0 -0.17382842634E+01 -0.15697545149E+03 -0.33807381087E+03  0.41032747072E+03  0.17155295866E+03 0.  0.
         24    2    3    3    0    0  0.24110300661E+02 -0.14312103978E+02 -0.15861423514E+03  0.17957043531E+03  0.79378351779E+02 0.  0.
         -6    2    1    2    0  501  0.17382842634E+01  0.15697545149E+03 -0.74195839919E+03  0.77640762745E+03  0.16631964351E+03 0.  0.
        -24    2    5    5    0    0  0.79587338944E+00  0.12207631074E+03 -0.72289591438E+03  0.73635383248E+03  0.68812822413E+02 0.  0.
          5    1    3    3  502    0 -0.25848584924E+02 -0.14266334752E+03 -0.17945957573E+03  0.23075703540E+03  0.47000000000E+01 0. -1.
        -11    1    4    4    0    0  0.81098244621E+01 -0.46286122491E+02 -0.73327798345E+02  0.87092711510E+02  0.00000000000E+00 0.  1.
         12    1    4    4    0    0  0.16000476199E+02  0.31974018513E+02 -0.85286436797E+02  0.92477723804E+02  0.00000000000E+00 0. -1.
         -5    1    5    5    0  501  0.94241087397E+00  0.34899140753E+02 -0.19062484813E+02  0.40053794961E+02  0.47000000000E+01 0.  1.
         11    1    6    6    0    0 -0.18896771834E+02  0.68087334414E+02 -0.24410651123E+03  0.25412784562E+03  0.00000000000E+00 0. -1.
        -12    1    6    6    0    0  0.19692645223E+02  0.53988976326E+02 -0.47878940315E+03  0.48222598687E+03  0.00000000000E+00 0.  1.
</event>
<event>
12    1  0.2576962E-002  0.1889006E+03  0.7818608E-02  0.1159457E+00
          1   -1    0    0  502    0  0.00000000000E+00  0.00000000000E+00  0.30237418506E+04  0.30237418506E+04  0.00000000000E+00 0. -1.
         -1   -1    0    0    0  501 -0.00000000000E+00 -0.00000000000E+00 -0.14054954467E+02  0.14054954467E+02  0.00000000000E+00 0.  1.
          6    2    1    2  502    0 -0.51569653310E+02  0.59303200662E+02  0.21140005887E+04  0.21224357444E+04  0.17192644186E+03 0.  0.
         24    2    3    3    0    0 -0.82159333156E+01  0.59762646866E+02  0.64784934721E+03  0.65563606176E+03  0.80689486785E+02 0.  0.
         -6    2    1    2    0  501  0.51569653310E+02 -0.59303200662E+02  0.89568630741E+03  0.91536106062E+03  0.17162637115E+03 0.  0.
        -24    2    5    5    0    0  0.22689980600E+02  0.11914954098E+02  0.22274669765E+03  0.23803110451E+03  0.79911914322E+02 0.  0.
          5    1    3    3  502    0 -0.43353719994E+02 -0.45944620345E+00  0.14661512415E+04  0.14667996827E+04  0.47000000000E+01 0. -1.
        -11    1    4    4    0    0  0.21526541499E+02  0.11923087365E+02  0.56711526417E+02  0.61820297878E+02  0.00000000000E+00 0.  1.
         12    1    4    4    0    0 -0.29742474814E+02  0.47839559501E+02  0.59113782079E+03  0.59381576388E+03  0.00000000000E+00 0. -1.
         -5    1    5    5    0  501  0.28879672709E+02 -0.71218154761E+02  0.67293960976E+03  0.67732995611E+03  0.47000000000E+01 0.  1.
         13    1    6    6    0    0  0.53558398313E+01  0.17400371734E+02  0.21863357683E+03  0.21939028892E+03  0.00000000000E+00 0. -1.
        -14    1    6    6    0    0  0.17334140769E+02 -0.54854176360E+01  0.41131208175E+01  0.18640815586E+02  0.00000000000E+00 0.  1.
</event>
<event>
12    1  0.2576962E-002  0.2515413E+03  0.7818608E-02  0.1112335E+00
          2   -1    0    0  502    0  0.00000000000E+00  0.00000000000E+00  0.10360671088E+04  0.10360671088E+04  0.00000000000E+00 0. -1.
         -2   -1    0    0    0  501 -0.00000000000E+00 -0.00000000000E+00 -0.61111308934E+02  0.61111308934E+02  0.00000000000E+00 0.  1.
          6    2    1    2  502    0  0.14115091905E+03 -0.11652172357E+03  0.50177356591E+03  0.56131647181E+03  0.17262264066E+03 0.  0.
         24    2    3    3    0    0  0.73614087250E+02  0.81129119582E+01  0.25522433508E+03  0.27688083894E+03  0.77708973579E+02 0.  0.
         -6    2    1    2    0  501 -0.14115091905E+03  0.11652172357E+03  0.47318223396E+03  0.53586194593E+03  0.17246943074E+03 0.  0.
        -24    2    5    5    0    0 -0.69020191893E+02  0.24924055146E+02  0.34894262986E+03  0.36541974490E+03  0.79910172183E+02 0.  0.
          5    1    3    3  502    0  0.67536831805E+02 -0.12463463553E+03  0.24654923083E+03  0.28443563287E+03  0.47000000000E+01 0. -1.
        -11    1    4    4    0    0 -0.11932198074E+02  0.14723161422E+02  0.26389817129E+02  0.32489556495E+02  0.00000000000E+00 0.  1.
         12    1    4    4    0    0  0.85546285324E+02 -0.66102494640E+01  0.22883451795E+03  0.24439128245E+03  0.00000000000E+00 0. -1.
         -5    1    5    5    0  501 -0.72130727162E+02  0.91597668426E+02  0.12423960410E+03  0.17044220102E+03  0.47000000000E+01 0.  1.
         11    1    6    6    0    0 -0.22417916342E+01  0.34165926705E+02  0.18526569255E+03  0.18840305999E+03  0.00000000000E+00 0. -1.
        -12    1    6    6    0    0 -0.66778400259E+02 -0.92418715593E+01  0.16367693731E+03  0.17701668492E+03  0.00000000000E+00 0.  1.
</event>
<event>
12    1  0.2576962E-002  0.2040095E+03  0.7818608E-02  0.1146400E+00
         -2   -1    0    0    0  501 -0.00000000000E+00  0.00000000000E+00  0.17365185203E+03  0.17365185203E+03  0.00000000000E+00 0.  1.
          2   -1    0    0  502    0  0.00000000000E+00 -0.00000000000E+00 -0.10336843347E+04  0.10336843347E+04  0.00000000000E+00 0. -1.
          6    2    1    2  502    0  0.70590026507E+02  0.59037467216E+02  0.10363486879E+03  0.22012633278E+03  0.17101766569E+03 0.  0.
         24    2    3    3    0    0  0.10495840139E+03  0.78687899145E+02  0.86169384198E+02  0.17660096295E+03  0.80961014373E+02 0.  0.
         -6    2    1    2    0  501 -0.70590026507E+02 -0.59037467216E+02 -0.96366735143E+03  0.98720985392E+03  0.19354626603E+03 0.  0.
        -24    2    5    5    0    0 -0.48044764827E+02 -0.88119455755E+02 -0.92417276987E+03  0.93302532796E+03  0.79797344108E+02 0.  0.
          5    1    3    3  502    0 -0.34368374881E+02 -0.19650431929E+02  0.17465484589E+02  0.43525369831E+02  0.47000000000E+01 0. -1.
        -13    1    4    4    0    0  0.20611118472E+02  0.30213024959E+02 -0.11902642174E+02  0.38461902872E+02  0.00000000000E+00 0.  1.
         14    1    4    4    0    0  0.84347282917E+02  0.48474874186E+02  0.98072026372E+02  0.13813906008E+03  0.00000000000E+00 0. -1.
         -5    1    5    5    0  501 -0.22545261680E+02  0.29081988540E+02 -0.39494581553E+02  0.54184525961E+02  0.47000000000E+01 0.  1.
         11    1    6    6    0    0 -0.70568654514E+02 -0.68542007602E+02 -0.70645794002E+03  0.71327467558E+03  0.00000000000E+00 0. -1.
        -12    1    6    6    0    0  0.22523889687E+02 -0.19577448153E+02 -0.21771482985E+03  0.21975065238E+03  0.00000000000E+00 0.  1.
</event>
<event>
12    1  0.2576962E-002  0.2391648E+03  0.7818608E-02  0.1120350E+00
         -2   -1    0    0    0  501 -0.00000000000E+00  0.00000000000E+00  0.41563712416E+02  0.41563712416E+02  0.00000000000E+00 0. -1.
          2   -1    0    0  502    0  0.00000000000E+00 -0.00000000000E+00 -0.15334679599E+04  0.15334679599E+04  0.00000000000E+00 0.  1.
          6    2    1    2  502    0 -0.16005324123E+03  0.43999227659E+02 -0.49402680906E+03  0.54891668792E+03  0.17231967428E+03 0.  0.
         24    2    3    3    0    0 -0.46295684186E+02  0.26368182474E+02 -0.98686706482E+02  0.13713091565E+03  0.78912930305E+02 0.  0.
         -6    2    1    2    0  501  0.16005324123E+03 -0.43999227659E+02 -0.99787743841E+03  0.10261149844E+04  0.17204536327E+03 0.  0.
        -24    2    5    5    0    0  0.16596191602E+03 -0.63072796899E+02 -0.97763732897E+03  0.99729718586E+03  0.85471601506E+02 0.  0.
          5    1    3    3  502    0 -0.11375755704E+03  0.17631045185E+02 -0.39534010258E+03  0.41178577227E+03  0.47000000000E+01 0. -1.
        -13    1    4    4    0    0  0.16475268848E+02  0.26203621562E+02 -0.21721113860E+02  0.37813635819E+02  0.00000000000E+00 0.  1.
         14    1    4    4    0    0 -0.62770953035E+02  0.16456091270E+00 -0.76965592622E+02  0.99317279830E+02  0.00000000000E+00 0. -1.
         -5    1    5    5    0  501 -0.59086747882E+01  0.19073569239E+02 -0.20240109447E+02  0.28817798523E+02  0.47000000000E+01 0.  1.
         11    1    6    6    0    0  0.52254502980E+02  0.15842234461E+02 -0.19432757488E+03  0.20185320367E+03  0.00000000000E+00 0. -1.
        -12    1    6    6    0    0  0.11370741304E+03 -0.78915031360E+02 -0.78330975409E+03  0.79544398219E+03  0.00000000000E+00 0.  1.
</event>
<event>
12    1  0.2576962E-002  0.3496365E+03  0.7818608E-02  0.1062764E+00
          1   -1    0    0  502    0  0.00000000000E+00  0.00000000000E+00  0.12618891064E+04  0.12618891064E+04  0.00000000000E+00 0. -1.
         -1   -1    0    0    0  501 -0.00000000000E+00 -0.00000000000E+00 -0.16689734028E+03  0.16689734028E+03  0.00000000000E+00 0.  1.
          6    2    1    2  502    0 -0.26021454462E+03  0.15864119729E+03  0.10102991440E+04  0.10691136621E+04  0.17152557708E+03 0.  0.
         24    2    3    3    0    0 -0.20721140678E+03  0.14320568977E+03  0.95478651619E+03  0.99068325124E+03  0.79947333355E+02 0.  0.
         -6    2    1    2    0  501  0.26021454462E+03 -0.15864119729E+03  0.84692622133E+02  0.35967278452E+03  0.17121049317E+03 0.  0.
        -24    2    5    5    0    0  0.13829932252E+03 -0.14433102471E+02  0.49283993165E+02  0.16748756918E+03  0.79297899028E+02 0.  0.
          5    1    3    3  502    0 -0.53003137832E+02  0.15435507515E+02  0.55512627769E+02  0.78430410901E+02  0.47000000000E+01 0. -1.
        -13    1    4    4    0    0 -0.28265649193E+02  0.60701474649E+02  0.22365254412E+03  0.23346108121E+03  0.00000000000E+00 0.  1.
         14    1    4    4    0    0 -0.17894575759E+03  0.82504215123E+02  0.73113397207E+03  0.75722217004E+03  0.00000000000E+00 0. -1.
         -5    1    5    5    0  501  0.12191522209E+03 -0.14420809482E+03  0.35408628968E+02  0.19218521534E+03  0.47000000000E+01 0.  1.
         11    1    6    6    0    0  0.11706650247E+03  0.18835727540E+02  0.25098076992E+02  0.12119927435E+03  0.00000000000E+00 0. -1.
        -12    1    6    6    0    0  0.21232820052E+02 -0.33268830012E+02  0.24185916172E+02  0.46288294836E+02  0.00000000000E+00 0.  1.
</event>
<event>
12    1  0.2576962E-002  0.2591786E+03  0.7818608E-02  0.1107638E+00
          2   -1    0    0  502    0  0.00000000000E+00  0.00000000000E+00  0.59601385425E+03  0.59601385425E+03  0.00000000000E+00 0.  1.
         -2   -1    0    0    0  501 -0.00000000000E+00 -0.00000000000E+00 -0.11371720936E+03  0.11371720936E+03  0.00000000000E+00 0. -1.
          6    2    1    2  502    0  0.19000864408E+03 -0.36925871079E+02  0.20795832298E+03  0.33254360482E+03  0.17283454583E+03 0.  0.
         24    2    3    3    0    0  0.94303895649E+02 -0.92817222386E+01  0.19629415970E+03  0.23213573390E+03  0.79851278757E+02 0.  0.
         -6    2    1    2    0  501 -0.19000864408E+03  0.36925871079E+02  0.27433832192E+03  0.37718745879E+03  0.17187803646E+03 0.  0.
        -24    2    5    5    0    0 -0.99122309532E+02  0.84277961660E+02  0.13445358118E+03  0.20371591362E+03  0.80587845883E+02 0.  0.
          5    1    3    3  502    0  0.95704748431E+02 -0.27644148840E+02  0.11664163277E+02  0.10040787092E+03  0.47000000000E+01 0. -1.
        -11    1    4    4    0    0  0.12699148561E+02 -0.27282726693E+02  0.10101257378E+03  0.10539997918E+03  0.00000000000E+00 0.  1.
         12    1    4    4    0    0  0.81604747088E+02  0.18001004454E+02  0.95281585920E+02  0.12673575472E+03  0.00000000000E+00 0. -1.
         -5    1    5    5    0  501 -0.90886334548E+02 -0.47352090582E+02  0.13988474074E+03  0.17347154517E+03  0.47000000000E+01 0.  1.
         13    1    6    6    0    0 -0.12297512471E+02  0.56271556240E+02  0.76019096673E+02  0.95376202030E+02  0.00000000000E+00 0. -1.
        -14    1    6    6    0    0 -0.86824797061E+02  0.28006405421E+02  0.58434484502E+02  0.10833971159E+03  0.00000000000E+00 0.  1.
</event>
<event>
12    1  0.2576962E-002  0.1758539E+03  0.7818608E-02  0.1171877E+00
         -2   -1    0    0    0  501 -0.00000000000E+00  0.00000000000E+00  0.86966567870E+02  0.86966567870E+02  0.00000000000E+00 0.  1.
          2   -1    0    0  502    0  0.00000000000E+00 -0.00000000000E+00 -0.38714780015E+03  0.38714780015E+03  0.00000000000E+00 0. -1.
          6    2    1    2  502    0  0.24613500629E+02 -0.26063730599E+02 -0.82516081888E+02  0.19437206100E+03  0.17229756778E+03 0.  0.
         24    2    3    3    0    0  0.14591181700E+02  0.15833105666E+01  0.17924738680E+02  0.89609213589E+02  0.86562725509E+02 0.  0.
         -6    2    1    2    0  501 -0.24613500629E+02  0.26063730599E+02 -0.21766515039E+03  0.27974230702E+03  0.17202470222E+03 0.  0.
        -24    2    5    5    0    0 -0.79709471983E+02  0.36927854543E+02 -0.15989917790E+03  0.19904166993E+03  0.79577464836E+02 0.  0.
          5    1    3    3  502    0  0.10022318928E+02 -0.27647041166E+02 -0.10044082057E+03  0.10476284741E+03  0.47000000000E+01 0. -1.
        -11    1    4    4    0    0  0.38429826981E+02 -0.26559519438E+02  0.23525729054E+02  0.52304106933E+02  0.00000000000E+00 0.  1.
         12    1    4    4    0    0 -0.23838645280E+02  0.28142830005E+02 -0.56009903742E+01  0.37305106656E+02  0.00000000000E+00 0. -1.
         -5    1    5    5    0  501  0.55095971355E+02 -0.10864123944E+02 -0.57765972496E+02  0.80700637092E+02  0.47000000000E+01 0.  1.
         11    1    6    6    0    0 -0.28642691544E+02 -0.55079237635E+01 -0.11560010238E+03  0.11922300396E+03  0.00000000000E+00 0. -1.
        -12    1    6    6    0    0 -0.51066780440E+02  0.42435778306E+02 -0.44299075519E+02  0.79818665967E+02  0.00000000000E+00 0.  1.
</event>
<event>
12    1  0.2576962E-002  0.2026985E+03  0.7818608E-02  0.1147482E+00
         -1   -1    0    0    0  501 -0.00000000000E+00  0.00000000000E+00  0.12298396766E+03  0.12298396766E+03  0.00000000000E+00 0.  1.
          1   -1    0    0  502    0  0.00000000000E+00 -0.00000000000E+00 -0.45640107364E+03  0.45640107364E+03  0.00000000000E+00 0. -1.
          6    2    1    2  502    0 -0.13558892780E+01  0.10701628746E+03 -0.17328638497E+02  0.20441105987E+03  0.17328957115E+03 0.  0.
         24    2    3    3    0    0  0.54170123144E+02  0.10477377137E+03 -0.35870180263E+02  0.14563993002E+03  0.77539499442E+02 0.  0.
         -6    2    1    2    0  501  0.13558892780E+01 -0.10701628746E+03 -0.31608846749E+03  0.37497398142E+03  0.17099486322E+03 0.  0.
        -24    2    5    5    0    0  0.45420233005E+02 -0.10807173506E+03 -0.14736262921E+03  0.20052261610E+03  0.68928061033E+02 0.  0.
          5    1    3    3  502    0 -0.55526012422E+02  0.22425160827E+01  0.18541541766E+02  0.58771129859E+02  0.47000000000E+01 0. -1.
        -13    1    4    4    0    0  0.60349178517E+02  0.10550268198E+03 -0.13348218363E+02  0.12227433985E+03  0.00000000000E+00 0.  1.
         14    1    4    4    0    0 -0.61790553729E+01 -0.72891060621E+00 -0.22521961899E+02  0.23365590165E+02  0.00000000000E+00 0. -1.
         -5    1    5    5    0  501 -0.44064343727E+02  0.10554476016E+01 -0.16872583829E+03  0.17445136532E+03  0.47000000000E+01 0.  1.
         11    1    6    6    0    0  0.32166833683E+02 -0.38034246918E+02 -0.10837915136E+03  0.11927845395E+03  0.00000000000E+00 0. -1.
        -12    1    6    6    0    0  0.13253399322E+02 -0.70037488139E+02 -0.38983477844E+02  0.81244162148E+02  0.00000000000E+00 0.  1.
</event>
<event>
12    1  0.2576962E-002  0.2527420E+03  0.7818608E-02  0.1111584E+00
          1   -1    0    0  502    0  0.00000000000E+00  0.00000000000E+00  0.85407752675E+03  0.85407752675E+03  0.00000000000E+00 0. -1.
         -1   -1    0    0    0  501 -0.00000000000E+00 -0.00000000000E+00 -0.81155307054E+02  0.81155307054E+02  0.00000000000E+00 0.  1.
          6    2    1    2  502    0  0.66796740404E+02 -0.17336071968E+03  0.51641505793E+03  0.57464248616E+03  0.17033417504E+03 0.  0.
         24    2    3    3    0    0 -0.90506949773E+01 -0.50629074632E+02  0.16594920243E+03  0.19561175387E+03  0.89886607379E+02 0.  0.
         -6    2    1    2    0  501 -0.66796740404E+02  0.17336071968E+03  0.25650716176E+03  0.36059034764E+03  0.17237671281E+03 0.  0.
        -24    2    5    5    0    0 -0.46629029783E+01  0.17337610867E+03  0.18545272818E+03  0.26608406996E+03  0.79542442587E+02 0.  0.
          5    1    3    3  502    0  0.75847435382E+02 -0.12273164505E+03  0.35046585551E+03  0.37903073230E+03  0.47000000000E+01 0. -1.
        -11    1    4    4    0    0 -0.22209607017E+02 -0.63665910268E+02  0.67405030500E+02  0.95341768972E+02  0.00000000000E+00 0.  1.
         12    1    4    4    0    0  0.13158912040E+02  0.13036835636E+02  0.98544171928E+02  0.10026998489E+03  0.00000000000E+00 0. -1.
         -5    1    5    5    0  501 -0.62133837426E+02 -0.15388986549E-01  0.71054433583E+02  0.94506277685E+02  0.47000000000E+01 0.  1.
         13    1    6    6    0    0 -0.16477176194E+02  0.24855484953E+02  0.74719429452E+02  0.80450516500E+02  0.00000000000E+00 0. -1.
        -14    1    6    6    0    0  0.11814273216E+02  0.14852062372E+03  0.11073329873E+03  0.18563355346E+03  0.00000000000E+00 0.  1.
</event>
<event>
12    1  0.2576962E-002  0.1986420E+03  0.7818608E-02  0.1150890E+00
          1   -1    0    0  502    0  0.00000000000E+00  0.00000000000E+00  0.32064493594E+03  0.32064493594E+03  0.00000000000E+00 0. -1.
         -1   -1    0    0    0  501 -0.00000000000E+00 -0.00000000000E+00 -0.12494771879E+03  0.12494771879E+03  0.00000000000E+00 0.  1.
          6    2    1    2  502    0  0.28195313525E+02  0.91793837984E+02  0.12442589619E+03  0.23308802091E+03  0.17212535389E+03 0.  0.
         24    2    3    3    0    0 -0.44983880048E+02  0.78653936718E+02  0.59719949637E+02  0.13441279151E+03  0.79311631631E+02 0.  0.
         -6    2    1    2    0  501 -0.28195313525E+02 -0.91793837984E+02  0.71271320967E+02  0.21250463382E+03  0.17566312591E+03 0.  0.
        -24    2    5    5    0    0 -0.54764836428E+02  0.64721465523E+01  0.42229568345E+02  0.10654399651E+03  0.80791155201E+02 0.  0.
          5    1    3    3  502    0  0.73179193573E+02  0.13139901266E+02  0.64705946550E+02  0.98675229395E+02  0.47000000000E+01 0. -1.
        -11    1    4    4    0    0 -0.23478306343E+02 -0.12584780794E+02  0.11790482067E+02  0.29131135298E+02  0.00000000000E+00 0.  1.
         12    1    4    4    0    0 -0.21505573705E+02  0.91238717512E+02  0.47929467570E+02  0.10528165621E+03  0.00000000000E+00 0. -1.
         -5    1    5    5    0  501  0.26569522903E+02 -0.98265984536E+02  0.29041752622E+02  0.10596063731E+03  0.47000000000E+01 0.  1.
         13    1    6    6    0    0 -0.35479565171E+02 -0.14151801262E+02  0.61473070874E+02  0.72374107707E+02  0.00000000000E+00 0. -1.
        -14    1    6    6    0    0 -0.19285271257E+02  0.20623947814E+02 -0.19243502529E+02  0.34169888799E+02  0.00000000000E+00 0.  1.
</event>
<event>
12    1  0.2576962E-002  0.1872439E+03  0.7818608E-02  0.1160971E+00
         -2   -1    0    0    0  501 -0.00000000000E+00  0.00000000000E+00  0.55678049781E+03  0.55678049781E+03  0.00000000000E+00 0. -1.
          2   -1    0    0  502    0  0.00000000000E+00 -0.00000000000E+00 -0.11605510096E+03  0.11605510096E+03  0.00000000000E+00 0.  1.
          6    2    1    2  502    0  0.44427162964E+02  0.57377474380E+02 -0.72388062868E+01  0.18726848610E+03  0.17248518254E+03 0.  0.
         24    2    3    3    0    0  0.21191984038E+02  0.44902802386E+02  0.61829842985E+02  0.11318704920E+03  0.80765195313E+02 0.  0.
         -6    2    1    2    0  501 -0.44427162964E+02 -0.57377474380E+02  0.44796420313E+03  0.48556711267E+03  0.17273548055E+03 0.  0.
        -24    2    5    5    0    0 -0.75686083239E+02 -0.61915635940E+02  0.43105265867E+03  0.44943118396E+03  0.81363784335E+02 0.  0.
          5    1    3    3  502    0  0.23235178926E+02  0.12474671994E+02 -0.69068649272E+02  0.74081436901E+02  0.47000000000E+01 0. -1.
        -13    1    4    4    0    0  0.90803795754E+01  0.61959952270E+02  0.18867942015E+02  0.65402509236E+02  0.00000000000E+00 0.  1.
         14    1    4    4    0    0  0.12111604462E+02 -0.17057149884E+02  0.42961900970E+02  0.47784539966E+02  0.00000000000E+00 0. -1.
         -5    1    5    5    0  501  0.31258920275E+02  0.45381615601E+01  0.16911544458E+02  0.36135928700E+02  0.47000000000E+01 0.  1.
         11    1    6    6    0    0 -0.82486745978E+02 -0.33486340931E+02  0.38279466859E+03  0.39301037721E+03  0.00000000000E+00 0. -1.
        -12    1    6    6    0    0  0.68006627399E+01 -0.28429295009E+02  0.48257990081E+02  0.56420806757E+02  0.00000000000E+00 0.  1.
</event>
<event>
12    1  0.2576962E-002  0.2571561E+03  0.7818608E-02  0.1108864E+00
          2   -1    0    0  502    0  0.00000000000E+00  0.00000000000E+00  0.85924145251E+03  0.85924145251E+03  0.00000000000E+00 0. -1.
         -2   -1    0    0    0  501 -0.00000000000E+00 -0.00000000000E+00 -0.80233340572E+02  0.80233340572E+02  0.00000000000E+00 0.  1.
          6    2    1    2  502    0 -0.19104551836E+03  0.22719921786E+02  0.29327279105E+03  0.38941451251E+03  0.16917490256E+03 0.  0.
         24    2    3    3    0    0 -0.21071900926E+03  0.34745654537E+02  0.24189809051E+03  0.33290686393E+03  0.81868995891E+02 0.  0.
         -6    2    1    2    0  501  0.19104551836E+03 -0.22719921786E+02  0.48573532089E+03  0.55006028057E+03  0.17208406484E+03 0.  0.
        -24    2    5    5    0    0  0.10882360854E+03 -0.98692644771E+01  0.42808581329E+03  0.44871365965E+03  0.78399647011E+02 0.  0.
          5    1    3    3  502    0  0.19673490905E+02 -0.12025732752E+02  0.51374700541E+02  0.56507648582E+02  0.47000000000E+01 0. -1.
        -11    1    4    4    0    0 -0.13226329705E+03 -0.12106484813E+02  0.11003703671E+03  0.17247694388E+03  0.00000000000E+00 0.  1.
         12    1    4    4    0    0 -0.78455712208E+02  0.46852139350E+02  0.13186105379E+03  0.16042992005E+03  0.00000000000E+00 0. -1.
         -5    1    5    5    0  501  0.82221909815E+02 -0.12850657309E+02  0.57649507598E+02  0.10134662093E+03  0.47000000000E+01 0.  1.
         13    1    6    6    0    0  0.12126205458E+03 -0.11876138736E+02  0.39121716467E+03  0.40975163024E+03  0.00000000000E+00 0. -1.
        -14    1    6    6    0    0 -0.12438446035E+02  0.20068742586E+01  0.36868648624E+02  0.38962029406E+02  0.00000000000E+00 0.  1.
</event>
<event>
12    1  0.2576962E-002  0.1735457E+03  0.7818608E-02  0.1174200E+00
          1   -1    0    0  502    0  0.00000000000E+00  0.00000000000E+00  0.10205885544E+03  0.10205885544E+03  0.00000000000E+00 0. -1.
         -1   -1    0    0    0  501 -0.00000000000E+00 -0.00000000000E+00 -0.30720554871E+03  0.30720554871E+03  0.00000000000E+00 0.  1.
          6    2    1    2  502    0 -0.53483741177E+01  0.33393501244E+02 -0.62059081634E+02  0.18446979552E+03  0.17039379335E+03 0.  0.
         24    2    3    3    0    0  0.86696569441E+01 -0.29463355839E+02 -0.83173138376E+02  0.11653318485E+03  0.75623805339E+02 0.  0.
         -6    2    1    2    0  501  0.53483741177E+01 -0.33393501244E+02 -0.14308761164E+03  0.22479460864E+03  0.17004358394E+03 0.  0.
        -24    2    5    5    0    0 -0.71846023559E+01 -0.11569536208E+02 -0.14851513004E+01  0.80896353880E+02  0.79727923073E+02 0.  0.
          5    1    3    3  502    0 -0.14018031062E+02  0.62856857083E+02  0.21114056742E+02  0.67936610670E+02  0.47000000000E+01 0. -1.
        -11    1    4    4    0    0  0.88638914169E+01 -0.19873561344E+02 -0.97163542088E+02  0.99570482186E+02  0.00000000000E+00 0.  1.
         12    1    4    4    0    0 -0.19423447277E+00 -0.95897944948E+01  0.13990403712E+02  0.16962702659E+02  0.00000000000E+00 0. -1.
         -5    1    5    5    0  501  0.12532976474E+02 -0.21823965037E+02 -0.14160246034E+03  0.14389825476E+03  0.47000000000E+01 0.  1.
         13    1    6    6    0    0  0.30685064415E+02  0.14483174486E+02  0.55916207250E+01  0.34388977066E+02  0.00000000000E+00 0. -1.
        -14    1    6    6    0    0 -0.37869666771E+02 -0.26052710694E+02 -0.70767720254E+01  0.46507376814E+02  0.00000000000E+00 0.  1.
</event>
<event>
12    1  0.2576962E-002  0.1886914E+03  0.7818608E-02  0.1159647E+00
          2   -1    0    0  502    0  0.00000000000E+00  0.00000000000E+00  0.97706592833E+03  0.97706592833E+03  0.00000000000E+00 0. -1.
         -2   -1    0    0    0  501 -0.00000000000E+00 -0.00000000000E+00 -0.37975366257E+02  0.37975366257E+02  0.00000000000E+00 0.  1.
          6    2    1    2  502    0 -0.34407992768E+02  0.69491627200E+02  0.36746002030E+03  0.41306753133E+03  0.17200268225E+03 0.  0.
         24    2    3    3    0    0  0.36496946903E+02  0.79280564013E+02  0.23429530312E+03  0.26181190117E+03  0.77677201064E+02 0.  0.
         -6    2    1    2    0  501  0.34407992768E+02 -0.69491627200E+02  0.57163054177E+03  0.60197376326E+03  0.17204051601E+03 0.  0.
        -24    2    5    5    0    0  0.41129585948E+02 -0.91384545547E+02  0.56281459257E+03  0.57698795431E+03  0.78179637998E+02 0.  0.
          5    1    3    3  502    0 -0.70904939671E+02 -0.97889368127E+01  0.13316471718E+03  0.15125563016E+03  0.47000000000E+01 0. -1.
        -11    1    4    4    0    0 -0.12826852907E+01  0.48577840124E+02  0.44564859757E+02  0.65935412017E+02  0.00000000000E+00 0.  1.
         12    1    4    4    0    0  0.37779632193E+02  0.30702723888E+02  0.18973044336E+03  0.19587648915E+03  0.00000000000E+00 0. -1.
         -5    1    5    5    0  501 -0.67215931798E+01  0.21892918347E+02  0.88159491968E+01  0.24985808950E+02  0.47000000000E+01 0.  1.
         11    1    6    6    0    0 -0.17363045214E+02 -0.19033020356E+02  0.22918735956E+03  0.23063082401E+03  0.00000000000E+00 0. -1.
        -12    1    6    6    0    0  0.58492631161E+02 -0.72351525191E+02  0.33362723302E+03  0.34635713030E+03  0.00000000000E+00 0.  1.
</event>
<event>
12    1  0.2576962E-002  0.2861862E+03  0.7818608E-02  0.1092357E+00
         -1   -1    0    0    0  501 -0.00000000000E+00  0.00000000000E+00  0.23726222279E+03  0.23726222279E+03  0.00000000000E+00 0. -1.
          1   -1    0    0  502    0  0.00000000000E+00 -0.00000000000E+00 -0.59944033223E+03  0.59944033223E+03  0.00000000000E+00 0.  1.
          6    2    1    2  502    0  0.18654877912E+02  0.22796263520E+03  0.91363205893E+02  0.30041801312E+03  0.17201389391E+03 0.  0.
         24    2    3    3    0    0 -0.30243040634E+02  0.21691671469E+03  0.89705988509E+02  0.25004088371E+03  0.80658394076E+02 0.  0.
         -6    2    1    2    0  501 -0.18654877912E+02 -0.22796263520E+03 -0.45354131534E+03  0.53628454190E+03  0.17200702788E+03 0.  0.
        -24    2    5    5    0    0  0.55422422712E+02 -0.13155334914E+03 -0.26968368036E+03  0.31581251001E+03  0.81426810164E+02 0.  0.
          5    1    3    3  502    0  0.48897918546E+02  0.11045920513E+02  0.16572173839E+01  0.50377129410E+02  0.47000000000E+01 0. -1.
        -11    1    4    4    0    0  0.21281133351E+02  0.10180998758E+03  0.19896605536E+02  0.10589634139E+03  0.00000000000E+00 0.  1.
         12    1    4    4    0    0 -0.51524173985E+02  0.11510672711E+03  0.69809382972E+02  0.14414454232E+03  0.00000000000E+00 0. -1.
         -5    1    5    5    0  501 -0.74077300624E+02 -0.96409286062E+02 -0.18385763498E+03  0.22047203189E+03  0.47000000000E+01 0.  1.
         11    1    6    6    0    0  0.12527558430E+02 -0.11679877983E+03 -0.17425974788E+03  0.21015554816E+03  0.00000000000E+00 0. -1.
        -12    1    6    6    0    0  0.42894864282E+02 -0.14754569315E+02 -0.95423932477E+02  0.10565696185E+03  0.00000000000E+00 0.  1.
</event>
<event>
12    1  0.2576962E-002  0.3664014E+03  0.7818608E-02  0.1056078E+00
         -2   -1    0    0    0  501 -0.00000000000E+00  0.00000000000E+00  0.32340036357E+03  0.32340036357E+03  0.00000000000E+00 0.  1.
          2   -1    0    0  502    0  0.00000000000E+00 -0.00000000000E+00 -0.42196607843E+03  0.42196607843E+03  0.00000000000E+00 0. -1.
          6    2    1    2  502    0 -0.55049095907E+02 -0.31927751656E+03 -0.18793657848E+01  0.36689223555E+03  0.17215645486E+03 0.  0.
         24    2    3    3    0    0  0.17689282309E+02 -0.10660580256E+03 -0.37142994975E+02  0.13932742468E+03  0.79717133324E+02 0.  0.
         -6    2    1    2    0  501  0.55049095907E+02  0.31927751656E+03 -0.96686349071E+02  0.37847420646E+03  0.17007627500E+03 0.  0.
        -24    2    5    5    0    0 -0.77381443748E+01  0.27166786198E+03 -0.58794986906E+02  0.29091415805E+03  0.85503747019E+02 0.  0.
          5    1    3    3  502    0 -0.72738378216E+02 -0.21267171400E+03  0.35263629190E+02  0.22756481087E+03  0.47000000000E+01 0. -1.
        -11    1    4    4    0    0  0.18074845249E+01 -0.81491813537E+01  0.21895850184E+02  0.23432977027E+02  0.00000000000E+00 0.  1.
         12    1    4    4    0    0  0.15881797784E+02 -0.98456621203E+02 -0.59038845159E+02  0.11589444765E+03  0.00000000000E+00 0. -1.
         -5    1    5    5    0  501  0.62787240282E+02  0.47609654573E+02 -0.37891362165E+02  0.87560048410E+02  0.47000000000E+01 0.  1.
         11    1    6    6    0    0  0.78840794665E+01  0.70082682216E+02 -0.53731355897E+02  0.88661150806E+02  0.00000000000E+00 0. -1.
        -12    1    6    6    0    0 -0.15622223841E+02  0.20158517977E+03 -0.50636310091E+01  0.20225300724E+03  0.00000000000E+00 0.  1.
</event>
<event>
12    1  0.2576962E-002  0.2252517E+03  0.7818608E-02  0.1130027E+00
          2   -1    0    0  502    0  0.00000000000E+00  0.00000000000E+00  0.17397811264E+03  0.17397811264E+03  0.00000000000E+00 0. -1.
         -2   -1    0    0    0  501 -0.00000000000E+00 -0.00000000000E+00 -0.29165035420E+03  0.29165035420E+03  0.00000000000E+00 0.  1.
          6    2    1    2  502    0  0.27695141152E+02  0.14093050996E+03 -0.57511132570E+02  0.23128208634E+03  0.17191696720E+03 0.  0.
         24    2    3    3    0    0  0.76064383994E+02  0.58850554132E+02 -0.52241047139E+02  0.13574902085E+03  0.80308725687E+02 0.  0.
         -6    2    1    2    0  501 -0.27695141152E+02 -0.14093050996E+03 -0.60161108986E+02  0.23434638050E+03  0.17512977342E+03 0.  0.
        -24    2    5    5    0    0 -0.14288259072E+02 -0.15278055600E+03 -0.82275903409E+01  0.17921609448E+03  0.92220727802E+02 0.  0.
          5    1    3    3  502    0 -0.48369242843E+02  0.82079955827E+02 -0.52700854310E+01  0.95533065492E+02  0.47000000000E+01 0. -1.
        -13    1    4    4    0    0  0.67899024331E+02  0.78509402420E+02 -0.46244024655E+02  0.11363324157E+03  0.00000000000E+00 0.  1.
         14    1    4    4    0    0  0.81653596634E+01 -0.19658848289E+02 -0.59970224841E+01  0.22115779279E+02  0.00000000000E+00 0. -1.
         -5    1    5    5    0  501 -0.13406882080E+02  0.11850046044E+02 -0.51933518645E+02  0.55130286025E+02  0.47000000000E+01 0.  1.
         11    1    6    6    0    0 -0.43427119806E+02 -0.46865978834E+02  0.17797381980E+02  0.66325572082E+02  0.00000000000E+00 0. -1.
        -12    1    6    6    0    0  0.29138860735E+02 -0.10591457717E+03 -0.26024972321E+02  0.11289052239E+03  0.00000000000E+00 0.  1.
</event>
<event>
12    1  0.2576962E-002  0.1944552E+03  0.7818608E-02  0.1154503E+00
          2   -1    0    0  502    0  0.00000000000E+00  0.00000000000E+00  0.93379900167E+03  0.93379900167E+03  0.00000000000E+00 0. -1.
         -2   -1    0    0    0  501 -0.00000000000E+00 -0.00000000000E+00 -0.42174599280E+02  0.42174599280E+02  0.00000000000E+00 0.  1.
          6    2    1    2  502    0  0.62537007326E+02  0.66870770588E+02  0.34853708359E+03  0.39914606638E+03  0.17163014427E+03 0.  0.
         24    2    3    3    0    0  0.98977631904E+02  0.74709046743E+02  0.21849733060E+03  0.26378807787E+03  0.80405554962E+02 0.  0.
         -6    2    1    2    0  501 -0.62537007326E+02 -0.66870770588E+02  0.54308731880E+03  0.57682753458E+03  0.17147475486E+03 0.  0.
        -24    2    5    5    0    0 -0.87248875003E+02 -0.14453223557E+02  0.45985771101E+03  0.47530151203E+03  0.81370455948E+02 0.  0.
          5    1    3    3  502    0 -0.36440624578E+02 -0.78382761548E+01  0.13003975299E+03  0.13535798850E+03  0.47000000000E+01 0. -1.
        -11    1    4    4    0    0  0.14070308185E+02  0.35162691626E+01 -0.41563076217E+01  0.15086835795E+02  0.00000000000E+00 0.  1.
         12    1    4    4    0    0  0.84907323719E+02  0.71192777581E+02  0.22265363822E+03  0.24870124208E+03  0.00000000000E+00 0. -1.
         -5    1    5    5    0  501  0.24711867677E+02 -0.52417547031E+02  0.83229607795E+02  0.10152602255E+03  0.47000000000E+01 0.  1.
         11    1    6    6    0    0 -0.51021864657E+02 -0.48193871837E+02  0.29036851486E+03  0.29873023680E+03  0.00000000000E+00 0. -1.
        -12    1    6    6    0    0 -0.36227010345E+02  0.33740648280E+02  0.16948919615E+03  0.17657127523E+03  0.00000000000E+00 0.  1.
</event>
<event>
12    1  0.2576962E-002  0.3233878E+03  0.7818608E-02  0.1074101E+00
         -2   -1    0    0    0  501 -0.00000000000E+00  0.00000000000E+00  0.53806274907E+03  0.53806274907E+03  0.00000000000E+00 0. -1.
          2   -1    0    0  502    0  0.00000000000E+00 -0.00000000000E+00 -0.20170076641E+03  0.20170076641E+03  0.00000000000E+00 0.  1.
          6    2    1    2  502    0 -0.13559712537E+03 -0.23772314976E+03  0.97591232525E+02  0.33771180388E+03  0.17212303005E+03 0.  0.
         24    2    3    3    0    0 -0.39668824356E+02 -0.20017586634E+03  0.76943851683E+02  0.23254316899E+03  0.80696815575E+02 0.  0.
         -6    2    1    2    0  501  0.13559712537E+03  0.23772314976E+03  0.23877075013E+03  0.40205171159E+03  0.17243906557E+03 0.  0.
        -24    2    5    5    0    0  0.14313457330E+03  0.25765057341E+03  0.21738966242E+03  0.37150410536E+03  0.62335470798E+02 0.  0.
          5    1    3    3  502    0 -0.95928301017E+02 -0.37547283425E+02  0.20647380841E+02  0.10516863489E+03  0.47000000000E+01 0. -1.
        -13    1    4    4    0    0 -0.41721254103E+01 -0.41665251844E+01 -0.12777326124E+02  0.14072193341E+02  0.00000000000E+00 0.  1.
         14    1    4    4    0    0 -0.35496698946E+02 -0.19600934115E+03  0.89721177807E+02  0.21847097565E+03  0.00000000000E+00 0. -1.
         -5    1    5    5    0  501 -0.75374479278E+01 -0.19927423651E+02  0.21381087719E+02  0.30547606235E+02  0.47000000000E+01 0.  1.
         13    1    6    6    0    0  0.15628895147E+02  0.66897857390E+02  0.73836324125E+02  0.10085330162E+03  0.00000000000E+00 0. -1.
        -14    1    6    6    0    0  0.12750567815E+03  0.19075271602E+03  0.14355333829E+03  0.27065080374E+03  0.00000000000E+00 0.  1.
</event>
<event>
12    1  0.2576962E-002  0.2148744E+03  0.7818608E-02  0.1137763E+00
         -2   -1    0    0    0  501 -0.00000000000E+00  0.00000000000E+00  0.91603623202E+02  0.91603623202E+02  0.00000000000E+00 0.  1.
          2   -1    0    0  502    0  0.00000000000E+00 -0.00000000000E+00 -0.52081412518E+03  0.52081412518E+03  0.00000000000E+00 0. -1.
          6    2    1    2  502    0  0.12493197969E+03 -0.14323210592E+02 -0.26852052726E+03  0.34324527971E+03  0.17291875136E+03 0.  0.
         24    2    3    3    0    0  0.99145650432E+02  0.41974615002E+02 -0.24103747257E+03  0.27533513143E+03  0.78221756033E+02 0.  0.
         -6    2    1    2    0  501 -0.12493197969E+03  0.14323210592E+02 -0.16068997472E+03  0.26917246867E+03  0.17555453855E+03 0.  0.
        -24    2    5    5    0    0 -0.22324597891E+01 -0.25720034969E+02 -0.40941289531E+02  0.93046175058E+02  0.79466328901E+02 0.  0.
          5    1    3    3  502    0  0.25786329258E+02 -0.56297825595E+02 -0.27483054695E+02  0.67910148274E+02  0.47000000000E+01 0. -1.
        -11    1    4    4    0    0  0.33224519056E+02  0.53926863443E+01 -0.14622685258E+02  0.36698401282E+02  0.00000000000E+00 0.  1.
         12    1    4    4    0    0  0.65921131376E+02  0.36581928658E+02 -0.22641478731E+03  0.23863673015E+03  0.00000000000E+00 0. -1.
         -5    1    5    5    0  501 -0.12269951990E+03  0.40043245561E+02 -0.11974868519E+03  0.17612629362E+03  0.47000000000E+01 0.  1.
         13    1    6    6    0    0 -0.26575292731E+02 -0.44400770857E+02 -0.32920813417E+02  0.61330698614E+02  0.00000000000E+00 0. -1.
        -14    1    6    6    0    0  0.24342832942E+02  0.18680735889E+02 -0.80204761139E+01  0.31715476444E+02  0.00000000000E+00 0.  1.
</event>
<event>
12    1  0.2576962E-002  0.4801738E+03  0.7818608E-02  0.1019087E+00
          1   -1    0    0  502    0  0.00000000000E+00  0.00000000000E+00  0.55225808462E+03  0.55225808462E+03  0.00000000000E+00 0.  1.
         -1   -1    0    0    0  501 -0.00000000000E+00 -0.00000000000E+00 -0.64975057708E+03  0.64975057708E+03  0.00000000000E+00 0. -1.
          6    2    1    2  502    0 -0.41816779105E+03  0.15985849508E+03 -0.40802296415E+03  0.62959821972E+03  0.17173275483E+03 0.  0.
         24    2    3    3    0    0 -0.21302787067E+03  0.11774516353E+03 -0.14901111809E+03  0.29648390597E+03  0.80334276412E+02 0.  0.
         -6    2    1    2    0  501  0.41816779105E+03 -0.15985849508E+03  0.31053047169E+03  0.57241044197E+03  0.17551495750E+03 0.  0.
        -24    2    5    5    0    0  0.25451507159E+03 -0.38312965223E+02  0.12726494870E+03  0.29825014154E+03  0.80690611537E+02 0.  0.
          5    1    3    3  502    0 -0.20513992038E+03  0.42113331552E+02 -0.25901184606E+03  0.33311431375E+03  0.47000000000E+01 0. -1.
        -13    1    4    4    0    0 -0.39722679523E+02  0.43031382659E+02 -0.44048680404E+01  0.58728136565E+02  0.00000000000E+00 0.  1.
         14    1    4    4    0    0 -0.17330519115E+03  0.74713780871E+02 -0.14460625005E+03  0.23775576941E+03  0.00000000000E+00 0. -1.
         -5    1    5    5    0  501  0.16365271946E+03 -0.12154552986E+03  0.18326552299E+03  0.27416030043E+03  0.47000000000E+01 0.  1.
         13    1    6    6    0    0  0.48457596662E+02 -0.10001844474E+01 -0.77585833346E+01  0.49084973857E+02  0.00000000000E+00 0. -1.
        -14    1    6    6    0    0  0.20605747492E+03 -0.37312780775E+02  0.13502353204E+03  0.24916516768E+03  0.00000000000E+00 0.  1.
</event>
<event>
12    1  0.2576962E-002  0.1904464E+03  0.7818608E-02  0.1158059E+00
          3   -1    0    0  502    0  0.00000000000E+00  0.00000000000E+00  0.18342583297E+04  0.18342583297E+04  0.00000000000E+00 0. -1.
         -3   -1    0    0    0  501 -0.00000000000E+00 -0.00000000000E+00 -0.47224324311E+02  0.47224324311E+02  0.00000000000E+00 0.  1.
          6    2    1    2  502    0  0.65222188268E+02 -0.35155527569E+02  0.18168435916E+03  0.26519073107E+03  0.17840143643E+03 0.  0.
         24    2    3    3    0    0  0.23345448160E+02  0.14654821785E+02  0.13090075188E+02  0.84412262074E+02  0.78703914571E+02 0.  0.
         -6    2    1    2    0  501 -0.65222188268E+02  0.35155527569E+02  0.16053496462E+04  0.16162919229E+04  0.17251738624E+03 0.  0.
        -24    2    5    5    0    0 -0.72186196964E+02 -0.35414683279E+00  0.15155819304E+04  0.15193911118E+04  0.79685572212E+02 0.  0.
          5    1    3    3  502    0  0.41876740108E+02 -0.49810349354E+02  0.16859428397E+03  0.18077846900E+03  0.47000000000E+01 0. -1.
        -13    1    4    4    0    0 -0.29268087674E+02  0.30778381997E+01  0.64975246969E+01  0.30138212808E+02  0.00000000000E+00 0.  1.
         14    1    4    4    0    0  0.52613535833E+02  0.11576983585E+02  0.65925504914E+01  0.54274049267E+02  0.00000000000E+00 0. -1.
         -5    1    5    5    0  501  0.69640086962E+01  0.35509674402E+02  0.89767715778E+02  0.96900811086E+02  0.47000000000E+01 0.  1.
         13    1    6    6    0    0 -0.16039455911E+02  0.35847693443E+02  0.44644721026E+03  0.44817120927E+03  0.00000000000E+00 0. -1.
        -14    1    6    6    0    0 -0.56146741054E+02 -0.36201840276E+02  0.10691347202E+04  0.10712199026E+04  0.00000000000E+00 0.  1.
</event>
<event>
12    1  0.2576962E-002  0.1773856E+03  0.7818608E-02  0.1170357E+00
          1   -1    0    0  502    0  0.00000000000E+00  0.00000000000E+00  0.30015042535E+04  0.30015042535E+04  0.00000000000E+00 0. -1.
         -1   -1    0    0    0  501 -0.00000000000E+00 -0.00000000000E+00 -0.11112967853E+02  0.11112967853E+02  0.00000000000E+00 0.  1.
          6    2    1    2  502    0 -0.97406154539E+01  0.41315840090E+02  0.11367543973E+04  0.11505134931E+04  0.17224650915E+03 0.  0.
         24    2    3    3    0    0  0.30884142042E+02  0.54966008016E+02  0.41244089796E+03  0.42491799060E+03  0.80453167460E+02 0.  0.
         -6    2    1    2    0  501  0.97406154539E+01 -0.41315840090E+02  0.18536368884E+04  0.18621037282E+04  0.17221702154E+03 0.  0.
        -24    2    5    5    0    0  0.14652676208E+02 -0.44083614227E+02  0.18523583235E+04  0.18546529804E+04  0.79675925332E+02 0.  0.
          5    1    3    3  502    0 -0.40624757496E+02 -0.13650167926E+02  0.72431349930E+03  0.72559550252E+03  0.47000000000E+01 0. -1.
        -11    1    4    4    0    0  0.10157665148E+02  0.66523862653E+02  0.19705958277E+03  0.20823323852E+03  0.00000000000E+00 0.  1.
         12    1    4    4    0    0  0.20726476894E+02 -0.11557854637E+02  0.21538131520E+03  0.21668475208E+03  0.00000000000E+00 0. -1.
         -5    1    5    5    0  501 -0.49120607539E+01  0.27677741364E+01  0.12785648218E+01  0.74507477828E+01  0.47000000000E+01 0.  1.
         13    1    6    6    0    0 -0.26152132742E+02 -0.27177437440E+02  0.12943249860E+04  0.12948744019E+04  0.00000000000E+00 0. -1.
        -14    1    6    6    0    0  0.40804808950E+02 -0.16906176787E+02  0.55803333748E+03  0.55977857854E+03  0.00000000000E+00 0.  1.
</event>
<event>
12    1  0.2576962E-002  0.3156490E+03  0.7818608E-02  0.1077669E+00
         -1   -1    0    0    0  501 -0.00000000000E+00  0.00000000000E+00  0.56367572396E+02  0.56367572396E+02  0.00000000000E+00 0. -1.
          1   -1    0    0  502    0  0.00000000000E+00 -0.00000000000E+00 -0.18982153266E+04  0.18982153266E+04  0.00000000000E+00 0.  1.
          6    2    1    2  502    0 -0.46402957504E+02  0.25995072601E+03 -0.66516374852E+03  0.73635604444E+03  0.17334877389E+03 0.  0.
         24    2    3    3    0    0 -0.84748085456E+02  0.14769925400E+03 -0.34486827315E+03  0.39476853976E+03  0.88942490060E+02 0.  0.
         -6    2    1    2    0  501  0.46402957504E+02 -0.25995072601E+03 -0.11766840057E+04  0.12182268546E+04  0.17252189870E+03 0.  0.
        -24    2    5    5    0    0  0.17209663295E+02 -0.59393384751E+02 -0.24494200745E+03  0.26468569823E+03  0.78982182600E+02 0.  0.
          5    1    3    3  502    0  0.38345127951E+02  0.11225147201E+03 -0.32029547537E+03  0.34158750468E+03  0.47000000000E+01 0. -1.
        -11    1    4    4    0    0 -0.17293173866E+02  0.28123963385E+02 -0.16618593710E+03  0.16943369461E+03  0.00000000000E+00 0.  1.
         12    1    4    4    0    0 -0.67454911590E+02  0.11957529062E+03 -0.17868233605E+03  0.22533484515E+03  0.00000000000E+00 0. -1.
         -5    1    5    5    0  501  0.29193294209E+02 -0.20055734126E+03 -0.93174199825E+03  0.95354115635E+03  0.47000000000E+01 0.  1.
         13    1    6    6    0    0 -0.30159711836E+02 -0.32788395339E+02 -0.13286150967E+03  0.14013160899E+03  0.00000000000E+00 0. -1.
        -14    1    6    6    0    0  0.47369375131E+02 -0.26604989412E+02 -0.11208049778E+03  0.12455408923E+03  0.00000000000E+00 0.  1.
</event>
<event>
12    1  0.2576962E-002  0.3813938E+03  0.7818608E-02  0.1050420E+00
         -2   -1    0    0    0  501 -0.00000000000E+00  0.00000000000E+00  0.69983724588E+03  0.69983724588E+03  0.00000000000E+00 0.  1.
          2   -1    0    0  502    0  0.00000000000E+00 -0.00000000000E+00 -0.21556260823E+03  0.21556260823E+03  0.00000000000E+00 0. -1.
          6    2    1    2  502    0  0.17717415003E+03  0.29023094835E+03  0.15482498564E+03  0.41048861637E+03  0.17001601447E+03 0.  0.
         24    2    3    3    0    0  0.38847553499E+02  0.72332724399E+02  0.14889848532E+02  0.11685991222E+03  0.81813055572E+02 0.  0.
         -6    2    1    2    0  501 -0.17717415003E+03 -0.29023094835E+03  0.32944965202E+03  0.50491123774E+03  0.17542406325E+03 0.  0.
        -24    2    5    5    0    0 -0.22433111909E+02 -0.55212177295E+02  0.66218266721E+02  0.11956533620E+03  0.79745731815E+02 0.  0.
          5    1    3    3  502    0  0.13832659653E+03  0.21789822395E+03  0.13993513710E+03  0.29362870416E+03  0.47000000000E+01 0. -1.
        -11    1    4    4    0    0  0.10960445042E+02  0.75499904638E+02  0.33354840776E+02  0.83264112072E+02  0.00000000000E+00 0.  1.
         12    1    4    4    0    0  0.27887108457E+02 -0.31671802391E+01 -0.18464992245E+02  0.33595800144E+02  0.00000000000E+00 0. -1.
         -5    1    5    5    0  501 -0.15474103812E+03 -0.23501877106E+03  0.26323138529E+03  0.38534590154E+03  0.47000000000E+01 0.  1.
         11    1    6    6    0    0 -0.50226951458E+02 -0.27718210541E+02  0.24466184333E+02  0.62366978636E+02  0.00000000000E+00 0. -1.
        -12    1    6    6    0    0  0.27793839550E+02 -0.27493966754E+02  0.41752082389E+02  0.57198357569E+02  0.00000000000E+00 0.  1.
</event>
<event>
12    1  0.2576962E-002  0.2204901E+03  0.7818608E-02  0.1133518E+00
          2   -1    0    0  502    0  0.00000000000E+00  0.00000000000E+00  0.34198619912E+03  0.34198619912E+03  0.00000000000E+00 0.  1.
         -2   -1    0    0    0  501 -0.00000000000E+00 -0.00000000000E+00 -0.16449031612E+03  0.16449031612E+03  0.00000000000E+00 0. -1.
          6    2    1    2  502    0 -0.13088779343E+03 -0.47094683290E+02 -0.47079809773E+01  0.22011979286E+03  0.17053162304E+03 0.  0.
         24    2    3    3    0    0 -0.28221892904E+02 -0.58119012360E+02 -0.40557120442E+02  0.11071653073E+03  0.80243226020E+02 0.  0.
         -6    2    1    2    0  501  0.13088779343E+03  0.47094683290E+02  0.18220386398E+03  0.28635672238E+03  0.17161701763E+03 0.  0.
        -24    2    5    5    0    0  0.28888135582E+02  0.74537407047E+02  0.70978823145E+02  0.13289619652E+03  0.78949707330E+02 0.  0.
          5    1    3    3  502    0 -0.10266590053E+03  0.11024329071E+02  0.35849139465E+02  0.10940326212E+03  0.47000000000E+01 0. -1.
        -13    1    4    4    0    0  0.25038146999E+02 -0.16197054186E+01 -0.64238816693E+01  0.25899778116E+02  0.00000000000E+00 0.  1.
         14    1    4    4    0    0 -0.53260039903E+02 -0.56499306942E+02 -0.34133238773E+02  0.84816752617E+02  0.00000000000E+00 0. -1.
         -5    1    5    5    0  501  0.10199965785E+03 -0.27442723758E+02  0.11122504083E+03  0.15346052586E+03  0.47000000000E+01 0.  1.
         13    1    6    6    0    0  0.32637665450E+02 -0.50558401436E+00  0.52373559425E+01  0.33059079215E+02  0.00000000000E+00 0. -1.
        -14    1    6    6    0    0 -0.37495298685E+01  0.75042991062E+02  0.65741467202E+02  0.99837117304E+02  0.00000000000E+00 0.  1.
</event>
<event>
12    1  0.2576962E-002  0.2103988E+03  0.7818608E-02  0.1141251E+00
         -2   -1    0    0    0  501 -0.00000000000E+00  0.00000000000E+00  0.50175307728E+02  0.50175307728E+02  0.00000000000E+00 0.  1.
          2   -1    0    0  502    0  0.00000000000E+00 -0.00000000000E+00 -0.88311208412E+03  0.88311208412E+03  0.00000000000E+00 0. -1.
          6    2    1    2  502    0 -0.86591868033E+02  0.91576900967E+02 -0.43463798459E+03  0.48391822105E+03  0.17141232924E+03 0.  0.
         24    2    3    3    0    0 -0.28684182096E+02  0.83651378908E+02 -0.13808356835E+03  0.18162246226E+03  0.78098088668E+02 0.  0.
         -6    2    1    2    0  501  0.86591868033E+02 -0.91576900967E+02 -0.39829879180E+03  0.44936917079E+03  0.16554831232E+03 0.  0.
        -24    2    5    5    0    0 -0.82236181884E+01 -0.66657027273E+02 -0.19410893753E+03  0.22281550580E+03  0.86357876411E+02 0.  0.
          5    1    3    3  502    0 -0.57907685937E+02  0.79255220596E+01 -0.29655441624E+03  0.30229575879E+03  0.47000000000E+01 0. -1.
        -13    1    4    4    0    0  0.86227002913E+01  0.73723116645E+02 -0.11427685754E+03  0.13626683037E+03  0.00000000000E+00 0.  1.
         14    1    4    4    0    0 -0.37306882388E+02  0.99282622626E+01 -0.23806710805E+02  0.45355631893E+02  0.00000000000E+00 0. -1.
         -5    1    5    5    0  501  0.94815486222E+02 -0.24919873694E+02 -0.20418985427E+03  0.22655366499E+03  0.47000000000E+01 0.  1.
         13    1    6    6    0    0  0.14450436815E+02  0.17023616862E+02 -0.47573363089E+02  0.52553244722E+02  0.00000000000E+00 0. -1.
        -14    1    6    6    0    0 -0.22674055004E+02 -0.83680644135E+02 -0.14653557444E+03  0.17026226108E+03  0.00000000000E+00 0.  1.
</event>
<event>
12    1  0.2576962E-002  0.2154253E+03  0.7818608E-02  0.1137340E+00
         -1   -1    0    0    0  501 -0.00000000000E+00  0.00000000000E+00  0.89266950409E+02  0.89266950409E+02  0.00000000000E+00 0.  1.
          1   -1    0    0  502    0  0.00000000000E+00 -0.00000000000E+00 -0.12738113989E+04  0.12738113989E+04  0.00000000000E+00 0. -1.
          6    2    1    2  502    0  0.12167329849E+03 -0.46163903896E+02 -0.67921048741E+02  0.22586061455E+03  0.17165153875E+03 0.  0.
         24    2    3    3    0    0  0.13413099294E+03 -0.81918893118E+02 -0.63793765308E+02  0.18748434749E+03  0.79868064604E+02 0.  0.
         -6    2    1    2    0  501 -0.12167329849E+03  0.46163903896E+02 -0.11166233997E+04  0.11372177347E+04  0.17169991784E+03 0.  0.
        -24    2    5    5    0    0 -0.63337006343E+02 -0.31624502463E+02 -0.76463747230E+03  0.77201869003E+03  0.79565747551E+02 0.  0.
          5    1    3    3  502    0 -0.12457694451E+02  0.35754989222E+02 -0.41272834332E+01  0.38376267065E+02  0.47000000000E+01 0. -1.
        -13    1    4    4    0    0  0.79972864729E+01 -0.18119689050E+02  0.15735827210E+02  0.25296165325E+02  0.00000000000E+00 0.  1.
         14    1    4    4    0    0  0.12613370647E+03 -0.63799204068E+02 -0.79529592517E+02  0.16218818216E+03  0.00000000000E+00 0. -1.
         -5    1    5    5    0  501 -0.58336292147E+02  0.77788406359E+02 -0.35198592743E+03  0.36519904470E+03  0.47000000000E+01 0.  1.
         13    1    6    6    0    0 -0.71530528088E+02 -0.74971899183E+00 -0.60517873656E+03  0.60939189501E+03  0.00000000000E+00 0. -1.
        -14    1    6    6    0    0  0.81935217451E+01 -0.30874783472E+02 -0.15945873575E+03  0.16262679502E+03  0.00000000000E+00 0.  1.
</event>
<event>
12    1  0.2576962E-002  0.2809568E+03  0.7818608E-02  0.1095167E+00
         -2   -1    0    0    0  501 -0.00000000000E+00  0.00000000000E+00  0.71490903854E+02  0.71490903854E+02  0.00000000000E+00 0. -1.
          2   -1    0    0  502    0  0.00000000000E+00 -0.00000000000E+00 -0.13157675882E+04  0.13157675882E+04  0.00000000000E+00 0.  1.
          6    2    1    2  502    0 -0.21782001506E+03  0.41833052301E+02 -0.34488829915E+03  0.44515508825E+03  0.17326150893E+03 0.  0.
         24    2    3    3    0    0 -0.24104800693E+03  0.42192756397E+02 -0.32205368676E+03  0.41224341074E+03  0.79634679675E+02 0.  0.
         -6    2    1    2    0  501  0.21782001506E+03 -0.41833052301E+02 -0.89938838522E+03  0.94210340382E+03  0.17165020481E+03 0.  0.
        -24    2    5    5    0    0  0.15107810124E+03 -0.65356313598E+02 -0.79561671720E+03  0.81641141536E+03  0.80159828044E+02 0.  0.
          5    1    3    3  502    0  0.23227991870E+02 -0.35970409691E+00 -0.22834612387E+02  0.32911677505E+02  0.47000000000E+01 0. -1.
        -13    1    4    4    0    0 -0.12582227933E+03  0.62055328426E+02 -0.18206773258E+03  0.22984944857E+03  0.00000000000E+00 0.  1.
         14    1    4    4    0    0 -0.11522572760E+03 -0.19862572029E+02 -0.13998595419E+03  0.18239396217E+03  0.00000000000E+00 0. -1.
         -5    1    5    5    0  501  0.66741913823E+02  0.23523261298E+02 -0.10377166801E+03  0.12569198847E+03  0.47000000000E+01 0.  1.
         11    1    6    6    0    0  0.10060588929E+02 -0.60662384091E+01 -0.83326977257E+01  0.14403074305E+02  0.00000000000E+00 0. -1.
        -12    1    6    6    0    0  0.14101751231E+03 -0.59290075189E+02 -0.78728401948E+03  0.80200834105E+03  0.00000000000E+00 0.  1.
</event>
<event>
12    1  0.2576962E-002  0.1705719E+03  0.7818608E-02  0.1177253E+00
          2   -1    0    0  502    0  0.00000000000E+00  0.00000000000E+00  0.36270344926E+04  0.36270344926E+04  0.00000000000E+00 0.  1.
         -2   -1    0    0    0  501 -0.00000000000E+00 -0.00000000000E+00 -0.80419507587E+01  0.80419507587E+01  0.00000000000E+00 0. -1.
          6    2    1    2  502    0 -0.85519012341E+01 -0.18499337406E+02  0.19003563039E+04  0.19079920404E+04  0.16930500256E+03 0.  0.
         24    2    3    3    0    0 -0.57800557425E+02  0.26672034940E+02  0.12479881231E+04  0.12521931258E+04  0.80380141046E+02 0.  0.
         -6    2    1    2    0  501  0.85519012341E+01  0.18499337406E+02  0.17186362379E+04  0.17270844030E+04  0.16939497082E+03 0.  0.
        -24    2    5    5    0    0  0.49152858988E+02  0.57448102862E+01  0.59935939062E+03  0.60698893085E+03  0.82188056651E+02 0.  0.
          5    1    3    3  502    0  0.49248656191E+02 -0.45171372346E+02  0.65236818085E+03  0.65579891461E+03  0.47000000000E+01 0. -1.
        -13    1    4    4    0    0 -0.33296778838E+02  0.38033820778E+02  0.33377490345E+03  0.33758100240E+03  0.00000000000E+00 0.  1.
         14    1    4    4    0    0 -0.24503778587E+02 -0.11361785838E+02  0.91421321963E+03  0.91461212341E+03  0.00000000000E+00 0. -1.
         -5    1    5    5    0  501 -0.40600957754E+02  0.12754527120E+02  0.11192768473E+04  0.11200954721E+04  0.47000000000E+01 0.  1.
         11    1    6    6    0    0  0.39866251962E+02  0.38573424950E+02  0.46781006379E+03  0.47108755337E+03  0.00000000000E+00 0. -1.
        -12    1    6    6    0    0  0.92866070260E+01 -0.32828614664E+02  0.13154932684E+03  0.13590137748E+03  0.00000000000E+00 0.  1.
</event>
<event>
12    1  0.2576962E-002  0.1884672E+03  0.7818608E-02  0.1159851E+00
          1   -1    0    0  502    0  0.00000000000E+00  0.00000000000E+00  0.17792354021E+04  0.17792354021E+04  0.00000000000E+00 0. -1.
         -1   -1    0    0    0  501 -0.00000000000E+00 -0.00000000000E+00 -0.20018802876E+02  0.20018802876E+02  0.00000000000E+00 0.  1.
          6    2    1    2  502    0  0.35233936912E+02  0.72759239105E+02  0.91788379590E+03  0.93668065269E+03  0.16829927262E+03 0.  0.
         24    2    3    3    0    0  0.15636856418E+02  0.38987676802E+01  0.21633040152E+03  0.23146787257E+03  0.80739220578E+02 0.  0.
         -6    2    1    2    0  501 -0.35233936912E+02 -0.72759239105E+02  0.84133280333E+03  0.86257355230E+03  0.17221181715E+03 0.  0.
        -24    2    5    5    0    0 -0.24889700543E+02  0.14829301434E+02  0.28886359645E+03  0.30308890531E+03  0.87070671252E+02 0.  0.
          5    1    3    3  502    0  0.19597080494E+02  0.68860471425E+02  0.70155339438E+03  0.70521278012E+03  0.47000000000E+01 0. -1.
        -11    1    4    4    0    0  0.44742239564E+02 -0.96820832505E+01  0.16210141971E+03  0.16844132809E+03  0.00000000000E+00 0.  1.
         12    1    4    4    0    0 -0.29105383146E+02  0.13580850931E+02  0.54228981817E+02  0.63026544479E+02  0.00000000000E+00 0. -1.
         -5    1    5    5    0  501 -0.10344236369E+02 -0.87588540539E+02  0.55246920688E+03  0.55948464698E+03  0.47000000000E+01 0.  1.
         11    1    6    6    0    0  0.20714558416E+02 -0.20060278095E+02  0.15128648429E+03  0.15401009063E+03  0.00000000000E+00 0. -1.
        -12    1    6    6    0    0 -0.45604258959E+02  0.34889579529E+02  0.13757711217E+03  0.14907881468E+03  0.00000000000E+00 0.  1.
</event>
<event>
12    1  0.2576962E-002  0.1813120E+03  0.7818608E-02  0.1166539E+00
          2   -1    0    0  502    0  0.00000000000E+00  0.00000000000E+00  0.12228733579E+04  0.12228733579E+04  0.00000000000E+00 0.  1.
         -2   -1    0    0    0  501 -0.00000000000E+00 -0.00000000000E+00 -0.27073115516E+02  0.27073115516E+02  0.00000000000E+00 0. -1.
          6    2    1    2  502    0  0.42219193899E+02 -0.85710058290E+01  0.66834283357E+03  0.69459652706E+03  0.18419085142E+03 0.  0.
         24    2    3    3    0    0 -0.38129021634E+02 -0.86416395415E+01  0.47698303396E+03  0.48699955301E+03  0.90151260235E+02 0.  0.
         -6    2    1    2    0  501 -0.42219193899E+02  0.85710058290E+01  0.52745740882E+03  0.55534994636E+03  0.16836366095E+03 0.  0.
        -24    2    5    5    0    0 -0.60144844806E+02 -0.13012445998E+02  0.17330590806E+03  0.20005774289E+03  0.78749200729E+02 0.  0.
          5    1    3    3  502    0  0.80348215533E+02  0.70633712457E-01  0.19135979960E+03  0.20759697405E+03  0.47000000000E+01 0. -1.
        -13    1    4    4    0    0 -0.35442205651E+02  0.34258458912E+02  0.33639084445E+03  0.33998322338E+03  0.00000000000E+00 0.  1.
         14    1    4    4    0    0 -0.26868159824E+01 -0.42900098454E+02  0.14059218951E+03  0.14701632963E+03  0.00000000000E+00 0. -1.
         -5    1    5    5    0  501  0.17925650906E+02  0.21583451827E+02  0.35415150077E+03  0.35529220347E+03  0.47000000000E+01 0.  1.
         11    1    6    6    0    0 -0.69959986894E+02 -0.33227057492E+02  0.13265190708E+03  0.15360652841E+03  0.00000000000E+00 0. -1.
        -12    1    6    6    0    0  0.98151420878E+01  0.20214611494E+02  0.40654000972E+02  0.46451214484E+02  0.00000000000E+00 0.  1.
</event>
<event>
12    1  0.2576962E-002  0.2323666E+03  0.7818608E-02  0.1124985E+00
          2   -1    0    0  502    0  0.00000000000E+00  0.00000000000E+00  0.19994523781E+04  0.19994523781E+04  0.00000000000E+00 0.  1.
         -2   -1    0    0    0  501 -0.00000000000E+00 -0.00000000000E+00 -0.27262412182E+02  0.27262412182E+02  0.00000000000E+00 0. -1.
          6    2    1    2  502    0  0.73905381846E+02  0.13527832047E+03  0.87905798566E+03  0.90871397435E+03  0.17104360722E+03 0.  0.
         24    2    3    3    0    0  0.34664920580E+02  0.43816007699E+02  0.67171724653E+03  0.67867606321E+03  0.79218938650E+02 0.  0.
         -6    2    1    2    0  501 -0.73905381846E+02 -0.13527832047E+03  0.10931319803E+04  0.11180008159E+04  0.17670899442E+03 0.  0.
        -24    2    5    5    0    0 -0.49585098035E+02  0.11050387633E+01  0.38377666049E+03  0.39522909778E+03  0.80384149787E+02 0.  0.
          5    1    3    3  502    0  0.39240461267E+02  0.91462312769E+02  0.20734073913E+03  0.23003791113E+03  0.47000000000E+01 0. -1.
        -13    1    4    4    0    0 -0.22744359877E+02  0.35060681191E+01  0.26089329013E+03  0.26190629479E+03  0.00000000000E+00 0.  1.
         14    1    4    4    0    0  0.57409280456E+02  0.40309939580E+02  0.41082395641E+03  0.41676976842E+03  0.00000000000E+00 0. -1.
         -5    1    5    5    0  501 -0.24320283811E+02 -0.13638335923E+03  0.70935531978E+03  0.72277171816E+03  0.47000000000E+01 0.  1.
         13    1    6    6    0    0 -0.48518698514E+02 -0.25723356660E+02  0.14678560303E+03  0.15672194626E+03  0.00000000000E+00 0. -1.
        -14    1    6    6    0    0 -0.10663995212E+01  0.26828395423E+02  0.23699105746E+03  0.23850715152E+03  0.00000000000E+00 0.  1.
</event>
<event>
12    1  0.2576962E-002  0.2926982E+03  0.7818608E-02  0.1088949E+00
         -1   -1    0    0    0  501 -0.00000000000E+00  0.00000000000E+00  0.64869573445E+03  0.64869573445E+03  0.00000000000E+00 0.  1.
          1   -1    0    0  502    0  0.00000000000E+00 -0.00000000000E+00 -0.13395378833E+03  0.13395378833E+03  0.00000000000E+00 0. -1.
          6    2    1    2  502    0 -0.34867938470E+01 -0.23732838786E+03  0.21091746231E+03  0.36074845337E+03  0.17122017780E+03 0.  0.
         24    2    3    3    0    0  0.22883882424E+02 -0.21768497652E+03  0.22568253885E+03  0.32439774965E+03  0.79942920608E+02 0.  0.
         -6    2    1    2    0  501  0.34867938470E+01  0.23732838786E+03  0.30382448380E+03  0.42190106940E+03  0.17133089035E+03 0.  0.
        -24    2    5    5    0    0 -0.22551013972E+02  0.46536725942E+02  0.78713724868E+02  0.12563029885E+03  0.83143889822E+02 0.  0.
          5    1    3    3  502    0 -0.26370676271E+02 -0.19643411345E+02 -0.14765076539E+02  0.36350703727E+02  0.47000000000E+01 0. -1.
        -13    1    4    4    0    0 -0.11252470406E+02 -0.51694387750E+02  0.10096808061E+03  0.11398895173E+03  0.00000000000E+00 0.  1.
         14    1    4    4    0    0  0.34136352830E+02 -0.16599058877E+03  0.12471445824E+03  0.21040879791E+03  0.00000000000E+00 0. -1.
         -5    1    5    5    0  501  0.26037807819E+02  0.19079166192E+03  0.22511075894E+03  0.29627077055E+03  0.47000000000E+01 0.  1.
         11    1    6    6    0    0  0.23254661076E+02  0.12197159034E+01  0.49861308302E+02  0.55031055180E+02  0.00000000000E+00 0. -1.
        -12    1    6    6    0    0 -0.45805675048E+02  0.45317010038E+02  0.28852416565E+02  0.70599243672E+02  0.00000000000E+00 0.  1.
</event>
<event>
12    1  0.2576962E-002  0.2039830E+03  0.7818608E-02  0.1146421E+00
          2   -1    0    0  502    0  0.00000000000E+00  0.00000000000E+00  0.48754847949E+03  0.48754847949E+03  0.00000000000E+00 0.  1.
         -2   -1    0    0    0  501 -0.00000000000E+00 -0.00000000000E+00 -0.21235496688E+03  0.21235496688E+03  0.00000000000E+00 0. -1.
          6    2    1    2  502    0 -0.98321565558E+02 -0.18599218102E+01  0.40649541015E+03  0.45219473462E+03  0.17196211787E+03 0.  0.
         24    2    3    3    0    0 -0.92733061654E+02 -0.12447683678E+02  0.41745878194E+03  0.43529450983E+03  0.80343699904E+02 0.  0.
         -6    2    1    2    0  501  0.98321565558E+02  0.18599218102E+01 -0.13130189754E+03  0.24770871174E+03  0.18560395473E+03 0.  0.
        -24    2    5    5    0    0  0.58146267100E+02 -0.87830588203E+01 -0.16521257629E+03  0.19386308261E+03  0.82641206042E+02 0.  0.
          5    1    3    3  502    0 -0.55885039033E+01  0.10587761867E+02 -0.10963371785E+02  0.16900224796E+02  0.47000000000E+01 0. -1.
        -13    1    4    4    0    0 -0.29109056383E+02  0.16305131177E+02  0.27098697494E+03  0.27303321237E+03  0.00000000000E+00 0.  1.
         14    1    4    4    0    0 -0.63624005272E+02 -0.28752814854E+02  0.14647180700E+03  0.16226129746E+03  0.00000000000E+00 0. -1.
         -5    1    5    5    0  501  0.40175298458E+02  0.10642980631E+02  0.33910678748E+02  0.53845629127E+02  0.47000000000E+01 0.  1.
         11    1    6    6    0    0  0.29881872904E+02  0.26721744588E+02 -0.26850093411E+02  0.48248372804E+02  0.00000000000E+00 0. -1.
        -12    1    6    6    0    0  0.28264394196E+02 -0.35504803408E+02 -0.13836248288E+03  0.14561470981E+03  0.00000000000E+00 0.  1.
</event>
<event>
12    1  0.2576962E-002  0.2542648E+03  0.7818608E-02  0.1110639E+00
         -2   -1    0    0    0  501 -0.00000000000E+00  0.00000000000E+00  0.19120156958E+03  0.19120156958E+03  0.00000000000E+00 0. -1.
          2   -1    0    0  502    0  0.00000000000E+00 -0.00000000000E+00 -0.40982985025E+03  0.40982985025E+03  0.00000000000E+00 0.  1.
          6    2    1    2  502    0 -0.17332745664E+03 -0.71005558285E+02 -0.23512337830E+03  0.34654438785E+03  0.17241175479E+03 0.  0.
         24    2    3    3    0    0 -0.13414049701E+03 -0.10107066628E+03 -0.11900875264E+03  0.22027394468E+03  0.78412849584E+02 0.  0.
         -6    2    1    2    0  501  0.17332745664E+03  0.71005558285E+02  0.16495097631E+02  0.25448703199E+03  0.17148575647E+03 0.  0.
        -24    2    5    5    0    0  0.13108741074E+03  0.66067668685E+02  0.73582761120E+02  0.18314492974E+03  0.81109780262E+02 0.  0.
          5    1    3    3  502    0 -0.39186959633E+02  0.30065108000E+02 -0.11611462566E+03  0.12627044317E+03  0.47000000000E+01 0. -1.
        -13    1    4    4    0    0  0.81907803312E+00 -0.34056604543E+02 -0.29129079231E+02  0.44822164815E+02  0.00000000000E+00 0.  1.
         14    1    4    4    0    0 -0.13495957504E+03 -0.67014061741E+02 -0.89879673408E+02  0.17545177987E+03  0.00000000000E+00 0. -1.
         -5    1    5    5    0  501  0.42240045900E+02  0.49378896000E+01 -0.57087663489E+02  0.71342102254E+02  0.47000000000E+01 0.  1.
         13    1    6    6    0    0  0.11144148254E+03  0.70482910109E+02  0.30137459398E+02  0.13526016083E+03  0.00000000000E+00 0. -1.
        -14    1    6    6    0    0  0.19645928198E+02 -0.44152414240E+01  0.43445301722E+02  0.47884768907E+02  0.00000000000E+00 0.  1.
</event>
<event>
12    1  0.2576962E-002  0.2809393E+03  0.7818608E-02  0.1095177E+00
          2   -1    0    0  502    0  0.00000000000E+00  0.00000000000E+00  0.89769256764E+03  0.89769256764E+03  0.00000000000E+00 0. -1.
         -2   -1    0    0    0  501 -0.00000000000E+00 -0.00000000000E+00 -0.10881022900E+03  0.10881022900E+03  0.00000000000E+00 0.  1.
          6    2    1    2  502    0  0.20007015042E+03  0.95548124499E+02  0.61420200388E+03  0.67513622157E+03  0.17148558810E+03 0.  0.
         24    2    3    3    0    0  0.19458678784E+03  0.10443749437E+03  0.42471959035E+03  0.48530797500E+03  0.79786539809E+02 0.  0.
         -6    2    1    2    0  501 -0.20007015042E+03 -0.95548124499E+02  0.17468033476E+03  0.33136657507E+03  0.17358882031E+03 0.  0.
        -24    2    5    5    0    0 -0.18194545498E+03 -0.25047443121E+02  0.16205188791E+03  0.25733672751E+03  0.78929423894E+02 0.  0.
          5    1    3    3  502    0  0.54833625805E+01 -0.88893698740E+01  0.18948241353E+03  0.18982824657E+03  0.47000000000E+01 0. -1.
        -11    1    4    4    0    0  0.14072675302E+03  0.54212957566E+02  0.21174001455E+03  0.25995556841E+03  0.00000000000E+00 0.  1.
         12    1    4    4    0    0  0.53860034820E+02  0.50224536807E+02  0.21297957580E+03  0.22535240659E+03  0.00000000000E+00 0. -1.
         -5    1    5    5    0  501 -0.18124695437E+02 -0.70500681378E+02  0.12628446850E+02  0.74029847557E+02  0.47000000000E+01 0.  1.
         11    1    6    6    0    0 -0.40153782692E+02  0.93515103959E+01  0.27569568939E+01  0.41320428633E+02  0.00000000000E+00 0. -1.
        -12    1    6    6    0    0 -0.14179167229E+03 -0.34398953517E+02  0.15929493102E+03  0.21601629888E+03  0.00000000000E+00 0.  1.
</event>
<event>
12    1  0.2576962E-002  0.2123820E+03  0.7818608E-02  0.1139693E+00
          2   -1    0    0  502    0  0.00000000000E+00  0.00000000000E+00  0.90703911256E+03  0.90703911256E+03  0.00000000000E+00 0. -1.
         -2   -1    0    0    0  501 -0.00000000000E+00 -0.00000000000E+00 -0.67287776840E+02  0.67287776840E+02  0.00000000000E+00 0.  1.
          6    2    1    2  502    0 -0.80067683018E+02  0.95969722808E+02  0.17082718729E+03  0.27245750363E+03  0.17155215478E+03 0.  0.
         24    2    3    3    0    0 -0.16339952573E+02  0.10293795593E+03  0.60100201924E+02  0.14442494844E+03  0.79895648436E+02 0.  0.
         -6    2    1    2    0  501  0.80067683018E+02 -0.95969722808E+02  0.66892414843E+03  0.70186938576E+03  0.17187232694E+03 0.  0.
        -24    2    5    5    0    0  0.20614721525E+02 -0.27592400748E+02  0.52591289855E+03  0.53250463030E+03  0.76095315939E+02 0.  0.
          5    1    3    3  502    0 -0.63727730445E+02 -0.69682331254E+01  0.11072698537E+03  0.12803255519E+03  0.47000000000E+01 0. -1.
        -13    1    4    4    0    0  0.26761309920E+01  0.29933221986E+02 -0.18650933074E+02  0.35369715296E+02  0.00000000000E+00 0.  1.
         14    1    4    4    0    0 -0.19016083565E+02  0.73004733947E+02  0.78751134998E+02  0.10905523314E+03  0.00000000000E+00 0. -1.
         -5    1    5    5    0  501  0.59452961493E+02 -0.68377322059E+02  0.14301124988E+03  0.16936475547E+03  0.47000000000E+01 0.  1.
         11    1    6    6    0    0  0.41396960586E+02 -0.20385006030E+02  0.17755941923E+03  0.18345736337E+03  0.00000000000E+00 0. -1.
        -12    1    6    6    0    0 -0.20782239061E+02 -0.72073947187E+01  0.34835347932E+03  0.34904726693E+03  0.00000000000E+00 0.  1.
</event>
<event>
12    1  0.2576962E-002  0.1818573E+03  0.7818608E-02  0.1166018E+00
          1   -1    0    0  502    0  0.00000000000E+00  0.00000000000E+00  0.25956445519E+03  0.25956445519E+03  0.00000000000E+00 0.  1.
         -1   -1    0    0    0  501 -0.00000000000E+00 -0.00000000000E+00 -0.13990992794E+03  0.13990992794E+03  0.00000000000E+00 0. -1.
          6    2    1    2  502    0  0.64355095624E+01 -0.16584620365E+02  0.11673178255E+03  0.20999990158E+03  0.17365823963E+03 0.  0.
         24    2    3    3    0    0  0.22825505941E+02  0.56280064151E+02  0.48705604120E+02  0.10886857516E+03  0.76103097461E+02 0.  0.
         -6    2    1    2    0  501 -0.64355095624E+01  0.16584620365E+02  0.29227446986E+01  0.18947448155E+03  0.18861487562E+03 0.  0.
        -24    2    5    5    0    0 -0.12678692723E+02  0.68823290545E+01  0.78067237023E+02  0.11330430025E+03  0.80840925629E+02 0.  0.
          5    1    3    3  502    0 -0.16389996378E+02 -0.72864684516E+02  0.68026178427E+02  0.10113132641E+03  0.47000000000E+01 0. -1.
        -11    1    4    4    0    0  0.29206587536E+02  0.65419763513E+02  0.59666476030E+02  0.93235500617E+02  0.00000000000E+00 0.  1.
         12    1    4    4    0    0 -0.63810815950E+01 -0.91396993613E+01 -0.10960871910E+02  0.15633074546E+02  0.00000000000E+00 0. -1.
         -5    1    5    5    0  501  0.62431831610E+01  0.97022913103E+01 -0.75144492324E+02  0.76170181300E+02  0.47000000000E+01 0.  1.
         11    1    6    6    0    0  0.10699395396E+02 -0.13114026043E+02 -0.10247076108E+02  0.19785280126E+02  0.00000000000E+00 0. -1.
        -12    1    6    6    0    0 -0.23378088120E+02  0.19996355097E+02  0.88314313131E+02  0.93519020125E+02  0.00000000000E+00 0.  1.
</event>
<event>
12    1  0.2576962E-002  0.1723537E+03  0.7818608E-02  0.1175415E+00
         -2   -1    0    0    0  501 -0.00000000000E+00  0.00000000000E+00  0.19751717028E+03  0.19751717028E+03  0.00000000000E+00 0. -1.
          2   -1    0    0  502    0  0.00000000000E+00 -0.00000000000E+00 -0.15062124109E+03  0.15062124109E+03  0.00000000000E+00 0.  1.
          6    2    1    2  502    0 -0.15973296545E+02 -0.81770766549E+01  0.30111395965E+02  0.17456554163E+03  0.17101000372E+03 0.  0.
         24    2    3    3    0    0  0.25307670353E+02  0.26165652109E+02 -0.27140999393E+02  0.95930511133E+02  0.84503902804E+02 0.  0.
         -6    2    1    2    0  501  0.15973296545E+02  0.81770766549E+01  0.16784533223E+02  0.17357286973E+03  0.17182493931E+03 0.  0.
        -24    2    5    5    0    0  0.57598091962E+02 -0.24245498683E+02  0.48982700737E+02  0.11158368539E+03  0.78397891992E+02 0.  0.
          5    1    3    3  502    0 -0.41280966898E+02 -0.34342728764E+02  0.57252395358E+02  0.78635030497E+02  0.47000000000E+01 0. -1.
        -13    1    4    4    0    0  0.42451106162E+02 -0.16198802681E+02 -0.69416611967E+01  0.45963945466E+02  0.00000000000E+00 0.  1.
         14    1    4    4    0    0 -0.17143435809E+02  0.42364454789E+02 -0.20199338196E+02  0.49966565667E+02  0.00000000000E+00 0. -1.
         -5    1    5    5    0  501 -0.41624795417E+02  0.32422575338E+02 -0.32198167513E+02  0.61989184349E+02  0.47000000000E+01 0.  1.
         13    1    6    6    0    0  0.46306626085E+02 -0.50219691191E+02  0.47539570419E+02  0.83224586261E+02  0.00000000000E+00 0. -1.
        -14    1    6    6    0    0  0.11291465876E+02  0.25974192508E+02  0.14431303182E+01  0.28359099125E+02  0.00000000000E+00 0.  1.
</event>
<event>
12    1  0.2576962E-002  0.2029426E+03  0.7818608E-02  0.1147280E+00
          2   -1    0    0  502    0  0.00000000000E+00  0.00000000000E+00  0.27212942499E+04  0.27212942499E+04  0.00000000000E+00 0. -1.
         -2   -1    0    0    0  501 -0.00000000000E+00 -0.00000000000E+00 -0.17592918838E+02  0.17592918838E+02  0.00000000000E+00 0.  1.
          6    2    1    2  502    0 -0.98470769251E+02  0.44895824700E+02  0.83901612516E+03  0.86317338798E+03  0.17148793533E+03 0.  0.
         24    2    3    3    0    0 -0.65481692864E+02 -0.27332075285E+01  0.23024565161E+03  0.25163403246E+03  0.77532597577E+02 0.  0.
         -6    2    1    2    0  501  0.98470769251E+02 -0.44895824700E+02  0.18646852059E+04  0.18757137807E+04  0.17186955154E+03 0.  0.
        -24    2    5    5    0    0  0.34061883976E+01 -0.27102613653E+02  0.13143171952E+04  0.13168927807E+04  0.77657919749E+02 0.  0.
          5    1    3    3  502    0 -0.32989076387E+02  0.47629032229E+02  0.60877047355E+03  0.61153935551E+03  0.47000000000E+01 0. -1.
        -13    1    4    4    0    0 -0.12474725972E+02  0.34251442100E+02  0.72127989520E+02  0.80816006745E+02  0.00000000000E+00 0.  1.
         14    1    4    4    0    0 -0.53006966892E+02 -0.36984649628E+02  0.15811766209E+03  0.17081802572E+03  0.00000000000E+00 0. -1.
         -5    1    5    5    0  501  0.95064580853E+02 -0.17793211048E+02  0.55036801070E+03  0.55882100004E+03  0.47000000000E+01 0.  1.
         13    1    6    6    0    0  0.35557578152E+02  0.31578698813E+01  0.43238450797E+03  0.43385559377E+03  0.00000000000E+00 0. -1.
        -14    1    6    6    0    0 -0.32151389755E+02 -0.30260483534E+02  0.88193268720E+03  0.88303718692E+03  0.00000000000E+00 0.  1.
</event>
<event>
12    1  0.2576962E-002  0.2466368E+03  0.7818608E-02  0.1115449E+00
         -2   -1    0    0    0  501 -0.00000000000E+00  0.00000000000E+00  0.30685492410E+03  0.30685492410E+03  0.00000000000E+00 0. -1.
          2   -1    0    0  502    0  0.00000000000E+00 -0.00000000000E+00 -0.21217977047E+03  0.21217977047E+03  0.00000000000E+00 0.  1.
          6    2    1    2  502    0 -0.17852401435E+03  0.17560516832E+02  0.11348493045E+03  0.26973243616E+03  0.16642584602E+03 0.  0.
         24    2    3    3    0    0 -0.49460165816E+02  0.50647732448E+02  0.75966106334E+02  0.13123336396E+03  0.80248649215E+02 0.  0.
         -6    2    1    2    0  501  0.17852401435E+03 -0.17560516832E+02 -0.18809776817E+02  0.24930225841E+03  0.17210058947E+03 0.  0.
        -24    2    5    5    0    0  0.92770979668E+02  0.41408657603E+02 -0.52775069248E+02  0.13972727231E+03  0.80108495799E+02 0.  0.
          5    1    3    3  502    0 -0.12906384853E+03 -0.33087215616E+02  0.37518824121E+02  0.13849907219E+03  0.47000000000E+01 0. -1.
        -13    1    4    4    0    0 -0.64415292404E+02  0.60956050470E+02  0.60255889056E+02  0.10721819878E+03  0.00000000000E+00 0.  1.
         14    1    4    4    0    0  0.14955126588E+02 -0.10308318022E+02  0.15710217278E+02  0.24015165180E+02  0.00000000000E+00 0. -1.
         -5    1    5    5    0  501  0.85753034679E+02 -0.58969174435E+02  0.33965292431E+02  0.10957498611E+03  0.47000000000E+01 0.  1.
         11    1    6    6    0    0  0.10486349940E+03  0.40541293200E+02 -0.34142121754E+02  0.11749738056E+03  0.00000000000E+00 0. -1.
        -12    1    6    6    0    0 -0.12092519736E+02  0.86736440309E+00 -0.18632947493E+02  0.22229891742E+02  0.00000000000E+00 0.  1.
</event>
<event>
12    1  0.2576962E-002  0.2076540E+03  0.7818608E-02  0.1143437E+00
          1   -1    0    0  502    0  0.00000000000E+00  0.00000000000E+00  0.37884602593E+03  0.37884602593E+03  0.00000000000E+00 0.  1.
         -1   -1    0    0    0  501 -0.00000000000E+00 -0.00000000000E+00 -0.12301680191E+03  0.12301680191E+03  0.00000000000E+00 0. -1.
          6    2    1    2  502    0  0.69684792738E+02 -0.93256383812E+02  0.59217168106E+02  0.21578711540E+03  0.17176927174E+03 0.  0.
         24    2    3    3    0    0  0.10920211704E+01 -0.42265664208E+02 -0.24001380448E+02  0.96403537717E+02  0.83246603173E+02 0.  0.
         -6    2    1    2    0  501 -0.69684792738E+02  0.93256383812E+02  0.19661205592E+03  0.28607571244E+03  0.17213450919E+03 0.  0.
        -24    2    5    5    0    0 -0.10462488690E+03  0.36127446714E+02  0.12430242556E+03  0.18740809730E+03  0.86134444730E+02 0.  0.
          5    1    3    3  502    0  0.68592771568E+02 -0.50990719603E+02  0.83218548554E+02  0.11938357768E+03  0.47000000000E+01 0. -1.
        -11    1    4    4    0    0 -0.49176349149E+01  0.67520955411E+01  0.25287069069E+02  0.26630993024E+02  0.00000000000E+00 0.  1.
         12    1    4    4    0    0  0.60096560853E+01 -0.49017759749E+02 -0.49288449518E+02  0.69772544693E+02  0.00000000000E+00 0. -1.
         -5    1    5    5    0  501  0.34940094166E+02  0.57128937097E+02  0.72309630364E+02  0.98667615141E+02  0.47000000000E+01 0.  1.
         11    1    6    6    0    0 -0.98467953440E+02  0.19557879654E+02  0.52162943492E+02  0.11313452694E+03  0.00000000000E+00 0. -1.
        -12    1    6    6    0    0 -0.61569334638E+01  0.16569567060E+02  0.72139482064E+02  0.74273570365E+02  0.00000000000E+00 0.  1.
</event>
<event>
12    1  0.2576962E-002  0.1961740E+03  0.7818608E-02  0.1153008E+00
          1   -1    0    0  502    0  0.00000000000E+00  0.00000000000E+00  0.10137087443E+03  0.10137087443E+03  0.00000000000E+00 0.  1.
         -1   -1    0    0    0  501 -0.00000000000E+00 -0.00000000000E+00 -0.38227068057E+03  0.38227068057E+03  0.00000000000E+00 0. -1.
          6    2    1    2  502    0  0.92678984562E+02  0.13012681628E+02 -0.16104383581E+03  0.25440802298E+03  0.17329051054E+03 0.  0.
         24    2    3    3    0    0  0.63201589265E+02  0.55129534185E+01 -0.18786171924E+03  0.21358582769E+03  0.79385431256E+02 0.  0.
         -6    2    1    2    0  501 -0.92678984562E+02 -0.13012681628E+02 -0.11985597033E+03  0.22923353202E+03  0.17153377078E+03 0.  0.
        -24    2    5    5    0    0 -0.53043309118E+02  0.49694530650E+02 -0.10933451957E+03  0.15416041989E+03  0.80797641499E+02 0.  0.
          5    1    3    3  502    0  0.29477395297E+02  0.74997282098E+01  0.26817883429E+02  0.40822195290E+02  0.47000000000E+01 0. -1.
        -11    1    4    4    0    0  0.53107292653E+02  0.29134733677E+02 -0.68281199017E+02  0.91277266493E+02  0.00000000000E+00 0.  1.
         12    1    4    4    0    0  0.10094296612E+02 -0.23621780259E+02 -0.11958052022E+03  0.12230856120E+03  0.00000000000E+00 0. -1.
         -5    1    5    5    0  501 -0.39635675444E+02 -0.62707212278E+02 -0.10521450761E+02  0.75073112135E+02  0.47000000000E+01 0.  1.
         13    1    6    6    0    0  0.17486438756E+02  0.18064307993E+02 -0.52525275737E+02  0.58232287907E+02  0.00000000000E+00 0. -1.
        -14    1    6    6    0    0 -0.70529747874E+02  0.31630222657E+02 -0.56809243832E+02  0.95928131981E+02  0.00000000000E+00 0.  1.
</event>
<event>
12    1  0.2576962E-002  0.2163044E+03  0.7818608E-02  0.1136669E+00
         -2   -1    0    0    0  501 -0.00000000000E+00  0.00000000000E+00  0.13494488016E+03  0.13494488016E+03  0.00000000000E+00 0. -1.
          2   -1    0    0  502    0  0.00000000000E+00 -0.00000000000E+00 -0.34966561791E+03  0.34966561791E+03  0.00000000000E+00 0.  1.
          6    2    1    2  502    0  0.13351166519E+03 -0.49632809062E+02 -0.12378361721E+03  0.24242775456E+03  0.15218426927E+03 0.  0.
         24    2    3    3    0    0  0.46069879037E+02 -0.23000379398E+02 -0.52623793220E+01  0.92678877751E+02  0.76878023766E+02 0.  0.
         -6    2    1    2    0  501 -0.13351166519E+03  0.49632809062E+02 -0.90937120544E+02  0.24218274350E+03  0.17347662921E+03 0.  0.
        -24    2    5    5    0    0 -0.43988136907E+02  0.46930311703E+02  0.14601884739E+02  0.10368242854E+03  0.79996378702E+02 0.  0.
          5    1    3    3  502    0  0.87441786151E+02 -0.26632429664E+02 -0.11852123789E+03  0.14974887681E+03  0.47000000000E+01 0. -1.
        -13    1    4    4    0    0  0.12264478312E+02 -0.18520712662E+02 -0.38889682372E+02  0.44786623235E+02  0.00000000000E+00 0.  1.
         14    1    4    4    0    0  0.33805400726E+02 -0.44796667358E+01  0.33627303050E+02  0.47892254517E+02  0.00000000000E+00 0. -1.
         -5    1    5    5    0  501 -0.89523528282E+02  0.27024973586E+01 -0.10553900528E+03  0.13850031496E+03  0.47000000000E+01 0.  1.
         11    1    6    6    0    0  0.21034216824E+02  0.26309313569E+02  0.10758055314E+02  0.35360345191E+02  0.00000000000E+00 0. -1.
        -12    1    6    6    0    0 -0.65022353731E+02  0.20620998134E+02  0.38438294255E+01  0.68322083351E+02  0.00000000000E+00 0.  1.
</event>
<event>
12    1  0.2576962E-002  0.3172042E+03  0.7818608E-02  0.1076943E+00
         -1   -1    0    0    0  501 -0.00000000000E+00  0.00000000000E+00  0.90385768392E+02  0.90385768392E+02  0.00000000000E+00 0.  1.
          1   -1    0    0  502    0  0.00000000000E+00 -0.00000000000E+00 -0.13520876566E+04  0.13520876566E+04  0.00000000000E+00 0. -1.
          6    2    1    2  502    0 -0.12382465745E+03  0.23653654863E+03 -0.93364149554E+03  0.98598420531E+03  0.17086932525E+03 0.  0.
         24    2    3    3    0    0  0.13770211317E+01  0.71863691331E+02 -0.27554317585E+03  0.29612327830E+03  0.81232184955E+02 0.  0.
         -6    2    1    2    0  501  0.12382465745E+03 -0.23653654863E+03 -0.32806039268E+03  0.45648921969E+03  0.17168780334E+03 0.  0.
        -24    2    5    5    0    0  0.66773672457E+02 -0.15424002017E+03 -0.30108301262E+03  0.35267495034E+03  0.74026569257E+02 0.  0.
          5    1    3    3  502    0 -0.12520167858E+03  0.16467285730E+03 -0.65809831969E+03  0.68986092702E+03  0.47000000000E+01 0. -1.
        -13    1    4    4    0    0  0.70505697633E+01  0.85348426169E+02 -0.26383323619E+03  0.27738428380E+03  0.00000000000E+00 0.  1.
         14    1    4    4    0    0 -0.56735486316E+01 -0.13484734838E+02 -0.11709939662E+02  0.18738994493E+02  0.00000000000E+00 0. -1.
         -5    1    5    5    0  501  0.57050984996E+02 -0.82296528456E+02 -0.26977380066E+02  0.10381426935E+03  0.47000000000E+01 0.  1.
         11    1    6    6    0    0  0.71951544002E+02 -0.11676916396E+03 -0.18308648419E+03  0.22876346524E+03  0.00000000000E+00 0. -1.
        -12    1    6    6    0    0 -0.51778715445E+01 -0.37470856214E+02 -0.11799652843E+03  0.12391148510E+03  0.00000000000E+00 0.  1.
</event>
<event>
12    1  0.2576962E-002  0.7299235E+03  0.7818608E-02  0.9667385E-01
         -2   -1    0    0    0  501 -0.00000000000E+00  0.00000000000E+00  0.44891647504E+03  0.44891647504E+03  0.00000000000E+00 0. -1.
          2   -1    0    0  502    0  0.00000000000E+00 -0.00000000000E+00 -0.14637895778E+04  0.14637895778E+04  0.00000000000E+00 0.  1.
          6    2    1    2  502    0  0.18960458077E+03 -0.68353522970E+03 -0.92346765353E+03  0.11771490261E+04  0.17238623881E+03 0.  0.
         24    2    3    3    0    0  0.13158829984E+03 -0.40765360611E+03 -0.66302924048E+03  0.79331727123E+03  0.79041608429E+02 0.  0.
         -6    2    1    2    0  501 -0.18960458077E+03  0.68353522970E+03 -0.91405449194E+02  0.73555702666E+03  0.17181058184E+03 0.  0.
        -24    2    5    5    0    0 -0.48522885447E+02  0.15849565503E+03 -0.46514416787E+02  0.19002252315E+03  0.80433980754E+02 0.  0.
          5    1    3    3  502    0  0.58016280921E+02 -0.27588162359E+03 -0.26043841305E+03  0.38383175491E+03  0.47000000000E+01 0. -1.
        -13    1    4    4    0    0  0.11899947347E+02 -0.23072170875E+02 -0.84432278730E+02  0.88333139349E+02  0.00000000000E+00 0.  1.
         14    1    4    4    0    0  0.11968835250E+03 -0.38458143524E+03 -0.57859696175E+03  0.70498413188E+03  0.00000000000E+00 0. -1.
         -5    1    5    5    0  501 -0.14108169532E+03  0.52503957467E+03 -0.44891032407E+02  0.54553450351E+03  0.47000000000E+01 0.  1.
         13    1    6    6    0    0  0.44072987710E+01  0.11449437344E+03 -0.37739379395E+02  0.12063435079E+03  0.00000000000E+00 0. -1.
        -14    1    6    6    0    0 -0.52930184218E+02  0.44001281584E+02 -0.87750373915E+01  0.69388172362E+02  0.00000000000E+00 0.  1.
</event>
<event>
12    1  0.2576962E-002  0.1727224E+03  0.7818608E-02  0.1175038E+00
          1   -1    0    0  502    0  0.00000000000E+00  0.00000000000E+00  0.34179885612E+04  0.34179885612E+04  0.00000000000E+00 0.  1.
         -1   -1    0    0    0  501 -0.00000000000E+00 -0.00000000000E+00 -0.98080752310E+01  0.98080752310E+01  0.00000000000E+00 0. -1.
          6    2    1    2  502    0  0.11416671342E+02  0.22696207516E+02  0.11400820940E+04  0.11531712006E+04  0.17138021642E+03 0.  0.
         24    2    3    3    0    0  0.63897838772E+01 -0.52662362152E+02  0.54426157753E+03  0.55256453940E+03  0.79326866170E+02 0.  0.
         -6    2    1    2    0  501 -0.11416671342E+02 -0.22696207516E+02  0.22680983920E+04  0.22746254359E+04  0.17030883571E+03 0.  0.
        -24    2    5    5    0    0  0.58547555917E+02 -0.32907494361E+02  0.14779262278E+04  0.14812822550E+04  0.73623806203E+02 0.  0.
          5    1    3    3  502    0  0.50268874650E+01  0.75358569668E+02  0.59582051644E+03  0.60060666116E+03  0.47000000000E+01 0. -1.
        -13    1    4    4    0    0 -0.31450594833E+02 -0.45637543909E+02  0.36797036708E+03  0.37212110445E+03  0.00000000000E+00 0.  1.
         14    1    4    4    0    0  0.37840378710E+02 -0.70248182430E+01  0.17629121045E+03  0.18044343494E+03  0.00000000000E+00 0. -1.
         -5    1    5    5    0  501 -0.69964227259E+02  0.10211286845E+02  0.79017216425E+03  0.79334318087E+03  0.47000000000E+01 0.  1.
         11    1    6    6    0    0 -0.11190814754E+02 -0.13962301612E+02  0.10977303302E+03  0.11122184579E+03  0.00000000000E+00 0. -1.
        -12    1    6    6    0    0  0.69738370671E+02 -0.18945192749E+02  0.13681531948E+04  0.13700604093E+04  0.00000000000E+00 0.  1.
</event>
<event>
12    1  0.2576962E-002  0.1974645E+03  0.7818608E-02  0.1151896E+00
          2   -1    0    0  502    0  0.00000000000E+00  0.00000000000E+00  0.42849655431E+03  0.42849655431E+03  0.00000000000E+00 0. -1.
         -2   -1    0    0    0  501 -0.00000000000E+00 -0.00000000000E+00 -0.98419705015E+02  0.98419705015E+02  0.00000000000E+00 0.  1.
          6    2    1    2  502    0 -0.76158360626E+02 -0.45035249457E+02  0.88989986892E+02  0.21190671614E+03  0.17075411852E+03 0.  0.
         24    2    3    3    0    0 -0.10728806265E+03 -0.97698396980E+01  0.95829009960E+02  0.16414093644E+03  0.78440230187E+02 0.  0.
         -6    2    1    2    0  501  0.76158360626E+02  0.45035249457E+02  0.24108686241E+03  0.31500954319E+03  0.18242770482E+03 0.  0.
        -24    2    5    5    0    0  0.74617972043E+01 -0.43463703574E+02  0.11125165156E+03  0.14345618563E+03  0.79107365491E+02 0.  0.
          5    1    3    3  502    0  0.31129702025E+02 -0.35265409759E+02 -0.68390230677E+01  0.47765779698E+02  0.47000000000E+01 0. -1.
        -13    1    4    4    0    0 -0.28911243987E+02  0.32623809691E+02  0.24525595301E+02  0.50016775311E+02  0.00000000000E+00 0.  1.
         14    1    4    4    0    0 -0.78376818663E+02 -0.42393649389E+02  0.71303414658E+02  0.11412416113E+03  0.00000000000E+00 0. -1.
         -5    1    5    5    0  501  0.68696563421E+02  0.88498953032E+02  0.12983521085E+03  0.17155335756E+03  0.47000000000E+01 0.  1.
         11    1    6    6    0    0  0.76747427525E+01  0.43005052481E+01  0.91249305561E+02  0.91672415628E+02  0.00000000000E+00 0. -1.
        -12    1    6    6    0    0 -0.21294554815E+00 -0.47764208822E+02  0.20002346000E+02  0.51783770003E+02  0.00000000000E+00 0.  1.
</event>
<event>
12    1  0.2576962E-002  0.1896448E+03  0.7818608E-02  0.1158782E+00
          1   -1    0    0  502    0  0.00000000000E+00  0.00000000000E+00  0.42158637136E+03  0.42158637136E+03  0.00000000000E+00 0.  1.
         -1   -1    0    0    0  501 -0.00000000000E+00 -0.00000000000E+00 -0.88757830218E+02  0.88757830218E+02  0.00000000000E+00 0. -1.
          6    2    1    2  502    0 -0.19757153065E+02 -0.77324671210E+02  0.11537008468E+03  0.22121341691E+03  0.17104288791E+03 0.  0.
         24    2    3    3    0    0 -0.57648368822E+02 -0.53664038189E+02  0.13302065369E+03  0.17295160620E+03  0.77553854548E+02 0.  0.
         -6    2    1    2    0  501  0.19757153065E+02  0.77324671210E+02  0.21745845646E+03  0.28913078467E+03  0.17302884293E+03 0.  0.
        -24    2    5    5    0    0  0.41684287089E+02  0.45351113851E+02  0.41164176580E+02  0.10856259618E+03  0.79353919490E+02 0.  0.
          5    1    3    3  502    0  0.37891215757E+02 -0.23660633021E+02 -0.17650569009E+02  0.48261810708E+02  0.47000000000E+01 0. -1.
        -13    1    4    4    0    0 -0.19627974283E+02  0.18190399061E+02  0.50276555918E+02  0.56955070604E+02  0.00000000000E+00 0.  1.
         14    1    4    4    0    0 -0.38020394538E+02 -0.71854437250E+02  0.82744097774E+02  0.11599653559E+03  0.00000000000E+00 0. -1.
         -5    1    5    5    0  501 -0.21927134025E+02  0.31973557359E+02  0.17629427988E+03  0.18056818849E+03  0.47000000000E+01 0.  1.
         13    1    6    6    0    0 -0.10906685845E+01  0.59223179459E+01 -0.21930039543E+02  0.22741812640E+02  0.00000000000E+00 0. -1.
        -14    1    6    6    0    0  0.42774955674E+02  0.39428795905E+02  0.63094216123E+02  0.85820783541E+02  0.00000000000E+00 0.  1.
</event>
<event>
12    1  0.2576962E-002  0.2194503E+03  0.7818608E-02  0.1134294E+00
          1   -1    0    0  502    0  0.00000000000E+00  0.00000000000E+00  0.11281205769E+03  0.11281205769E+03  0.00000000000E+00 0.  1.
         -1   -1    0    0    0  501 -0.00000000000E+00 -0.00000000000E+00 -0.82584818657E+03  0.82584818657E+03  0.00000000000E+00 0. -1.
          6    2    1    2  502    0 -0.11389168410E+03  0.73360424815E+02 -0.29944750331E+02  0.22104936810E+03  0.17208447760E+03 0.  0.
         24    2    3    3    0    0 -0.80266174420E+02  0.72325106796E+02  0.43021429542E+02  0.14056396452E+03  0.78954448213E+02 0.  0.
         -6    2    1    2    0  501  0.11389168410E+03 -0.73360424815E+02 -0.68309137855E+03  0.71761087616E+03  0.17320066540E+03 0.  0.
        -24    2    5    5    0    0 -0.60838749569E+01  0.36915224767E+01 -0.27511753838E+03  0.28541198489E+03  0.75628700377E+02 0.  0.
          5    1    3    3  502    0 -0.33625509677E+02  0.10353180189E+01 -0.72966179873E+02  0.80485403581E+02  0.47000000000E+01 0. -1.
        -13    1    4    4    0    0 -0.89543887744E+02  0.69690629548E+02  0.19485360550E+02  0.11512849758E+03  0.00000000000E+00 0.  1.
         14    1    4    4    0    0  0.92777133240E+01  0.26344772481E+01  0.23536068992E+02  0.25435466940E+02  0.00000000000E+00 0. -1.
         -5    1    5    5    0  501  0.11997555905E+03 -0.77051947291E+02 -0.40797384018E+03  0.43219889128E+03  0.47000000000E+01 0.  1.
         13    1    6    6    0    0 -0.26340848731E+02 -0.27856144916E+02 -0.13063660466E+03  0.13614597900E+03  0.00000000000E+00 0. -1.
        -14    1    6    6    0    0  0.20256973774E+02  0.31547667393E+02 -0.14448093371E+03  0.14926600588E+03  0.00000000000E+00 0.  1.
</event>
<event>
12    1  0.2576962E-002  0.1858496E+03  0.7818608E-02  0.1162259E+00
          4   -1    0    0  502    0  0.00000000000E+00  0.00000000000E+00  0.68408116406E+02  0.68408116406E+02  0.00000000000E+00 0.  1.
         -4   -1    0    0    0  501 -0.00000000000E+00 -0.00000000000E+00 -0.51180207241E+03  0.51180207241E+03  0.00000000000E+00 0. -1.
          6    2    1    2  502    0  0.30030120741E+02 -0.62395861869E+02 -0.25510555869E+03  0.31549944139E+03  0.17223820631E+03 0.  0.
         24    2    3    3    0    0 -0.65280847578E+01 -0.94453507253E+02 -0.12233525459E+03  0.17402775282E+03  0.79722414118E+02 0.  0.
         -6    2    1    2    0  501 -0.30030120741E+02  0.62395861869E+02 -0.18828839732E+03  0.26471074742E+03  0.17269686595E+03 0.  0.
        -24    2    5    5    0    0 -0.68628216295E+02  0.14842405262E+02 -0.17104458770E+03  0.20090962529E+03  0.78602146835E+02 0.  0.
          5    1    3    3  502    0  0.36558205499E+02  0.32057645384E+02 -0.13277030410E+03  0.14147168857E+03  0.47000000000E+01 0. -1.
        -11    1    4    4    0    0  0.22519747189E+02 -0.30224050186E+02 -0.87762015061E+02  0.95513368230E+02  0.00000000000E+00 0.  1.
         12    1    4    4    0    0 -0.29047831947E+02 -0.64229457067E+02 -0.34573239529E+02  0.78514384589E+02  0.00000000000E+00 0. -1.
         -5    1    5    5    0  501  0.38598095554E+02  0.47553456607E+02 -0.17243809618E+02  0.63801122136E+02  0.47000000000E+01 0.  1.
         13    1    6    6    0    0 -0.47356418181E+02 -0.27631449235E+02 -0.67299942647E+02  0.86806737123E+02  0.00000000000E+00 0. -1.
        -14    1    6    6    0    0 -0.21271798114E+02  0.42473854497E+02 -0.10374464505E+03  0.11410288817E+03  0.00000000000E+00 0.  1.
</event>
<event>
12    1  0.2576962E-002  0.3108016E+03  0.7818608E-02  0.1079962E+00
         -2   -1    0    0    0  501 -0.00000000000E+00  0.00000000000E+00  0.62623233951E+02  0.62623233951E+02  0.00000000000E+00 0. -1.
          2   -1    0    0  502    0  0.00000000000E+00 -0.00000000000E+00 -0.20928551080E+04  0.20928551080E+04  0.00000000000E+00 0.  1.
          6    2    1    2  502    0  0.18896683618E+03 -0.17848834412E+03 -0.15661890234E+04  0.15966020425E+04  0.16918472399E+03 0.  0.
         24    2    3    3    0    0  0.16827743238E+03 -0.17860256420E+03 -0.15457256087E+04  0.15671248340E+04  0.79977608564E+02 0.  0.
         -6    2    1    2    0  501 -0.18896683618E+03  0.17848834412E+03 -0.46404285064E+03  0.55887629948E+03  0.17158204078E+03 0.  0.
        -24    2    5    5    0    0 -0.19087538572E+03  0.15761881092E+03 -0.46945925247E+03  0.53672664064E+03  0.80039956359E+02 0.  0.
          5    1    3    3  502    0  0.20689403800E+02  0.11422007573E+00 -0.20463414698E+02  0.29477208432E+02  0.47000000000E+01 0. -1.
        -11    1    4    4    0    0  0.56009597978E+02 -0.93137954577E+02 -0.48318980925E+03  0.49526169387E+03  0.00000000000E+00 0.  1.
         12    1    4    4    0    0  0.11226783440E+03 -0.85464609622E+02 -0.10625357995E+04  0.10718631402E+04  0.00000000000E+00 0. -1.
         -5    1    5    5    0  501  0.19085495381E+01  0.20869533208E+02  0.54164018302E+01  0.22149658834E+02  0.47000000000E+01 0.  1.
         13    1    6    6    0    0 -0.17947323389E+03  0.16410991107E+03 -0.46070829270E+03  0.52095569443E+03  0.00000000000E+00 0. -1.
        -14    1    6    6    0    0 -0.11402151825E+02 -0.64911001569E+01 -0.87509597764E+01  0.15770946214E+02  0.00000000000E+00 0.  1.
</event>
<event>
12    1  0.2576962E-002  0.4645572E+03  0.7818608E-02  0.1023468E+00
         -2   -1    0    0    0  501 -0.00000000000E+00  0.00000000000E+00  0.21627570333E+03  0.21627570333E+03  0.00000000000E+00 0.  1.
          2   -1    0    0  502    0  0.00000000000E+00 -0.00000000000E+00 -0.11846518640E+04  0.11846518640E+04  0.00000000000E+00 0. -1.
          6    2    1    2  502    0  0.42654856923E+03 -0.65336024572E+02 -0.20616790127E+03  0.50837714105E+03  0.17242284072E+03 0.  0.
         24    2    3    3    0    0  0.37513192267E+03 -0.95356797664E+01 -0.16359257778E+03  0.42124449392E+03  0.99345375146E+02 0.  0.
         -6    2    1    2    0  501 -0.42654856923E+03  0.65336024572E+02 -0.76220825941E+03  0.89255042630E+03  0.17167514306E+03 0.  0.
        -24    2    5    5    0    0 -0.27586845565E+03  0.10256666334E+03 -0.44523878238E+03  0.53958816704E+03  0.79337830952E+02 0.  0.
          5    1    3    3  502    0  0.51416646566E+02 -0.55800344806E+02 -0.42575323496E+02  0.87132647127E+02  0.47000000000E+01 0. -1.
        -11    1    4    4    0    0  0.25626944688E+03 -0.41117819824E+02 -0.14366069231E+03  0.29665316285E+03  0.00000000000E+00 0.  1.
         12    1    4    4    0    0  0.11886247578E+03  0.31582140058E+02 -0.19931885464E+02  0.12459133107E+03  0.00000000000E+00 0. -1.
         -5    1    5    5    0  501 -0.15068011358E+03 -0.37230638767E+02 -0.31696947703E+03  0.35296225926E+03  0.47000000000E+01 0.  1.
         11    1    6    6    0    0 -0.27704302874E+03  0.10509354820E+03 -0.44700156763E+03  0.53629086801E+03  0.00000000000E+00 0. -1.
        -12    1    6    6    0    0  0.11745730889E+01 -0.25268848627E+01  0.17627852491E+01  0.32972990287E+01  0.00000000000E+00 0.  1.
</event>
<event>
12    1  0.2576962E-002  0.2068576E+03  0.7818608E-02  0.1144079E+00
         -4   -1    0    0    0  501 -0.00000000000E+00  0.00000000000E+00  0.58890358281E+03  0.58890358281E+03  0.00000000000E+00 0. -1.
          4   -1    0    0  502    0  0.00000000000E+00 -0.00000000000E+00 -0.81560591004E+02  0.81560591004E+02  0.00000000000E+00 0.  1.
          6    2    1    2  502    0  0.89515728065E+02 -0.29353646770E+02  0.37338997237E+03  0.43144499450E+03  0.19455078942E+03 0.  0.
         24    2    3    3    0    0  0.58135844326E+02  0.27491848868E+02  0.34575160830E+03  0.36071963380E+03  0.80242765487E+02 0.  0.
         -6    2    1    2    0  501 -0.89515728065E+02  0.29353646770E+02  0.13395301944E+03  0.23901917932E+03  0.17410357410E+03 0.  0.
        -24    2    5    5    0    0 -0.48800453759E+02  0.10638378621E+02  0.16089513591E+03  0.18652191783E+03  0.80053242821E+02 0.  0.
          5    1    3    3  502    0  0.31379883740E+02 -0.56845495639E+02  0.27638364064E+02  0.70725360699E+02  0.47000000000E+01 0. -1.
        -11    1    4    4    0    0  0.33698281336E+01  0.37571511899E+02  0.71177358274E+02  0.80555512405E+02  0.00000000000E+00 0.  1.
         12    1    4    4    0    0  0.54766016192E+02 -0.10079663030E+02  0.27457425003E+03  0.28016412139E+03  0.00000000000E+00 0. -1.
         -5    1    5    5    0  501 -0.40715274307E+02  0.18715268149E+02 -0.26942116468E+02  0.52497261486E+02  0.47000000000E+01 0.  1.
         13    1    6    6    0    0 -0.52977301316E+02 -0.17377840255E+02  0.60790127731E+02  0.82486504449E+02  0.00000000000E+00 0. -1.
        -14    1    6    6    0    0  0.41768475578E+01  0.28016218876E+02  0.10010500817E+03  0.10403541338E+03  0.00000000000E+00 0.  1.
</event>
<event>
12    1  0.2576962E-002  0.2126288E+03  0.7818608E-02  0.1139501E+00
         -1   -1    0    0    0  501 -0.00000000000E+00  0.00000000000E+00  0.14818948005E+03  0.14818948005E+03  0.00000000000E+00 0. -1.
          1   -1    0    0  502    0  0.00000000000E+00 -0.00000000000E+00 -0.30521716573E+03  0.30521716573E+03  0.00000000000E+00 0.  1.
          6    2    1    2  502    0 -0.39611858685E+02 -0.10847566490E+03 -0.80222422309E+02  0.23137928148E+03  0.18375164117E+03 0.  0.
         24    2    3    3    0    0  0.23250285348E+01 -0.97620628348E+02  0.14043504548E+02  0.12752992282E+03  0.80817500320E+02 0.  0.
         -6    2    1    2    0  501  0.39611858685E+02  0.10847566490E+03 -0.76805263362E+02  0.22202736430E+03  0.17338117773E+03 0.  0.
        -24    2    5    5    0    0  0.31158546892E+02  0.52562253210E+02  0.26823838278E+02  0.10387979219E+03  0.79610598662E+02 0.  0.
          5    1    3    3  502    0 -0.41936887220E+02 -0.10855036555E+02 -0.94265926857E+02  0.10384935866E+03  0.47000000000E+01 0. -1.
        -11    1    4    4    0    0 -0.24673686535E+02 -0.12935396379E+02  0.25676993059E+02  0.37886980076E+02  0.00000000000E+00 0.  1.
         12    1    4    4    0    0  0.26998715070E+02 -0.84685231969E+02 -0.11633488511E+02  0.89642942745E+02  0.00000000000E+00 0. -1.
         -5    1    5    5    0  501  0.84533117935E+01  0.55913411693E+02 -0.10362910164E+03  0.11814757210E+03  0.47000000000E+01 0.  1.
         13    1    6    6    0    0 -0.70445128285E+01  0.14595470006E+02 -0.24569806230E+02  0.29433455181E+02  0.00000000000E+00 0. -1.
        -14    1    6    6    0    0  0.38203059720E+02  0.37966783204E+02  0.51393644508E+02  0.74446337013E+02  0.00000000000E+00 0.  1.
</event>
<event>
12    1  0.2576962E-002  0.1718685E+03  0.7818608E-02  0.1175913E+00
         -2   -1    0    0    0  501 -0.00000000000E+00  0.00000000000E+00  0.16095454221E+02  0.16095454221E+02  0.00000000000E+00 0.  1.
          2   -1    0    0  502    0  0.00000000000E+00 -0.00000000000E+00 -0.32583057775E+04  0.32583057775E+04  0.00000000000E+00 0. -1.
          6    2    1    2  502    0 -0.95698124886E+01 -0.44280409722E+01 -0.27047634984E+04  0.27102385807E+04  0.17186155220E+03 0.  0.
         24    2    3    3    0    0  0.61536213381E+02 -0.17620765507E+02 -0.17965232464E+04  0.17991114983E+04  0.72174867895E+02 0.  0.
         -6    2    1    2    0  501  0.95698124886E+01  0.44280409722E+01 -0.53744682482E+03  0.56416265097E+03  0.17122855598E+03 0.  0.
        -24    2    5    5    0    0 -0.20930382084E+02 -0.34843298940E+02 -0.47863854063E+03  0.48700693636E+03  0.80179592874E+02 0.  0.
          5    1    3    3  502    0 -0.71106025870E+02  0.13192724535E+02 -0.90824025202E+03  0.91112708240E+03  0.47000000000E+01 0. -1.
        -13    1    4    4    0    0  0.46180879127E+01 -0.18113074826E+02 -0.10636206691E+03  0.10799212699E+03  0.00000000000E+00 0.  1.
         14    1    4    4    0    0  0.56918125469E+02  0.49230931891E+00 -0.16901611795E+04  0.16911193713E+04  0.00000000000E+00 0. -1.
         -5    1    5    5    0  501  0.30500194572E+02  0.39271339912E+02 -0.58808284188E+02  0.77155714607E+02  0.47000000000E+01 0.  1.
         13    1    6    6    0    0 -0.43028165582E+02  0.38322615075E+01 -0.28878028839E+03  0.29199343181E+03  0.00000000000E+00 0. -1.
        -14    1    6    6    0    0  0.22097783499E+02 -0.38675560447E+02 -0.18985825225E+03  0.19501350455E+03  0.00000000000E+00 0.  1.
</event>
<event>
12    1  0.2576962E-002  0.1755661E+03  0.7818608E-02  0.1172165E+00
         -2   -1    0    0    0  501 -0.00000000000E+00  0.00000000000E+00  0.51229761104E+02  0.51229761104E+02  0.00000000000E+00 0. -1.
          2   -1    0    0  502    0  0.00000000000E+00 -0.00000000000E+00 -0.60288230000E+03  0.60288230000E+03  0.00000000000E+00 0.  1.
          6    2    1    2  502    0 -0.23014541476E+02 -0.27455119959E+02 -0.29054824462E+03  0.33949307117E+03  0.17191221653E+03 0.  0.
         24    2    3    3    0    0 -0.77489690330E+02 -0.89324264854E+01 -0.22917674174E+03  0.25523641932E+03  0.80865384696E+02 0.  0.
         -6    2    1    2    0  501  0.23014541476E+02  0.27455119959E+02 -0.26110429427E+03  0.31461898993E+03  0.17183190508E+03 0.  0.
        -24    2    5    5    0    0  0.59082515786E+02 -0.35453424544E+02 -0.17207780895E+03  0.19970080672E+03  0.74309830362E+02 0.  0.
          5    1    3    3  502    0  0.54475148854E+02 -0.18522693473E+02 -0.61371502876E+02  0.84256651852E+02  0.47000000000E+01 0. -1.
        -11    1    4    4    0    0 -0.10822163444E+02  0.83266840522E+00 -0.15360962396E+03  0.15399262687E+03  0.00000000000E+00 0.  1.
         12    1    4    4    0    0 -0.66667526886E+02 -0.97650948906E+01 -0.75567117782E+02  0.10124379245E+03  0.00000000000E+00 0. -1.
         -5    1    5    5    0  501 -0.36067974310E+02  0.62908544503E+02 -0.89026485323E+02  0.11491818321E+03  0.47000000000E+01 0.  1.
         11    1    6    6    0    0  0.46620294157E+02  0.10720867132E+02 -0.53100410104E+02  0.71470569975E+02  0.00000000000E+00 0. -1.
        -12    1    6    6    0    0  0.12462221629E+02 -0.46174291677E+02 -0.11897739885E+03  0.12823023675E+03  0.00000000000E+00 0.  1.
</event>
<event>
12    1  0.2576962E-002  0.1734892E+03  0.7818608E-02  0.1174257E+00
         -2   -1    0    0    0  501 -0.00000000000E+00  0.00000000000E+00  0.36119038270E+02  0.36119038270E+02  0.00000000000E+00 0. -1.
          2   -1    0    0  502    0  0.00000000000E+00 -0.00000000000E+00 -0.83348608578E+03  0.83348608578E+03  0.00000000000E+00 0.  1.
          6    2    1    2  502    0  0.17266073299E+02 -0.25680365129E+02 -0.39221021481E+03  0.42882651488E+03  0.17060401175E+03 0.  0.
         24    2    3    3    0    0 -0.43281657567E+02  0.15456076421E+02 -0.14798341907E+03  0.17382249081E+03  0.78758960197E+02 0.  0.
         -6    2    1    2    0  501 -0.17266073299E+02  0.25680365129E+02 -0.40515683270E+03  0.44077860917E+03  0.17081020103E+03 0.  0.
        -24    2    5    5    0    0 -0.31602869461E+02  0.28006573468E+02 -0.95529592834E+02  0.13077526622E+03  0.78696617671E+02 0.  0.
          5    1    3    3  502    0  0.60547730866E+02 -0.41136441550E+02 -0.24422679573E+03  0.25500402407E+03  0.47000000000E+01 0. -1.
        -11    1    4    4    0    0 -0.39645891767E+02  0.43583935955E+02 -0.74009494360E+02  0.94597893542E+02  0.00000000000E+00 0.  1.
         12    1    4    4    0    0 -0.36357657998E+01 -0.28127859534E+02 -0.73973924713E+02  0.79224597269E+02  0.00000000000E+00 0. -1.
         -5    1    5    5    0  501  0.14336796162E+02 -0.23262083391E+01 -0.30962723987E+03  0.31000334295E+03  0.47000000000E+01 0.  1.
         13    1    6    6    0    0  0.10619166820E+02  0.29299808484E+02 -0.59391527031E+01  0.31725683854E+02  0.00000000000E+00 0. -1.
        -14    1    6    6    0    0 -0.42222036282E+02 -0.12932350158E+01 -0.89590440130E+02  0.99049582368E+02  0.00000000000E+00 0.  1.
</event>
<event>
12    1  0.2576962E-002  0.2009147E+03  0.7818608E-02  0.1148970E+00
         -2   -1    0    0    0  501 -0.00000000000E+00  0.00000000000E+00  0.99683833806E+02  0.99683833806E+02  0.00000000000E+00 0. -1.
          2   -1    0    0  502    0  0.00000000000E+00 -0.00000000000E+00 -0.41761900300E+03  0.41761900300E+03  0.00000000000E+00 0.  1.
          6    2    1    2  502    0 -0.36735260178E+02 -0.96749841865E+02 -0.20421846762E+03  0.28666274712E+03  0.17251184548E+03 0.  0.
         24    2    3    3    0    0 -0.52720497218E+02 -0.44962772924E+02 -0.20407263247E+03  0.23226109659E+03  0.86593740485E+02 0.  0.
         -6    2    1    2    0  501  0.36735260178E+02  0.96749841865E+02 -0.11371670158E+03  0.23064008969E+03  0.17191088247E+03 0.  0.
        -24    2    5    5    0    0 -0.29837681397E+02  0.53568023076E+02 -0.11486162755E+02  0.10114183066E+03  0.79611039725E+02 0.  0.
          5    1    3    3  502    0  0.15985237041E+02 -0.51787068941E+02 -0.14583515145E+00  0.54401650532E+02  0.47000000000E+01 0. -1.
        -11    1    4    4    0    0 -0.18567382068E+01 -0.57993675436E+02 -0.97582338305E+02  0.11352984901E+03  0.00000000000E+00 0.  1.
         12    1    4    4    0    0 -0.50863759012E+02  0.13030902512E+02 -0.10649029416E+03  0.11873124758E+03  0.00000000000E+00 0. -1.
         -5    1    5    5    0  501  0.66572941574E+02  0.43181818788E+02 -0.10223053882E+03  0.12949825903E+03  0.47000000000E+01 0.  1.
         11    1    6    6    0    0 -0.20158414259E+02 -0.33775564917E+01  0.25403044984E+02  0.32604972745E+02  0.00000000000E+00 0. -1.
        -12    1    6    6    0    0 -0.96792671381E+01  0.56945579568E+02 -0.36889207739E+02  0.68536857911E+02  0.00000000000E+00 0.  1.
</event>
<event>
12    1  0.2576962E-002  0.2107152E+03  0.7818608E-02  0.1141001E+00
         -1   -1    0    0    0  501 -0.00000000000E+00  0.00000000000E+00  0.12422681975E+03  0.12422681975E+03  0.00000000000E+00 0. -1.
          1   -1    0    0  502    0  0.00000000000E+00 -0.00000000000E+00 -0.35756761119E+03  0.35756761119E+03  0.00000000000E+00 0.  1.
          6    2    1    2  502    0 -0.79122876953E+02 -0.94215202072E+02 -0.11156129481E+03  0.23810555471E+03  0.17062062808E+03 0.  0.
         24    2    3    3    0    0 -0.88594790380E+02 -0.12094838899E+03 -0.12028556736E+03  0.20806252959E+03  0.79648281986E+02 0.  0.
         -6    2    1    2    0  501  0.79122876953E+02  0.94215202072E+02 -0.12177949663E+03  0.24368887622E+03  0.17151410623E+03 0.  0.
        -24    2    5    5    0    0 -0.16300785354E+02  0.52479927807E+02 -0.30722277393E+02  0.10526555586E+03  0.84363028014E+02 0.  0.
          5    1    3    3  502    0  0.94719134275E+01  0.26733186921E+02  0.87242725498E+01  0.30043025121E+02  0.47000000000E+01 0. -1.
        -11    1    4    4    0    0 -0.16277114952E+02 -0.72719352027E+02 -0.23871424395E+02  0.78248920332E+02  0.00000000000E+00 0.  1.
         12    1    4    4    0    0 -0.72317675428E+02 -0.48229036966E+02 -0.96414142965E+02  0.12981360926E+03  0.00000000000E+00 0. -1.
         -5    1    5    5    0  501  0.95423662307E+02  0.41735274265E+02 -0.91057219237E+02  0.13842332037E+03  0.47000000000E+01 0.  1.
         11    1    6    6    0    0  0.15358794456E+02  0.55488649789E+02  0.45728374480E+01  0.57756330085E+02  0.00000000000E+00 0. -1.
        -12    1    6    6    0    0 -0.31659579810E+02 -0.30087219821E+01 -0.35295114841E+02  0.47509225771E+02  0.00000000000E+00 0.  1.
</event>
<event>
12    1  0.2576962E-002  0.1831437E+03  0.7818608E-02  0.1164795E+00
          1   -1    0    0  502    0  0.00000000000E+00  0.00000000000E+00  0.32068900984E+04  0.32068900984E+04  0.00000000000E+00 0.  1.
         -1   -1    0    0    0  501 -0.00000000000E+00 -0.00000000000E+00 -0.10461136166E+02  0.10461136166E+02  0.00000000000E+00 0. -1.
          6    2    1    2  502    0 -0.56273702988E+02  0.29247540969E+02  0.16164612722E+04  0.16267617204E+04  0.17141908256E+03 0.  0.
         24    2    3    3    0    0 -0.71754802977E+02  0.43976182691E+02  0.15801833603E+04  0.15843969444E+04  0.79066864001E+02 0.  0.
         -6    2    1    2    0  501  0.56273702988E+02 -0.29247540969E+02  0.15799676900E+04  0.15905895142E+04  0.17220613515E+03 0.  0.
        -24    2    5    5    0    0  0.68840913660E+02 -0.70946130826E+02  0.13785717577E+04  0.13844848837E+04  0.81030100218E+02 0.  0.
          5    1    3    3  502    0  0.15481099989E+02 -0.14728641722E+02  0.36277911935E+02  0.42364775914E+02  0.47000000000E+01 0. -1.
        -11    1    4    4    0    0 -0.67854847954E+02 -0.33851726381E+01  0.91806508187E+03  0.92057549084E+03  0.00000000000E+00 0.  1.
         12    1    4    4    0    0 -0.38999550227E+01  0.47361355329E+02  0.66211827844E+03  0.66382145361E+03  0.00000000000E+00 0. -1.
         -5    1    5    5    0  501 -0.12567210672E+02  0.41698589857E+02  0.20139593228E+03  0.20610463052E+03  0.47000000000E+01 0.  1.
         13    1    6    6    0    0  0.57438496585E+02 -0.38592138509E+01  0.50616580866E+03  0.50942899434E+03  0.00000000000E+00 0. -1.
        -14    1    6    6    0    0  0.11402417075E+02 -0.67086916975E+02  0.87240594902E+03  0.87505588932E+03  0.00000000000E+00 0.  1.
</event>
<event>
12    1  0.2576962E-002  0.2011399E+03  0.7818608E-02  0.1148781E+00
         -1   -1    0    0    0  501 -0.00000000000E+00  0.00000000000E+00  0.43220891352E+02  0.43220891352E+02  0.00000000000E+00 0. -1.
          1   -1    0    0  502    0  0.00000000000E+00 -0.00000000000E+00 -0.10382255219E+04  0.10382255219E+04  0.00000000000E+00 0.  1.
          6    2    1    2  502    0  0.80260650109E+02  0.55692110854E+02 -0.33456679965E+03  0.39189704855E+03  0.17917859824E+03 0.  0.
         24    2    3    3    0    0  0.88223087720E+02  0.46926399669E+02 -0.11347164353E+03  0.17043509659E+03  0.78656900981E+02 0.  0.
         -6    2    1    2    0  501 -0.80260650109E+02 -0.55692110854E+02 -0.66043783086E+03  0.68954936466E+03  0.17250163684E+03 0.  0.
        -24    2    5    5    0    0 -0.75661089587E+02  0.24196823636E+02 -0.31279095744E+03  0.33278076121E+03  0.81208159843E+02 0.  0.
          5    1    3    3  502    0 -0.79624376115E+01  0.87657111847E+01 -0.22109515612E+03  0.22146195196E+03  0.47000000000E+01 0. -1.
        -11    1    4    4    0    0  0.18311374443E+02  0.12237639719E+02 -0.84279327235E+02  0.87109535983E+02  0.00000000000E+00 0.  1.
         12    1    4    4    0    0  0.69911713277E+02  0.34688759950E+02 -0.29192316297E+02  0.83325560610E+02  0.00000000000E+00 0. -1.
         -5    1    5    5    0  501 -0.45995605224E+01 -0.79888934490E+02 -0.34764687342E+03  0.35676860345E+03  0.47000000000E+01 0.  1.
         13    1    6    6    0    0 -0.47535823775E+02 -0.19928511445E+02 -0.88039996632E+02  0.10201882727E+03  0.00000000000E+00 0. -1.
        -14    1    6    6    0    0 -0.28125265812E+02  0.44125335082E+02 -0.22475096081E+03  0.23076193394E+03  0.00000000000E+00 0.  1.
</event>
<event>
12    1  0.2576962E-002  0.2517284E+03  0.7818608E-02  0.1112217E+00
         -2   -1    0    0    0  501 -0.00000000000E+00  0.00000000000E+00  0.88368874901E+02  0.88368874901E+02  0.00000000000E+00 0.  1.
          2   -1    0    0  502    0  0.00000000000E+00 -0.00000000000E+00 -0.77621840400E+03  0.77621840400E+03  0.00000000000E+00 0. -1.
          6    2    1    2  502    0  0.97831308427E+02 -0.15390075347E+03 -0.46473041766E+03  0.52909475756E+03  0.17524409990E+03 0.  0.
         24    2    3    3    0    0  0.25810862375E+02 -0.41180965043E+02 -0.85936011385E+02  0.12734858448E+03  0.80439986444E+02 0.  0.
         -6    2    1    2    0  501 -0.97831308427E+02  0.15390075347E+03 -0.22311911144E+03  0.33549252134E+03  0.17180421171E+03 0.  0.
        -24    2    5    5    0    0 -0.10960117462E+03  0.48093186643E+02 -0.13852431917E+03  0.19943319669E+03  0.79115364238E+02 0.  0.
          5    1    3    3  502    0  0.72020446052E+02 -0.11271978843E+03 -0.37879440628E+03  0.40174617307E+03  0.47000000000E+01 0. -1.
        -11    1    4    4    0    0 -0.19891887807E+02 -0.43747607573E+02 -0.47602828365E+02  0.67642957041E+02  0.00000000000E+00 0.  1.
         12    1    4    4    0    0  0.45702750182E+02  0.25666425299E+01 -0.38333183020E+02  0.59705627444E+02  0.00000000000E+00 0. -1.
         -5    1    5    5    0  501  0.11769866190E+02  0.10580756683E+03 -0.84594792263E+02  0.13605932466E+03  0.47000000000E+01 0.  1.
         11    1    6    6    0    0 -0.82240122467E+02  0.25808962013E+02 -0.40470317727E+02  0.95222827518E+02  0.00000000000E+00 0. -1.
        -12    1    6    6    0    0 -0.27361052150E+02  0.22284224629E+02 -0.98054001448E+02  0.10421036917E+03  0.00000000000E+00 0.  1.
</event>
<event>
12    1  0.2576962E-002  0.2108207E+03  0.7818608E-02  0.1140918E+00
          2   -1    0    0  502    0  0.00000000000E+00  0.00000000000E+00  0.10154898312E+04  0.10154898312E+04  0.00000000000E+00 0. -1.
         -2   -1    0    0    0  501 -0.00000000000E+00 -0.00000000000E+00 -0.46166359447E+02  0.46166359447E+02  0.00000000000E+00 0.  1.
          6    2    1    2  502    0 -0.12462479835E+02 -0.12117753181E+03  0.36679976819E+03  0.42377976290E+03  0.17380422861E+03 0.  0.
         24    2    3    3    0    0 -0.61577365501E+02 -0.22079592657E+02  0.15093477687E+03  0.18118450736E+03  0.75942336561E+02 0.  0.
         -6    2    1    2    0  501  0.12462479835E+02  0.12117753181E+03  0.60252370358E+03  0.63787642776E+03  0.17032972758E+03 0.  0.
        -24    2    5    5    0    0 -0.15412466817E+02 -0.99598048596E+00  0.28196347753E+03  0.29366090184E+03  0.80590238237E+02 0.  0.
          5    1    3    3  502    0  0.49114885667E+02 -0.99097939153E+02  0.21586499131E+03  0.24259525555E+03  0.47000000000E+01 0. -1.
        -11    1    4    4    0    0 -0.62183464560E+02 -0.22298333657E+02  0.15947710081E+03  0.17261791515E+03  0.00000000000E+00 0.  1.
         12    1    4    4    0    0  0.60609905856E+00  0.21874100047E+00 -0.85423239389E+01  0.85665922029E+01  0.00000000000E+00 0. -1.
         -5    1    5    5    0  501  0.27874946652E+02  0.12217351230E+03  0.32056022605E+03  0.34421552592E+03  0.47000000000E+01 0.  1.
         13    1    6    6    0    0  0.25521499397E+02  0.20025111484E+02  0.16110602686E+03  0.16433959934E+03  0.00000000000E+00 0. -1.
        -14    1    6    6    0    0 -0.40933966214E+02 -0.21021091970E+02  0.12085745067E+03  0.12932130250E+03  0.00000000000E+00 0.  1.
</event>
<event>
12    1  0.2576962E-002  0.1979874E+03  0.7818608E-02  0.1151448E+00
          1   -1    0    0  502    0  0.00000000000E+00  0.00000000000E+00  0.13141116334E+04  0.13141116334E+04  0.00000000000E+00 0. -1.
         -1   -1    0    0    0  501 -0.00000000000E+00 -0.00000000000E+00 -0.19210516753E+03  0.19210516753E+03  0.00000000000E+00 0.  1.
          6    2    1    2  502    0  0.37748407161E+02  0.89734271770E+02  0.12530595326E+04  0.12685630124E+04  0.17209515512E+03 0.  0.
         24    2    3    3    0    0  0.24195623495E+02  0.21095173506E+02  0.25749096856E+03  0.27052801328E+03  0.76507336509E+02 0.  0.
         -6    2    1    2    0  501 -0.37748407161E+02 -0.89734271770E+02 -0.13105306672E+03  0.23765378854E+03  0.17270563146E+03 0.  0.
        -24    2    5    5    0    0 -0.42127516464E+02 -0.22091820426E+02 -0.14115733866E+03  0.16895979948E+03  0.79744864471E+02 0.  0.
          5    1    3    3  502    0  0.13552783666E+02  0.68639098265E+02  0.99556856400E+03  0.99803499907E+03  0.47000000000E+01 0. -1.
        -13    1    4    4    0    0 -0.12975679572E+01  0.45408684528E+02  0.17560525495E+03  0.18138588114E+03  0.00000000000E+00 0.  1.
         14    1    4    4    0    0  0.25493191452E+02 -0.24313511022E+02  0.81885713611E+02  0.89142132139E+02  0.00000000000E+00 0. -1.
         -5    1    5    5    0  501  0.43791093028E+01 -0.67642451344E+02  0.10104271934E+02  0.68693989064E+02  0.47000000000E+01 0.  1.
         11    1    6    6    0    0  0.18135900696E+02  0.37342485492E+01 -0.69102468242E+02  0.71540244782E+02  0.00000000000E+00 0. -1.
        -12    1    6    6    0    0 -0.60263417160E+02 -0.25826068975E+02 -0.72054870415E+02  0.97419554695E+02  0.00000000000E+00 0.  1.
</event>
<event>
12    1  0.2576962E-002  0.1969687E+03  0.7818608E-02  0.1152322E+00
          2   -1    0    0  502    0  0.00000000000E+00  0.00000000000E+00  0.59822011594E+03  0.59822011594E+03  0.00000000000E+00 0. -1.
         -2   -1    0    0    0  501 -0.00000000000E+00 -0.00000000000E+00 -0.64915464966E+02  0.64915464966E+02  0.00000000000E+00 0.  1.
          6    2    1    2  502    0 -0.44422371032E+02  0.84041817568E+02  0.27406949190E+03  0.33648397331E+03  0.17050221041E+03 0.  0.
         24    2    3    3    0    0 -0.69087179373E+02  0.86218152087E+02  0.11857744827E+03  0.17896268955E+03  0.75897463148E+02 0.  0.
         -6    2    1    2    0  501  0.44422371032E+02 -0.84041817568E+02  0.25923515907E+03  0.32665160759E+03  0.17453375288E+03 0.  0.
        -24    2    5    5    0    0  0.31728142528E+02 -0.11430299288E+03  0.25640179667E+03  0.29337999640E+03  0.79108101627E+02 0.  0.
          5    1    3    3  502    0  0.24664808341E+02 -0.21763345192E+01  0.15549204363E+03  0.15752128376E+03  0.47000000000E+01 0. -1.
        -13    1    4    4    0    0 -0.58310838035E+02  0.13874363582E+02  0.64131045696E+02  0.87780651736E+02  0.00000000000E+00 0.  1.
         14    1    4    4    0    0 -0.10776341338E+02  0.72343788506E+02  0.54446402570E+02  0.91182037819E+02  0.00000000000E+00 0. -1.
         -5    1    5    5    0  501  0.12694228504E+02  0.30261175313E+02  0.28333623992E+01  0.33271611189E+02  0.47000000000E+01 0.  1.
         13    1    6    6    0    0  0.49167084756E+01 -0.97829240333E+01  0.11494949404E+03  0.11546976143E+03  0.00000000000E+00 0. -1.
        -14    1    6    6    0    0  0.26811434053E+02 -0.10452006885E+03  0.14145230263E+03  0.17791023497E+03  0.00000000000E+00 0.  1.
</event>
<event>
12    1  0.2576962E-002  0.2129989E+03  0.7818608E-02  0.1139213E+00
          1   -1    0    0  502    0  0.00000000000E+00  0.00000000000E+00  0.10932614048E+04  0.10932614048E+04  0.00000000000E+00 0.  1.
         -1   -1    0    0    0  501 -0.00000000000E+00 -0.00000000000E+00 -0.11330344895E+03  0.11330344895E+03  0.00000000000E+00 0. -1.
          6    2    1    2  502    0 -0.12055276730E+03  0.53658019263E+02  0.96774892832E+03  0.99029564895E+03  0.16350942278E+03 0.  0.
         24    2    3    3    0    0 -0.67545216235E+02  0.25296226360E+02  0.29122294238E+03  0.31108751339E+03  0.82233712756E+02 0.  0.
         -6    2    1    2    0  501  0.12055276730E+03 -0.53658019263E+02  0.12209027538E+02  0.21626920480E+03  0.17091271414E+03 0.  0.
        -24    2    5    5    0    0  0.50815546794E+02  0.20108790069E+02  0.38492199869E+02  0.11130389038E+03  0.88996198396E+02 0.  0.
          5    1    3    3  502    0 -0.53007551063E+02  0.28361792903E+02  0.67652598593E+03  0.67920813556E+03  0.47000000000E+01 0. -1.
        -11    1    4    4    0    0  0.31796650819E+01 -0.41075297244E+01  0.15278732513E+03  0.15287559907E+03  0.00000000000E+00 0.  1.
         12    1    4    4    0    0 -0.70724881317E+02  0.29403756084E+02  0.13843561725E+03  0.15821191432E+03  0.00000000000E+00 0. -1.
         -5    1    5    5    0  501  0.69737220504E+02 -0.73766809333E+02 -0.26283172331E+02  0.10496531442E+03  0.47000000000E+01 0.  1.
         13    1    6    6    0    0  0.30799969518E+02 -0.22318903356E+02 -0.14340160925E+02  0.40649868200E+02  0.00000000000E+00 0. -1.
        -14    1    6    6    0    0  0.20015577275E+02  0.42427693425E+02  0.52832360794E+02  0.70654022179E+02  0.00000000000E+00 0.  1.
</event>
<event>
12    1  0.2576962E-002  0.1758764E+03  0.7818608E-02  0.1171855E+00
          2   -1    0    0  502    0  0.00000000000E+00  0.00000000000E+00  0.80350306223E+03  0.80350306223E+03  0.00000000000E+00 0.  1.
         -2   -1    0    0    0  501 -0.00000000000E+00 -0.00000000000E+00 -0.60670773309E+02  0.60670773309E+02  0.00000000000E+00 0. -1.
          6    2    1    2  502    0 -0.70786481312E+00  0.34878617043E+02  0.11031179404E+03  0.20767915630E+03  0.17246715936E+03 0.  0.
         24    2    3    3    0    0  0.50672104979E+02  0.52768964218E+02  0.10853181465E+03  0.15304195154E+03  0.79312409692E+02 0.  0.
         -6    2    1    2    0  501  0.70786481312E+00 -0.34878617043E+02  0.63252049488E+03  0.65649467923E+03  0.17229645505E+03 0.  0.
        -24    2    5    5    0    0  0.68011955499E+02 -0.23330863141E+02  0.41565789524E+03  0.42908608580E+03  0.78571164504E+02 0.  0.
          5    1    3    3  502    0 -0.51379969792E+02 -0.17890347176E+02  0.17799793901E+01  0.54637204765E+02  0.47000000000E+01 0. -1.
        -11    1    4    4    0    0  0.26935771241E+02  0.70240029048E+02  0.59840357687E+02  0.96125261306E+02  0.00000000000E+00 0.  1.
         12    1    4    4    0    0  0.23736333738E+02 -0.17471064830E+02  0.48691456962E+02  0.56916690230E+02  0.00000000000E+00 0. -1.
         -5    1    5    5    0  501 -0.67304090686E+02 -0.11547753902E+02  0.21686259964E+03  0.22740859343E+03  0.47000000000E+01 0.  1.
         11    1    6    6    0    0  0.55674315531E+02  0.21625685624E+02  0.22171443866E+03  0.22961836163E+03  0.00000000000E+00 0. -1.
        -12    1    6    6    0    0  0.12337639968E+02 -0.44956548765E+02  0.19394345658E+03  0.19946772418E+03  0.00000000000E+00 0.  1.
</event>
<event>
12    1  0.2576962E-002  0.3101288E+03  0.7818608E-02  0.1080284E+00
         -2   -1    0    0    0  501 -0.00000000000E+00  0.00000000000E+00  0.20208444385E+03  0.20208444385E+03  0.00000000000E+00 0.  1.
          2   -1    0    0  502    0  0.00000000000E+00 -0.00000000000E+00 -0.53541294066E+03  0.53541294066E+03  0.00000000000E+00 0. -1.
          6    2    1    2  502    0 -0.47599900302E+02 -0.25336938676E+03 -0.28972455247E+03  0.42465312065E+03  0.17299757202E+03 0.  0.
         24    2    3    3    0    0 -0.52637751187E+02 -0.56443297484E+02 -0.75372213967E+02  0.13349289054E+03  0.78630798713E+02 0.  0.
         -6    2    1    2    0  501  0.47599900302E+02  0.25336938676E+03 -0.43603944341E+02  0.31284426386E+03  0.17178018749E+03 0.  0.
        -24    2    5    5    0    0  0.59761257970E+02  0.60915074785E+02 -0.47760655735E+01  0.11607979810E+03  0.78547147838E+02 0.  0.
          5    1    3    3  502    0  0.50378508849E+01 -0.19692608927E+03 -0.21435233850E+03  0.29116023011E+03  0.47000000000E+01 0. -1.
        -11    1    4    4    0    0  0.15791543453E+02 -0.90139900973E+01 -0.38211325586E+02  0.42317020986E+02  0.00000000000E+00 0.  1.
         12    1    4    4    0    0 -0.68429294639E+02 -0.47429307387E+02 -0.37160888380E+02  0.91175869556E+02  0.00000000000E+00 0. -1.
         -5    1    5    5    0  501 -0.12161357668E+02  0.19245431197E+03 -0.38827878768E+02  0.19676446576E+03  0.47000000000E+01 0.  1.
         11    1    6    6    0    0  0.42753129931E+02  0.45439775671E+02 -0.39929116588E+02  0.74073866400E+02  0.00000000000E+00 0. -1.
        -12    1    6    6    0    0  0.17008128038E+02  0.15475299114E+02  0.35153051014E+02  0.42005931696E+02  0.00000000000E+00 0.  1.
</event>
<event>
12    1  0.2576962E-002  0.2258738E+03  0.7818608E-02  0.1129578E+00
         -1   -1    0    0    0  501 -0.00000000000E+00  0.00000000000E+00  0.42290637105E+02  0.42290637105E+02  0.00000000000E+00 0. -1.
          1   -1    0    0  502    0  0.00000000000E+00 -0.00000000000E+00 -0.12154765376E+04  0.12154765376E+04  0.00000000000E+00 0.  1.
          6    2    1    2  502    0  0.34013089047E+02  0.14281115245E+03 -0.53264419193E+03  0.57862207906E+03  0.17187716451E+03 0.  0.
         24    2    3    3    0    0  0.44669760565E+02  0.14481438418E+02 -0.18716356584E+03  0.20989313639E+03  0.82582254509E+02 0.  0.
         -6    2    1    2    0  501 -0.34013089047E+02 -0.14281115245E+03 -0.64054170852E+03  0.67914509560E+03  0.17144230820E+03 0.  0.
        -24    2    5    5    0    0 -0.22672371939E+02 -0.73421600069E+02 -0.56560775346E+03  0.57628251998E+03  0.79275748171E+02 0.  0.
          5    1    3    3  502    0 -0.10656671518E+02  0.12832971403E+03 -0.34548062610E+03  0.36872894266E+03  0.47000000000E+01 0. -1.
        -13    1    4    4    0    0  0.42519541932E+02  0.20518318279E+02 -0.19450237805E+03  0.20015016337E+03  0.00000000000E+00 0.  1.
         14    1    4    4    0    0  0.21502186330E+01 -0.60368798609E+01  0.73388122105E+01  0.97429730209E+01  0.00000000000E+00 0. -1.
         -5    1    5    5    0  501 -0.11340717108E+02 -0.69389552381E+02 -0.74933955051E+02  0.10286257562E+03  0.47000000000E+01 0.  1.
         13    1    6    6    0    0 -0.18360346717E+02  0.95485076954E+01 -0.51460763344E+02  0.55466084185E+02  0.00000000000E+00 0. -1.
        -14    1    6    6    0    0 -0.43120252218E+01 -0.82970107765E+02 -0.51414699012E+03  0.52081643579E+03  0.00000000000E+00 0.  1.
</event>
<event>
12    1  0.2576962E-002  0.1722438E+03  0.7818608E-02  0.1175528E+00
         -2   -1    0    0    0  501 -0.00000000000E+00  0.00000000000E+00  0.28962326575E+02  0.28962326575E+02  0.00000000000E+00 0.  1.
          2   -1    0    0  502    0  0.00000000000E+00 -0.00000000000E+00 -0.10248464495E+04  0.10248464495E+04  0.00000000000E+00 0. -1.
          6    2    1    2  502    0 -0.12205985331E+01  0.53888277551E+01 -0.50728460481E+03  0.53551607558E+03  0.17149130476E+03 0.  0.
         24    2    3    3    0    0  0.44981585424E+02 -0.46018949083E+02 -0.30819825718E+03  0.32472028546E+03  0.79473337402E+02 0.  0.
         -6    2    1    2    0  501  0.12205985331E+01 -0.53888277551E+01 -0.48859951814E+03  0.51829270052E+03  0.17282159864E+03 0.  0.
        -24    2    5    5    0    0  0.65020612487E+02  0.14285657980E+02 -0.26693533902E+03  0.28674437840E+03  0.80846170316E+02 0.  0.
          5    1    3    3  502    0 -0.46202183957E+02  0.51407776839E+02 -0.19908634763E+03  0.21079579013E+03  0.47000000000E+01 0. -1.
        -11    1    4    4    0    0  0.72844775945E+01  0.16748756981E+02 -0.18829953958E+02  0.26232644555E+02  0.00000000000E+00 0.  1.
         12    1    4    4    0    0  0.37697107830E+02 -0.62767706065E+02 -0.28936830322E+03  0.29848764090E+03  0.00000000000E+00 0. -1.
         -5    1    5    5    0  501 -0.63800013954E+02 -0.19674485736E+02 -0.22166417912E+03  0.23154832211E+03  0.47000000000E+01 0.  1.
         11    1    6    6    0    0  0.40290044975E+02  0.24700835766E+02 -0.25126283290E+03  0.25566859449E+03  0.00000000000E+00 0. -1.
        -12    1    6    6    0    0  0.24730567512E+02 -0.10415177786E+02 -0.15672506127E+02  0.31075783917E+02  0.00000000000E+00 0.  1.
</event>
<event>
12    1  0.2576962E-002  0.2216849E+03  0.7818608E-02  0.1132633E+00
          3   -1    0    0  502    0  0.00000000000E+00  0.00000000000E+00  0.37188051588E+02  0.37188051588E+02  0.00000000000E+00 0.  1.
         -3   -1    0    0    0  501 -0.00000000000E+00 -0.00000000000E+00 -0.14056321647E+04  0.14056321647E+04  0.00000000000E+00 0. -1.
          6    2    1    2  502    0  0.93370059020E+02  0.10309111441E+03 -0.86171312569E+03  0.88985836141E+03  0.17306832927E+03 0.  0.
         24    2    3    3    0    0  0.11116883691E+02  0.50754850410E+02 -0.64987018251E+03  0.65661129936E+03  0.78150523904E+02 0.  0.
         -6    2    1    2    0  501 -0.93370059020E+02 -0.10309111441E+03 -0.50673098744E+03  0.55296185490E+03  0.17217657664E+03 0.  0.
        -24    2    5    5    0    0 -0.59766344016E+01 -0.31388234062E+02 -0.34502070816E+03  0.35560122523E+03  0.79949990178E+02 0.  0.
          5    1    3    3  502    0  0.82253175329E+02  0.52336264001E+02 -0.21184294318E+03  0.23324706205E+03  0.47000000000E+01 0. -1.
        -11    1    4    4    0    0 -0.96821384433E+01  0.21239542801E+01 -0.84822880198E+01  0.13046233045E+02  0.00000000000E+00 0.  1.
         12    1    4    4    0    0  0.20799022135E+02  0.48630896130E+02 -0.64138789449E+03  0.64356506631E+03  0.00000000000E+00 0. -1.
         -5    1    5    5    0  501 -0.87393424619E+02 -0.71702880349E+02 -0.16171027929E+03  0.19736062967E+03  0.47000000000E+01 0.  1.
         11    1    6    6    0    0 -0.35104357161E+01 -0.55831967722E+02 -0.17261275094E+03  0.18145162872E+03  0.00000000000E+00 0. -1.
        -12    1    6    6    0    0 -0.24661986855E+01  0.24443733661E+02 -0.17240795722E+03  0.17414959651E+03  0.00000000000E+00 0.  1.
</event>
<event>
12    1  0.2576962E-002  0.1917159E+03  0.7818608E-02  0.1156923E+00
         -1   -1    0    0    0  501 -0.00000000000E+00  0.00000000000E+00  0.16156560897E+04  0.16156560897E+04  0.00000000000E+00 0. -1.
          1   -1    0    0  502    0  0.00000000000E+00 -0.00000000000E+00 -0.28742326050E+02  0.28742326050E+02  0.00000000000E+00 0.  1.
          6    2    1    2  502    0  0.71339330951E+02  0.46746862545E+02  0.11686126461E+04  0.11842201118E+04  0.17160182760E+03 0.  0.
         24    2    3    3    0    0  0.45286395588E+01 -0.25498821579E+02  0.72444728043E+03  0.72926069666E+03  0.79539946447E+02 0.  0.
         -6    2    1    2    0  501 -0.71339330951E+02 -0.46746862545E+02  0.41830111753E+03  0.46017830394E+03  0.17179545161E+03 0.  0.
        -24    2    5    5    0    0 -0.58945470723E+02 -0.48494082320E+02  0.42893639555E+03  0.44309440254E+03  0.80746353454E+02 0.  0.
          5    1    3    3  502    0  0.66810691392E+02  0.72245684124E+02  0.44416536566E+03  0.45495941513E+03  0.47000000000E+01 0. -1.
        -13    1    4    4    0    0  0.29290103727E+02 -0.16212726939E+02  0.13052393974E+03  0.13474888325E+03  0.00000000000E+00 0.  1.
         14    1    4    4    0    0 -0.24761464168E+02 -0.92860946404E+01  0.59392334070E+03  0.59451181341E+03  0.00000000000E+00 0. -1.
         -5    1    5    5    0  501 -0.12393860228E+02  0.17472197749E+01 -0.10635278026E+02  0.17083901398E+02  0.47000000000E+01 0.  1.
         13    1    6    6    0    0 -0.71862100174E+02 -0.22997713203E+02  0.36972727534E+03  0.37734773669E+03  0.00000000000E+00 0. -1.
        -14    1    6    6    0    0  0.12916629450E+02 -0.25496369117E+02  0.59209120212E+02  0.65746665853E+02  0.00000000000E+00 0.  1.
</event>
<event>
12    1  0.2576962E-002  0.1831802E+03  0.7818608E-02  0.1164760E+00
          1   -1    0    0  502    0  0.00000000000E+00  0.00000000000E+00  0.56134411271E+02  0.56134411271E+02  0.00000000000E+00 0.  1.
         -1   -1    0    0    0  501 -0.00000000000E+00 -0.00000000000E+00 -0.63179704012E+03  0.63179704012E+03  0.00000000000E+00 0. -1.
          6    2    1    2  502    0  0.58390707689E+02 -0.31332318987E+02 -0.20997572838E+03  0.27951171270E+03  0.17217956345E+03 0.  0.
         24    2    3    3    0    0 -0.32401168987E+02 -0.33015482052E+02 -0.86358101852E+02  0.12605355718E+03  0.79321621987E+02 0.  0.
         -6    2    1    2    0  501 -0.58390707689E+02  0.31332318987E+02 -0.36568690046E+03  0.40841973869E+03  0.16937704927E+03 0.  0.
        -24    2    5    5    0    0 -0.86796888639E+02  0.58459016924E+02 -0.20913864390E+03  0.24695080827E+03  0.79338343787E+02 0.  0.
          5    1    3    3  502    0  0.90791876676E+02  0.16831630643E+01 -0.12361762653E+03  0.15345815552E+03  0.47000000000E+01 0. -1.
        -13    1    4    4    0    0 -0.26553480571E+02 -0.17287255816E+02  0.59447719296E+01  0.32237817193E+02  0.00000000000E+00 0.  1.
         14    1    4    4    0    0 -0.58476884159E+01 -0.15728226235E+02 -0.92302873782E+02  0.93815739984E+02  0.00000000000E+00 0. -1.
         -5    1    5    5    0  501  0.28406180950E+02 -0.27126697936E+02 -0.15654825657E+03  0.16146893042E+03  0.47000000000E+01 0.  1.
         11    1    6    6    0    0 -0.74349158233E+02  0.60439623336E+02 -0.21317294021E+03  0.23371659727E+03  0.00000000000E+00 0. -1.
        -12    1    6    6    0    0 -0.12447730406E+02 -0.19806064120E+01  0.40342963150E+01  0.13234211000E+02  0.00000000000E+00 0.  1.
</event>
<event>
12    1  0.2576962E-002  0.1995049E+03  0.7818608E-02  0.1150157E+00
          1   -1    0    0  502    0  0.00000000000E+00  0.00000000000E+00  0.97958204969E+03  0.97958204969E+03  0.00000000000E+00 0.  1.
         -1   -1    0    0    0  501 -0.00000000000E+00 -0.00000000000E+00 -0.40787829264E+02  0.40787829264E+02  0.00000000000E+00 0. -1.
          6    2    1    2  502    0  0.10770755446E+03 -0.35033210769E+02  0.48234944528E+03  0.51969755869E+03  0.15683214596E+03 0.  0.
         24    2    3    3    0    0  0.11747912851E+03 -0.61274099134E+02  0.45430205293E+03  0.47978748353E+03  0.79055760060E+02 0.  0.
         -6    2    1    2    0  501 -0.10770755446E+03  0.35033210769E+02  0.45644477514E+03  0.50067232026E+03  0.17176348964E+03 0.  0.
        -24    2    5    5    0    0 -0.12258262154E+03  0.67026239497E+02  0.30232838383E+03  0.34249908112E+03  0.79900894950E+02 0.  0.
          5    1    3    3  502    0 -0.97715740566E+01  0.26240888365E+02  0.28047392355E+02  0.39910075164E+02  0.47000000000E+01 0. -1.
        -11    1    4    4    0    0  0.12614931478E+03 -0.44370940901E+02  0.41715387262E+03  0.43806367512E+03  0.00000000000E+00 0.  1.
         12    1    4    4    0    0 -0.86701862728E+01 -0.16903158233E+02  0.37148180305E+02  0.41723808410E+02  0.00000000000E+00 0. -1.
         -5    1    5    5    0  501  0.14875067086E+02 -0.31993028728E+02  0.15411639131E+03  0.15817323914E+03  0.47000000000E+01 0.  1.
         11    1    6    6    0    0  0.21099507528E+01 -0.34768799034E+01  0.66158081310E+02  0.66282971484E+02  0.00000000000E+00 0. -1.
        -12    1    6    6    0    0 -0.12469257229E+03  0.70503119401E+02  0.23617030252E+03  0.27621610964E+03  0.00000000000E+00 0.  1.
</event>
<event>
12    1  0.2576962E-002  0.1879965E+03  0.7818608E-02  0.1160281E+00
          2   -1    0    0  502    0  0.00000000000E+00  0.00000000000E+00  0.13152560793E+03  0.13152560793E+03  0.00000000000E+00 0.  1.
         -2   -1    0    0    0  501 -0.00000000000E+00 -0.00000000000E+00 -0.27043907146E+03  0.27043907146E+03  0.00000000000E+00 0. -1.
          6    2    1    2  502    0 -0.16980060797E+02 -0.79351659957E+02 -0.84695945828E+02  0.20449034494E+03  0.16750489405E+03 0.  0.
         24    2    3    3    0    0  0.54824807840E+02 -0.33399601260E+02 -0.20213248561E+02  0.97496704448E+02  0.70538918632E+02 0.  0.
         -6    2    1    2    0  501  0.16980060797E+02  0.79351659957E+02 -0.54217517701E+02  0.19747433445E+03  0.17167284334E+03 0.  0.
        -24    2    5    5    0    0 -0.18638224288E+02  0.63766119655E+02  0.27468466082E+02  0.10688591772E+03  0.79098554718E+02 0.  0.
          5    1    3    3  502    0 -0.71804868637E+02 -0.45952058697E+02 -0.64482697266E+02  0.10699364049E+03  0.47000000000E+01 0. -1.
        -13    1    4    4    0    0 -0.12014045363E+01 -0.34713778266E+02  0.66240339154E+01  0.35360537322E+02  0.00000000000E+00 0.  1.
         14    1    4    4    0    0  0.56026212377E+02  0.13141770058E+01 -0.26837282477E+02  0.62136167127E+02  0.00000000000E+00 0. -1.
         -5    1    5    5    0  501  0.35618285085E+02  0.15585540302E+02 -0.81685983783E+02  0.90588416729E+02  0.47000000000E+01 0.  1.
         13    1    6    6    0    0  0.30943420790E+02  0.19780023376E+02  0.59794542785E+01  0.37208849598E+02  0.00000000000E+00 0. -1.
        -14    1    6    6    0    0 -0.49581645077E+02  0.43986096279E+02  0.21489011803E+02  0.69677068127E+02  0.00000000000E+00 0.  1.
</event>
<event>
12    1  0.2576962E-002  0.1949036E+03  0.7818608E-02  0.1154112E+00
         -3   -1    0    0    0  501 -0.00000000000E+00  0.00000000000E+00  0.56693263751E+02  0.56693263751E+02  0.00000000000E+00 0.  1.
          3   -1    0    0  502    0  0.00000000000E+00 -0.00000000000E+00 -0.80869291076E+03  0.80869291076E+03  0.00000000000E+00 0. -1.
          6    2    1    2  502    0 -0.30946050049E+02  0.84306940552E+02 -0.55569959003E+03  0.58900112559E+03  0.17336370252E+03 0.  0.
         24    2    3    3    0    0 -0.19037104762E+02  0.34424187633E+02 -0.17163355673E+03  0.20149768051E+03  0.97958161492E+02 0.  0.
         -6    2    1    2    0  501  0.30946050049E+02 -0.84306940552E+02 -0.19630005698E+03  0.27638504892E+03  0.17259682690E+03 0.  0.
        -24    2    5    5    0    0  0.86556712245E+02 -0.52750895280E+02 -0.14836631835E+03  0.19633467077E+03  0.79120270080E+02 0.  0.
          5    1    3    3  502    0 -0.11908945288E+02  0.49882752920E+02 -0.38406603330E+03  0.38750344509E+03  0.47000000000E+01 0. -1.
        -11    1    4    4    0    0 -0.22917244331E+02 -0.25501242032E+02 -0.11094026922E+03  0.11611742663E+03  0.00000000000E+00 0.  1.
         12    1    4    4    0    0  0.38801395695E+01  0.59925429665E+02 -0.60693287512E+02  0.85380253880E+02  0.00000000000E+00 0. -1.
         -5    1    5    5    0  501 -0.55610662196E+02 -0.31556045272E+02 -0.47933738628E+02  0.80050378150E+02  0.47000000000E+01 0.  1.
         13    1    6    6    0    0  0.23911500159E+02 -0.53673834154E+01 -0.10247411831E+03  0.10536372036E+03  0.00000000000E+00 0. -1.
        -14    1    6    6    0    0  0.62645212086E+02 -0.47383511865E+02 -0.45892200044E+02  0.90970950412E+02  0.00000000000E+00 0.  1.
</event>
<event>
12    1  0.2576962E-002  0.2010356E+03  0.7818608E-02  0.1148868E+00
          1   -1    0    0  502    0  0.00000000000E+00  0.00000000000E+00  0.14585878594E+03  0.14585878594E+03  0.00000000000E+00 0. -1.
         -1   -1    0    0    0  501 -0.00000000000E+00 -0.00000000000E+00 -0.58010733030E+03  0.58010733030E+03  0.00000000000E+00 0.  1.
          6    2    1    2  502    0  0.90031370431E+02  0.48459979496E+02  0.45685341820E+02  0.20527403746E+03  0.17203564376E+03 0.  0.
         24    2    3    3    0    0  0.18808208015E+01  0.40883674585E+02 -0.23873800572E+02  0.92630865955E+02  0.79595895871E+02 0.  0.
         -6    2    1    2    0  501 -0.90031370431E+02 -0.48459979496E+02 -0.47993388619E+03  0.52069207878E+03  0.17415420903E+03 0.  0.
        -24    2    5    5    0    0 -0.11506706614E+03  0.48122221716E+01 -0.28967532540E+03  0.32148082538E+03  0.78578239663E+02 0.  0.
          5    1    3    3  502    0  0.88150549630E+02  0.75763049118E+01  0.69559142392E+02  0.11264317150E+03  0.47000000000E+01 0. -1.
        -13    1    4    4    0    0  0.12761180318E+02  0.63149549213E+02 -0.20566386043E+02  0.67629058280E+02  0.00000000000E+00 0.  1.
         14    1    4    4    0    0 -0.10880359517E+02 -0.22265874629E+02 -0.33074145293E+01  0.25001807676E+02  0.00000000000E+00 0. -1.
         -5    1    5    5    0  501  0.25035695708E+02 -0.53272201668E+02 -0.19025856079E+03  0.19921125340E+03  0.47000000000E+01 0.  1.
         13    1    6    6    0    0 -0.43414284282E+01 -0.13428266049E+02 -0.41735304505E+01  0.14716816446E+02  0.00000000000E+00 0. -1.
        -14    1    6    6    0    0 -0.11072563771E+03  0.18240488221E+02 -0.28550179495E+03  0.30676400893E+03  0.00000000000E+00 0.  1.
</event>
<event>
12    1  0.2576962E-002  0.2237188E+03  0.7818608E-02  0.1131140E+00
          2   -1    0    0  502    0  0.00000000000E+00  0.00000000000E+00  0.10557141136E+04  0.10557141136E+04  0.00000000000E+00 0.  1.
         -2   -1    0    0    0  501 -0.00000000000E+00 -0.00000000000E+00 -0.52510820984E+02  0.52510820984E+02  0.00000000000E+00 0. -1.
          6    2    1    2  502    0  0.49908989964E+02 -0.13428880069E+03  0.67511182262E+03  0.71133775752E+03  0.17233990530E+03 0.  0.
         24    2    3    3    0    0  0.78429396203E+02 -0.76996152804E+02  0.58623687884E+03  0.60171701721E+03  0.79436219392E+02 0.  0.
         -6    2    1    2    0  501 -0.49908989964E+02  0.13428880069E+03  0.32809146999E+03  0.39688717705E+03  0.17132142120E+03 0.  0.
        -24    2    5    5    0    0 -0.45342924560E+02  0.15526203947E+03  0.32769074721E+03  0.37491045581E+03  0.83751670767E+02 0.  0.
          5    1    3    3  502    0 -0.28520406238E+02 -0.57292647890E+02  0.88874943779E+02  0.10962074031E+03  0.47000000000E+01 0. -1.
        -11    1    4    4    0    0  0.15403914030E+02 -0.70588064312E+02  0.31579544437E+03  0.32395480870E+03  0.00000000000E+00 0.  1.
         12    1    4    4    0    0  0.63025482172E+02 -0.64080884924E+01  0.27044143447E+03  0.27776220851E+03  0.00000000000E+00 0. -1.
         -5    1    5    5    0  501 -0.45660654041E+01 -0.20973238776E+02  0.40072277294E+00  0.21976721247E+02  0.47000000000E+01 0.  1.
         13    1    6    6    0    0  0.76382582495E+01  0.68885040870E+02  0.72310523872E+02  0.10016138831E+03  0.00000000000E+00 0. -1.
        -14    1    6    6    0    0 -0.52981182810E+02  0.86376998601E+02  0.25538022334E+03  0.27474906750E+03  0.00000000000E+00 0.  1.
</event>
<event>
12    1  0.2576962E-002  0.1917042E+03  0.7818608E-02  0.1156933E+00
          2   -1    0    0  502    0  0.00000000000E+00  0.00000000000E+00  0.13047623257E+04  0.13047623257E+04  0.00000000000E+00 0.  1.
         -2   -1    0    0    0  501 -0.00000000000E+00 -0.00000000000E+00 -0.40829176624E+02  0.40829176624E+02  0.00000000000E+00 0. -1.
          6    2    1    2  502    0 -0.10856480162E+02 -0.81924941838E+02  0.25655842642E+03  0.32007830682E+03  0.17262194841E+03 0.  0.
         24    2    3    3    0    0  0.78087411304E+01  0.17240044694E+02  0.16361152537E+03  0.18280740148E+03  0.79319727820E+02 0.  0.
         -6    2    1    2    0  501  0.10856480162E+02  0.81924941838E+02  0.10073747226E+04  0.10255131955E+04  0.17333182930E+03 0.  0.
        -24    2    5    5    0    0 -0.41172214121E+02  0.99351453671E+02  0.67549848617E+03  0.68909887552E+03  0.83625312364E+02 0.  0.
          5    1    3    3  502    0 -0.18665221292E+02 -0.99164986532E+02  0.92946901054E+02  0.13727090535E+03  0.47000000000E+01 0. -1.
        -13    1    4    4    0    0  0.26618276278E+01  0.12503423561E+01  0.16583690096E+03  0.16586297478E+03  0.00000000000E+00 0.  1.
         14    1    4    4    0    0  0.51469135026E+01  0.15989702338E+02 -0.22253755932E+01  0.16944426694E+02  0.00000000000E+00 0. -1.
         -5    1    5    5    0  501  0.52028694283E+02 -0.17426511833E+02  0.33187623647E+03  0.33641431996E+03  0.47000000000E+01 0.  1.
         11    1    6    6    0    0 -0.37625928342E+02  0.11265841766E+03  0.54032858798E+03  0.55322925857E+03  0.00000000000E+00 0. -1.
        -12    1    6    6    0    0 -0.35462857795E+01 -0.13306963990E+02  0.13516989819E+03  0.13586961695E+03  0.00000000000E+00 0.  1.
</event>
<event>
12    1  0.2576962E-002  0.2493859E+03  0.7818608E-02  0.1113694E+00
          2   -1    0    0  502    0  0.00000000000E+00  0.00000000000E+00  0.23255664578E+03  0.23255664578E+03  0.00000000000E+00 0.  1.
         -2   -1    0    0    0  501 -0.00000000000E+00 -0.00000000000E+00 -0.27283047877E+03  0.27283047877E+03  0.00000000000E+00 0. -1.
          6    2    1    2  502    0 -0.15791058174E+03  0.87479248649E+02 -0.55665984938E+02  0.25537123538E+03  0.17183537241E+03 0.  0.
         24    2    3    3    0    0 -0.15457370259E+03  0.75254815765E+02 -0.96446585775E+02  0.21240940434E+03  0.79116966046E+02 0.  0.
         -6    2    1    2    0  501  0.15791058174E+03 -0.87479248649E+02  0.15392151946E+02  0.25001588917E+03  0.17228655120E+03 0.  0.
        -24    2    5    5    0    0  0.11256514628E+03 -0.10769616088E+03  0.61133843492E+02  0.18234518352E+03  0.72408866222E+02 0.  0.
          5    1    3    3  502    0 -0.33368791479E+01  0.12224432885E+02  0.40780600837E+02  0.42961831041E+02  0.47000000000E+01 0. -1.
        -11    1    4    4    0    0 -0.51589578212E+02  0.15424260994E+02  0.74500875579E+01  0.54358957053E+02  0.00000000000E+00 0.  1.
         12    1    4    4    0    0 -0.10298412438E+03  0.59830554771E+02 -0.10389667333E+03  0.15805044729E+03  0.00000000000E+00 0. -1.
         -5    1    5    5    0  501  0.45345435465E+02  0.20216912232E+02 -0.45741691546E+02  0.67670705650E+02  0.47000000000E+01 0.  1.
         11    1    6    6    0    0  0.20759895216E+02 -0.62961233742E+02  0.67373413749E+01  0.66636941501E+02  0.00000000000E+00 0. -1.
        -12    1    6    6    0    0  0.91805251061E+02 -0.44734927139E+02  0.54396502117E+02  0.11570824202E+03  0.00000000000E+00 0.  1.
</event>
<event>
12    1  0.2576962E-002  0.1765848E+03  0.7818608E-02  0.1171150E+00
         -2   -1    0    0    0  501 -0.00000000000E+00  0.00000000000E+00  0.49044998037E+02  0.49044998037E+02  0.00000000000E+00 0. -1.
          2   -1    0    0  502    0  0.00000000000E+00 -0.00000000000E+00 -0.10112192176E+04  0.10112192176E+04  0.00000000000E+00 0.  1.
          6    2    1    2  502    0  0.10745135507E+02 -0.24426756980E+02 -0.15259471805E+03  0.23094055914E+03  0.17127833922E+03 0.  0.
         24    2    3    3    0    0 -0.29794796165E+02  0.29715862555E+02 -0.37988734107E+02  0.97780764661E+02  0.79669138646E+02 0.  0.
         -6    2    1    2    0  501 -0.10745135507E+02  0.24426756980E+02 -0.80957950149E+03  0.82932365647E+03  0.17789500713E+03 0.  0.
        -24    2    5    5    0    0 -0.41625986805E+02 -0.28721771110E+02 -0.67235598231E+03  0.67888836397E+03  0.79178159057E+02 0.  0.
          5    1    3    3  502    0  0.40539931672E+02 -0.54142619536E+02 -0.11460598394E+03  0.13315979448E+03  0.47000000000E+01 0. -1.
        -11    1    4    4    0    0  0.15423847301E+02 -0.19014163530E+01 -0.39642829492E+02  0.42580093704E+02  0.00000000000E+00 0.  1.
         12    1    4    4    0    0 -0.45218643466E+02  0.31617278908E+02  0.16540953850E+01  0.55200670956E+02  0.00000000000E+00 0. -1.
         -5    1    5    5    0  501  0.30880851297E+02  0.53148528090E+02 -0.13722351918E+03  0.15043529250E+03  0.47000000000E+01 0.  1.
         11    1    6    6    0    0 -0.63330135008E+02 -0.31825143799E+02 -0.46401486735E+03  0.46939678620E+03  0.00000000000E+00 0. -1.
        -12    1    6    6    0    0  0.21704148203E+02  0.31033726893E+01 -0.20834111496E+03  0.20949157777E+03  0.00000000000E+00 0.  1.
</event>
<event>
12    1  0.2576962E-002  0.1783553E+03  0.7818608E-02  0.1169404E+00
          1   -1    0    0  502    0  0.00000000000E+00  0.00000000000E+00  0.43451691812E+03  0.43451691812E+03  0.00000000000E+00 0.  1.
         -1   -1    0    0    0  501 -0.00000000000E+00 -0.00000000000E+00 -0.94711647488E+02  0.94711647488E+02  0.00000000000E+00 0. -1.
          6    2    1    2  502    0 -0.32447975166E+02  0.41658207167E+02  0.29706133647E+03  0.34726133667E+03  0.17192068229E+03 0.  0.
         24    2    3    3    0    0  0.36139056285E+02 -0.14578847786E+02  0.11959678245E+03  0.14881097721E+03  0.79515673764E+02 0.  0.
         -6    2    1    2    0  501  0.32447975166E+02 -0.41658207167E+02  0.42743934162E+02  0.18196722895E+03  0.16880980773E+03 0.  0.
        -24    2    5    5    0    0  0.10706243276E+02 -0.87883764509E+02  0.13709277962E+02  0.12302143760E+03  0.84309845787E+02 0.  0.
          5    1    3    3  502    0 -0.68587031451E+02  0.56237054953E+02  0.17746455402E+03  0.19845035945E+03  0.47000000000E+01 0. -1.
        -11    1    4    4    0    0 -0.16505837095E+02 -0.70989783386E+01  0.81350898425E+02  0.83311504765E+02  0.00000000000E+00 0.  1.
         12    1    4    4    0    0  0.52644893380E+02 -0.74798694471E+01  0.38245884029E+02  0.65499472449E+02  0.00000000000E+00 0. -1.
         -5    1    5    5    0  501  0.21741731890E+02  0.46225557342E+02  0.29034656200E+02  0.58945791349E+02  0.47000000000E+01 0.  1.
         11    1    6    6    0    0 -0.36379561182E+02 -0.28693126223E+02  0.11241334333E+01  0.46346862248E+02  0.00000000000E+00 0. -1.
        -12    1    6    6    0    0  0.47085804458E+02 -0.59190638286E+02  0.12585144529E+02  0.76674575349E+02  0.00000000000E+00 0.  1.
</event>
<event>
12    1  0.2576962E-002  0.2690093E+03  0.7818608E-02  0.1101848E+00
         -4   -1    0    0    0  501 -0.00000000000E+00  0.00000000000E+00  0.14574881935E+03  0.14574881935E+03  0.00000000000E+00 0. -1.
          4   -1    0    0  502    0  0.00000000000E+00 -0.00000000000E+00 -0.57405077856E+03  0.57405077856E+03  0.00000000000E+00 0.  1.
          6    2    1    2  502    0  0.84138761034E+02 -0.18846094244E+03 -0.81980845585E+02  0.28136456157E+03  0.17276660421E+03 0.  0.
         24    2    3    3    0    0  0.12031853126E+03 -0.18092894212E+03 -0.64639281919E+02  0.24027287588E+03  0.79630314917E+02 0.  0.
         -6    2    1    2    0  501 -0.84138761034E+02  0.18846094244E+03 -0.34632111363E+03  0.43843503635E+03  0.17230818153E+03 0.  0.
        -24    2    5    5    0    0 -0.11171110101E+03  0.17815388722E+03 -0.32715526545E+03  0.40299651133E+03  0.10562879729E+03 0.  0.
          5    1    3    3  502    0 -0.36179770229E+02 -0.75320003184E+01 -0.17341563666E+02  0.41091685692E+02  0.47000000000E+01 0. -1.
        -13    1    4    4    0    0  0.30098723302E+02 -0.39511687050E+02 -0.52218317442E+02  0.72068434383E+02  0.00000000000E+00 0.  1.
         14    1    4    4    0    0  0.90219807960E+02 -0.14141725507E+03 -0.12420964477E+02  0.16820444149E+03  0.00000000000E+00 0. -1.
         -5    1    5    5    0  501  0.27572339974E+02  0.10307055220E+02 -0.19165848175E+02  0.35438525014E+02  0.47000000000E+01 0.  1.
         13    1    6    6    0    0 -0.42099899229E+02  0.14091094749E+03 -0.15535018944E+03  0.21392049457E+03  0.00000000000E+00 0. -1.
        -14    1    6    6    0    0 -0.69611201778E+02  0.37242939726E+02 -0.17180507601E+03  0.18907601677E+03  0.00000000000E+00 0.  1.
</event>
<event>
12    1  0.2576962E-002  0.2404051E+03  0.7818608E-02  0.1119523E+00
         -2   -1    0    0    0  501 -0.00000000000E+00  0.00000000000E+00  0.22241478573E+02  0.22241478573E+02  0.00000000000E+00 0.  1.
          2   -1    0    0  502    0  0.00000000000E+00 -0.00000000000E+00 -0.31674447398E+04  0.31674447398E+04  0.00000000000E+00 0. -1.
          6    2    1    2  502    0 -0.93523816285E+02  0.13173673454E+03 -0.92006609766E+03  0.95204863590E+03  0.18377624880E+03 0.  0.
         24    2    3    3    0    0 -0.13734982475E+03  0.12105333584E+03 -0.74448837661E+03  0.77070785132E+03  0.78795714934E+02 0.  0.
         -6    2    1    2    0  501  0.93523816285E+02 -0.13173673454E+03 -0.22251371636E+04  0.22376375825E+04  0.17229417390E+03 0.  0.
        -24    2    5    5    0    0  0.10361146055E+03 -0.34739126684E+02 -0.15120674915E+04  0.15179148972E+04  0.75996016734E+02 0.  0.
          5    1    3    3  502    0  0.43826008469E+02  0.10683398697E+02 -0.17557772104E+03  0.18134078458E+03  0.47000000000E+01 0. -1.
        -11    1    4    4    0    0 -0.14275449185E+03  0.11775626074E+03 -0.64509935922E+03  0.67111740042E+03  0.00000000000E+00 0.  1.
         12    1    4    4    0    0  0.54046670962E+01  0.32970751023E+01 -0.99389017395E+02  0.99590450894E+02  0.00000000000E+00 0. -1.
         -5    1    5    5    0  501 -0.10087644265E+02 -0.96997607854E+02 -0.71306967210E+03  0.71972268532E+03  0.47000000000E+01 0.  1.
         11    1    6    6    0    0  0.39101080376E+02  0.23131444312E+02 -0.61246634584E+03  0.61414899087E+03  0.00000000000E+00 0. -1.
        -12    1    6    6    0    0  0.64510380174E+02 -0.57870570996E+02 -0.89960114567E+03  0.90376590632E+03  0.00000000000E+00 0.  1.
</event>
<event>
12    1  0.2576962E-002  0.2449607E+03  0.7818608E-02  0.1116532E+00
         -2   -1    0    0    0  501 -0.00000000000E+00  0.00000000000E+00  0.14456360652E+03  0.14456360652E+03  0.00000000000E+00 0.  1.
          2   -1    0    0  502    0  0.00000000000E+00 -0.00000000000E+00 -0.49544144220E+03  0.49544144220E+03  0.00000000000E+00 0. -1.
          6    2    1    2  502    0  0.14669425503E+03  0.93787168720E+02 -0.46808008331E+02  0.24979437715E+03  0.17289014933E+03 0.  0.
         24    2    3    3    0    0  0.93507337601E+02 -0.15318746582E+02 -0.23519873609E+02  0.12611181508E+03  0.79829313333E+02 0.  0.
         -6    2    1    2    0  501 -0.14669425503E+03 -0.93787168720E+02 -0.30406982735E+03  0.39021067157E+03  0.17172847995E+03 0.  0.
        -24    2    5    5    0    0 -0.73617441656E+02 -0.10618906914E+03 -0.26721802187E+03  0.30730003683E+03  0.79575092206E+02 0.  0.
          5    1    3    3  502    0  0.53186917429E+02  0.10910591530E+03 -0.23288134722E+02  0.12368256206E+03  0.47000000000E+01 0. -1.
        -11    1    4    4    0    0  0.84787476246E+01  0.78561412873E+01  0.23524819116E+02  0.26211166164E+02  0.00000000000E+00 0.  1.
         12    1    4    4    0    0  0.85028589976E+02 -0.23174887870E+02 -0.47044692725E+02  0.99900648920E+02  0.00000000000E+00 0. -1.
         -5    1    5    5    0  501 -0.73076813374E+02  0.12401900416E+02 -0.36851805479E+02  0.82910634745E+02  0.47000000000E+01 0.  1.
         13    1    6    6    0    0 -0.49346556670E+02 -0.33215221205E+02 -0.18674085634E+03  0.19598592042E+03  0.00000000000E+00 0. -1.
        -14    1    6    6    0    0 -0.24270884986E+02 -0.72973847930E+02 -0.80477165533E+02  0.11131411641E+03  0.00000000000E+00 0.  1.
</event>
<event>
12    1  0.2576962E-002  0.2055052E+03  0.7818608E-02  0.1145176E+00
         -1   -1    0    0    0  501 -0.00000000000E+00  0.00000000000E+00  0.62455782246E+02  0.62455782246E+02  0.00000000000E+00 0.  1.
          1   -1    0    0  502    0  0.00000000000E+00 -0.00000000000E+00 -0.91351889168E+03  0.91351889168E+03  0.00000000000E+00 0. -1.
          6    2    1    2  502    0 -0.10594781589E+03 -0.33493865681E+02 -0.67305765698E+03  0.70350585016E+03  0.17195084435E+03 0.  0.
         24    2    3    3    0    0 -0.70198231842E+02  0.48649991391E+02 -0.38884975496E+03  0.40547587250E+03  0.76889126905E+02 0.  0.
         -6    2    1    2    0  501  0.10594781589E+03  0.33493865681E+02 -0.17800545246E+03  0.27246882377E+03  0.17380028794E+03 0.  0.
        -24    2    5    5    0    0  0.83050997164E+02 -0.39559613506E+02 -0.78383982828E+02  0.14674053601E+03  0.83224425471E+02 0.  0.
          5    1    3    3  502    0 -0.35749584044E+02 -0.82143857073E+02 -0.28420790202E+03  0.29802997766E+03  0.47000000000E+01 0. -1.
        -13    1    4    4    0    0 -0.26473246460E+02  0.33086511215E+02 -0.60507206416E+02  0.73869290174E+02  0.00000000000E+00 0.  1.
         14    1    4    4    0    0 -0.43724985383E+02  0.15563480176E+02 -0.32834254854E+03  0.33160658233E+03  0.00000000000E+00 0. -1.
         -5    1    5    5    0  501  0.22896818722E+02  0.73053479187E+02 -0.99621469634E+02  0.12572828775E+03  0.47000000000E+01 0.  1.
         11    1    6    6    0    0  0.85853780308E+02 -0.15791817068E+01 -0.56985733948E+02  0.10305697105E+03  0.00000000000E+00 0. -1.
        -12    1    6    6    0    0 -0.28027831438E+01 -0.37980431799E+02 -0.21398248880E+02  0.43683564966E+02  0.00000000000E+00 0.  1.
</event>
<event>
12    1  0.2576962E-002  0.1774900E+03  0.7818608E-02  0.1170255E+00
         -2   -1    0    0    0  501 -0.00000000000E+00  0.00000000000E+00  0.30010404333E+02  0.30010404333E+02  0.00000000000E+00 0. -1.
          2   -1    0    0  502    0  0.00000000000E+00 -0.00000000000E+00 -0.10666876291E+04  0.10666876291E+04  0.00000000000E+00 0.  1.
          6    2    1    2  502    0  0.24435966915E+02  0.28797306970E+02 -0.45484791648E+03  0.48894242163E+03  0.17536152137E+03 0.  0.
         24    2    3    3    0    0 -0.30270010171E+02 -0.36186388434E+02 -0.25084357575E+03  0.26790965113E+03  0.81408558840E+02 0.  0.
         -6    2    1    2    0  501 -0.24435966915E+02 -0.28797306970E+02 -0.58182930831E+03  0.60775561182E+03  0.17150842057E+03 0.  0.
        -24    2    5    5    0    0  0.10345714256E+02 -0.73922881162E+02 -0.27960167727E+03  0.30016869117E+03  0.79702691711E+02 0.  0.
          5    1    3    3  502    0  0.54705977085E+02  0.64983695404E+02 -0.20400434073E+03  0.22103277050E+03  0.47000000000E+01 0. -1.
        -13    1    4    4    0    0  0.19852703010E+02  0.88873196878E+01 -0.10517009332E+03  0.10739582299E+03  0.00000000000E+00 0.  1.
         14    1    4    4    0    0 -0.50122713181E+02 -0.45073708122E+02 -0.14567348243E+03  0.16051382814E+03  0.00000000000E+00 0. -1.
         -5    1    5    5    0  501 -0.34781681170E+02  0.45125574191E+02 -0.30222763104E+03  0.30758692065E+03  0.47000000000E+01 0.  1.
         11    1    6    6    0    0  0.11676540506E+02  0.13118734560E+02 -0.87761013829E+02  0.89501052189E+02  0.00000000000E+00 0. -1.
        -12    1    6    6    0    0 -0.13308262504E+01 -0.87041615721E+02 -0.19184066344E+03  0.21066763899E+03  0.00000000000E+00 0.  1.
</event>
<event>
12    1  0.2576962E-002  0.2250835E+03  0.7818608E-02  0.1130149E+00
          2   -1    0    0  502    0  0.00000000000E+00  0.00000000000E+00  0.69859455226E+03  0.69859455226E+03  0.00000000000E+00 0.  1.
         -2   -1    0    0    0  501 -0.00000000000E+00 -0.00000000000E+00 -0.84700719788E+02  0.84700719788E+02  0.00000000000E+00 0. -1.
          6    2    1    2  502    0 -0.14501553125E+03 -0.20572466218E+02  0.45561074119E+03  0.50823266576E+03  0.17107473334E+03 0.  0.
         24    2    3    3    0    0 -0.71338998449E+02  0.41517297880E+02  0.33048858232E+03  0.35024211246E+03  0.81448729737E+02 0.  0.
         -6    2    1    2    0  501  0.14501553125E+03  0.20572466218E+02  0.15828309128E+03  0.27506260629E+03  0.17074299319E+03 0.  0.
        -24    2    5    5    0    0  0.29878289570E+02 -0.37503648728E+01  0.13153182537E+02  0.88158981535E+02  0.81806004609E+02 0.  0.
          5    1    3    3  502    0 -0.73676532798E+02 -0.62089764097E+02  0.12512215887E+03  0.15799055330E+03  0.47000000000E+01 0. -1.
        -11    1    4    4    0    0 -0.76610363289E+02  0.87563932850E+01  0.17472553894E+03  0.19098386357E+03  0.00000000000E+00 0.  1.
         12    1    4    4    0    0  0.52713648399E+01  0.32760904595E+02  0.15576304338E+03  0.15925824889E+03  0.00000000000E+00 0. -1.
         -5    1    5    5    0  501  0.11513724168E+03  0.24322831090E+02  0.14512990874E+03  0.18690362475E+03  0.47000000000E+01 0.  1.
         13    1    6    6    0    0  0.52155177629E+02 -0.21338728614E+02 -0.11757593871E+01  0.56363874091E+02  0.00000000000E+00 0. -1.
        -14    1    6    6    0    0 -0.22276888060E+02  0.17588363741E+02  0.14328941924E+02  0.31795107444E+02  0.00000000000E+00 0.  1.
</event>
<event>
12    1  0.2576962E-002  0.3401707E+03  0.7818608E-02  0.1066723E+00
          2   -1    0    0  502    0  0.00000000000E+00  0.00000000000E+00  0.24234050664E+04  0.24234050664E+04  0.00000000000E+00 0. -1.
         -2   -1    0    0    0  501 -0.00000000000E+00 -0.00000000000E+00 -0.71679788092E+02  0.71679788092E+02  0.00000000000E+00 0.  1.
          6    2    1    2  502    0  0.24367958260E+03 -0.16396015138E+03  0.45413771751E+03  0.56717920945E+03  0.17084647775E+03 0.  0.
         24    2    3    3    0    0  0.24650613268E+03 -0.18254967716E+03  0.40529266544E+03  0.51462933823E+03  0.80570174548E+02 0.  0.
         -6    2    1    2    0  501 -0.24367958260E+03  0.16396015138E+03  0.18975875608E+04  0.19279056450E+04  0.17239186480E+03 0.  0.
        -24    2    5    5    0    0 -0.11731295334E+03  0.13774284123E+03  0.86028257887E+03  0.88259249201E+03  0.78409005389E+02 0.  0.
          5    1    3    3  502    0 -0.28265500819E+01  0.18589525783E+02  0.48845052067E+02  0.52549871224E+02  0.47000000000E+01 0. -1.
        -13    1    4    4    0    0  0.22431994536E+03 -0.14115494509E+03  0.37323997237E+03  0.45776875536E+03  0.00000000000E+00 0.  1.
         14    1    4    4    0    0  0.22186187317E+02 -0.41394732073E+02  0.32052693071E+02  0.56860582869E+02  0.00000000000E+00 0. -1.
         -5    1    5    5    0  501 -0.12636662926E+03  0.26217310144E+02  0.10373049819E+04  0.10453131530E+04  0.47000000000E+01 0.  1.
         13    1    6    6    0    0  0.67729213619E+01  0.25499303449E+02  0.18591545636E+03  0.18777817725E+03  0.00000000000E+00 0. -1.
        -14    1    6    6    0    0 -0.12408587470E+03  0.11224353778E+03  0.67436712251E+03  0.69481431476E+03  0.00000000000E+00 0.  1.
</event>
<event>
12    1  0.2576962E-002  0.1908328E+03  0.7818608E-02  0.1157712E+00
         -1   -1    0    0    0  501 -0.00000000000E+00  0.00000000000E+00  0.58857023995E+02  0.58857023995E+02  0.00000000000E+00 0.  1.
          1   -1    0    0  502    0  0.00000000000E+00 -0.00000000000E+00 -0.62141339923E+03  0.62141339923E+03  0.00000000000E+00 0. -1.
          6    2    1    2  502    0  0.78612811020E+02  0.22099853994E+02 -0.30295599053E+03  0.35782426416E+03  0.17201015732E+03 0.  0.
         24    2    3    3    0    0  0.56782638147E+02 -0.46176118732E+02 -0.23592971468E+03  0.25957571937E+03  0.79750999244E+02 0.  0.
         -6    2    1    2    0  501 -0.78612811020E+02 -0.22099853994E+02 -0.25960038470E+03  0.32244615906E+03  0.17294735660E+03 0.  0.
        -24    2    5    5    0    0 -0.11354096209E+03  0.62052462675E+01 -0.22327499028E+03  0.26445668831E+03  0.84590564215E+02 0.  0.
          5    1    3    3  502    0  0.21830172874E+02  0.68275972726E+02 -0.67026275854E+02  0.98248544795E+02  0.47000000000E+01 0. -1.
        -11    1    4    4    0    0  0.17136206092E+02 -0.57419654446E+02 -0.91446217904E+02  0.10933012872E+03  0.00000000000E+00 0.  1.
         12    1    4    4    0    0  0.39646432054E+02  0.11243535714E+02 -0.14448349678E+03  0.15024559065E+03  0.00000000000E+00 0. -1.
         -5    1    5    5    0  501  0.34928151070E+02 -0.28305100261E+02 -0.36325394418E+02  0.57989470748E+02  0.47000000000E+01 0.  1.
         11    1    6    6    0    0 -0.79206697060E+02 -0.31927538184E+02 -0.17136938663E+03  0.19146941068E+03  0.00000000000E+00 0. -1.
        -12    1    6    6    0    0 -0.34334265030E+02  0.38132784452E+02 -0.51905603653E+02  0.72987277630E+02  0.00000000000E+00 0.  1.
</event>
<event>
12    1  0.2576962E-002  0.1988872E+03  0.7818608E-02  0.1150681E+00
         -2   -1    0    0    0  501 -0.00000000000E+00  0.00000000000E+00  0.12869919306E+03  0.12869919306E+03  0.00000000000E+00 0.  1.
          2   -1    0    0  502    0  0.00000000000E+00 -0.00000000000E+00 -0.91285377465E+03  0.91285377465E+03  0.00000000000E+00 0. -1.
          6    2    1    2  502    0  0.55319840113E+02  0.79396500101E+02  0.31409970710E+02  0.20231777438E+03  0.17487654683E+03 0.  0.
         24    2    3    3    0    0 -0.55632447297E+01  0.15553566400E+01 -0.30083631354E+02  0.85829376977E+02  0.80176606629E+02 0.  0.
         -6    2    1    2    0  501 -0.55319840113E+02 -0.79396500101E+02 -0.81556455230E+03  0.83923519333E+03  0.17264437960E+03 0.  0.
        -24    2    5    5    0    0 -0.19652717487E+02 -0.69864499047E+02 -0.78132926808E+03  0.78866694868E+03  0.79074985026E+02 0.  0.
          5    1    3    3  502    0  0.60883084842E+02  0.77841143461E+02  0.61493602064E+02  0.11648839741E+03  0.47000000000E+01 0. -1.
        -13    1    4    4    0    0 -0.21385802687E+02 -0.32013273416E+02 -0.71890564483E+00  0.38506091164E+02  0.00000000000E+00 0.  1.
         14    1    4    4    0    0  0.15822557957E+02  0.33568630056E+02 -0.29364725710E+02  0.47323285813E+02  0.00000000000E+00 0. -1.
         -5    1    5    5    0  501 -0.35667122625E+02 -0.95320010536E+01 -0.34235284227E+02  0.50568244646E+02  0.47000000000E+01 0.  1.
         11    1    6    6    0    0 -0.39914503166E+02 -0.47250778459E+02 -0.29624192569E+03  0.30263027305E+03  0.00000000000E+00 0. -1.
        -12    1    6    6    0    0  0.20261785679E+02 -0.22613720588E+02 -0.48508734238E+03  0.48603667563E+03  0.00000000000E+00 0.  1.
</event>
<event>
12    1  0.2576962E-002  0.1735766E+03  0.7818608E-02  0.1174169E+00
         -2   -1    0    0    0  501 -0.00000000000E+00  0.00000000000E+00  0.65066701348E+03  0.65066701348E+03  0.00000000000E+00 0.  1.
          2   -1    0    0  502    0  0.00000000000E+00 -0.00000000000E+00 -0.50316877421E+02  0.50316877421E+02  0.00000000000E+00 0. -1.
          6    2    1    2  502    0  0.25285308123E+02 -0.16131553119E+02  0.19982774684E+03  0.26411821393E+03  0.17008153548E+03 0.  0.
         24    2    3    3    0    0  0.22020649459E+02  0.50861856162E+02  0.16749907936E+03  0.18951253302E+03  0.69189747583E+02 0.  0.
         -6    2    1    2    0  501 -0.25285308123E+02  0.16131553119E+02  0.40052238922E+03  0.43686567697E+03  0.17185418713E+03 0.  0.
        -24    2    5    5    0    0 -0.21400702387E+02 -0.14354580262E+02  0.39581822044E+03  0.40542185891E+03  0.83849722783E+02 0.  0.
          5    1    3    3  502    0  0.32646586640E+01 -0.66993409281E+02  0.32328667480E+02  0.74605680912E+02  0.47000000000E+01 0. -1.
        -11    1    4    4    0    0 -0.85603009109E+01  0.45074256285E+02  0.14215406324E+03  0.14937451264E+03  0.00000000000E+00 0.  1.
         12    1    4    4    0    0  0.30580950370E+02  0.57875998777E+01  0.25345016122E+02  0.40138020381E+02  0.00000000000E+00 0. -1.
         -5    1    5    5    0  501 -0.38846057361E+01  0.30486133381E+02  0.47041687784E+01  0.31443818060E+02  0.47000000000E+01 0.  1.
         11    1    6    6    0    0  0.19719041381E+01 -0.44024976150E+02  0.13838502463E+03  0.14523257889E+03  0.00000000000E+00 0. -1.
        -12    1    6    6    0    0 -0.23372606525E+02  0.29670395888E+02  0.25743319582E+03  0.26018928002E+03  0.00000000000E+00 0.  1.
</event>
<event>
12    1  0.2576962E-002  0.2196356E+03  0.7818608E-02  0.1134155E+00
          1   -1    0    0  502    0  0.00000000000E+00  0.00000000000E+00  0.76535892752E+03  0.76535892752E+03  0.00000000000E+00 0.  1.
         -1   -1    0    0    0  501 -0.00000000000E+00 -0.00000000000E+00 -0.65779422610E+02  0.65779422610E+02  0.00000000000E+00 0. -1.
          6    2    1    2  502    0  0.44433137808E+02 -0.12594204885E+03  0.26355014950E+03  0.34253782065E+03  0.17331409022E+03 0.  0.
         24    2    3    3    0    0  0.94659018673E+02 -0.66368274715E+02  0.16440375822E+03  0.21634839725E+03  0.80080931381E+02 0.  0.
         -6    2    1    2    0  501 -0.44433137808E+02  0.12594204885E+03  0.43602935540E+03  0.48860052948E+03  0.17542284694E+03 0.  0.
        -24    2    5    5    0    0  0.25527908037E+02  0.89772505335E+02  0.35472350420E+03  0.37530659648E+03  0.79470120969E+02 0.  0.
          5    1    3    3  502    0 -0.50225880865E+02 -0.59573774134E+02  0.99146391289E+02  0.12618942340E+03  0.47000000000E+01 0. -1.
        -13    1    4    4    0    0 -0.32123052440E+01 -0.31709372288E+02  0.66026784628E+02  0.73316706719E+02  0.00000000000E+00 0.  1.
         14    1    4    4    0    0  0.97871323917E+02 -0.34658902427E+02  0.98376973588E+02  0.14303169053E+03  0.00000000000E+00 0. -1.
         -5    1    5    5    0  501 -0.69961045845E+02  0.36169543514E+02  0.81305851201E+02  0.11329393299E+03  0.47000000000E+01 0.  1.
         11    1    6    6    0    0 -0.76428360588E+01 -0.10499719614E+02  0.16628204251E+02  0.21098678433E+02  0.00000000000E+00 0. -1.
        -12    1    6    6    0    0  0.33170744096E+02  0.10027222495E+03  0.33809529995E+03  0.35420791805E+03  0.00000000000E+00 0.  1.
</event>
<event>
12    1  0.2576962E-002  0.2773573E+03  0.7818608E-02  0.1097141E+00
          2   -1    0    0  502    0  0.00000000000E+00  0.00000000000E+00  0.17690615024E+04  0.17690615024E+04  0.00000000000E+00 0. -1.
         -2   -1    0    0    0  501 -0.00000000000E+00 -0.00000000000E+00 -0.55865426122E+02  0.55865426122E+02  0.00000000000E+00 0.  1.
          6    2    1    2  502    0  0.21620170920E+03 -0.41788295223E+02  0.42531256408E+03  0.50736356786E+03  0.16744423593E+03 0.  0.
         24    2    3    3    0    0  0.12984303725E+03 -0.76757638126E+02  0.19781717790E+03  0.26148368683E+03  0.80567569595E+02 0.  0.
         -6    2    1    2    0  501 -0.21620170920E+03  0.41788295223E+02  0.12878835122E+04  0.13175633607E+04  0.16982293040E+03 0.  0.
        -24    2    5    5    0    0 -0.20076636270E+03  0.13405025818E+02  0.80446542838E+03  0.83304401774E+03  0.79441065731E+02 0.  0.
          5    1    3    3  502    0  0.86358671954E+02  0.34969342903E+02  0.22749538617E+03  0.24587988103E+03  0.47000000000E+01 0. -1.
        -11    1    4    4    0    0  0.13509347971E+03 -0.60143420080E+02  0.19349426845E+03  0.24353133507E+03  0.00000000000E+00 0.  1.
         12    1    4    4    0    0 -0.52504424637E+01 -0.16614218046E+02  0.43229094535E+01  0.17952351754E+02  0.00000000000E+00 0. -1.
         -5    1    5    5    0  501 -0.15435346502E+02  0.28383269405E+02  0.48341808382E+03  0.48451934292E+03  0.47000000000E+01 0.  1.
         11    1    6    6    0    0 -0.81964855802E+02  0.26052094864E+01  0.18745956076E+03  0.20461210038E+03  0.00000000000E+00 0. -1.
        -12    1    6    6    0    0 -0.11880150690E+03  0.10799816332E+02  0.61700586762E+03  0.62843191736E+03  0.00000000000E+00 0.  1.
</event>
<event>
12    1  0.2576962E-002  0.2034515E+03  0.7818608E-02  0.1146859E+00
          2   -1    0    0  502    0  0.00000000000E+00  0.00000000000E+00  0.18644438667E+04  0.18644438667E+04  0.00000000000E+00 0. -1.
         -2   -1    0    0    0  501 -0.00000000000E+00 -0.00000000000E+00 -0.31051829100E+02  0.31051829100E+02  0.00000000000E+00 0.  1.
          6    2    1    2  502    0  0.75534677108E+02  0.79629116068E+02  0.41437559471E+03  0.46212815367E+03  0.17265286951E+03 0.  0.
         24    2    3    3    0    0  0.36026885240E+02  0.58869869534E+02  0.99301789019E+02  0.14387447346E+03  0.77944985800E+02 0.  0.
         -6    2    1    2    0  501 -0.75534677108E+02 -0.79629116068E+02  0.14190164429E+04  0.14333675421E+04  0.16996635571E+03 0.  0.
        -24    2    5    5    0    0 -0.26245276819E+02  0.15819926037E+02  0.85199740531E+03  0.85624308104E+03  0.79457853909E+02 0.  0.
          5    1    3    3  502    0  0.39507791869E+02  0.20759246534E+02  0.31507380569E+03  0.31825368021E+03  0.47000000000E+01 0. -1.
        -13    1    4    4    0    0  0.55706050463E+02  0.62747548422E+02  0.83064931855E+02  0.11806863172E+03  0.00000000000E+00 0.  1.
         14    1    4    4    0    0 -0.19679165223E+02 -0.38776788882E+01  0.16236857164E+02  0.25805841742E+02  0.00000000000E+00 0. -1.
         -5    1    5    5    0  501 -0.49289400289E+02 -0.95449042105E+02  0.56701903756E+03  0.57712446108E+03  0.47000000000E+01 0.  1.
         13    1    6    6    0    0 -0.35393631992E+02  0.19273032535E+02  0.19250796550E+03  0.19668115250E+03  0.00000000000E+00 0. -1.
        -14    1    6    6    0    0  0.91483551736E+01 -0.34531064982E+01  0.65948943981E+03  0.65956192853E+03  0.00000000000E+00 0.  1.
</event>
<event>
12    1  0.2576962E-002  0.1814567E+03  0.7818608E-02  0.1166401E+00
         -1   -1    0    0    0  501 -0.00000000000E+00  0.00000000000E+00  0.90652603493E+03  0.90652603493E+03  0.00000000000E+00 0. -1.
          1   -1    0    0  502    0  0.00000000000E+00 -0.00000000000E+00 -0.41040260784E+02  0.41040260784E+02  0.00000000000E+00 0.  1.
          6    2    1    2  502    0  0.14979125331E+02  0.52168264480E+02  0.27197016734E+03  0.32691475204E+03  0.17308836229E+03 0.  0.
         24    2    3    3    0    0 -0.24741327854E+02  0.89492590473E+02  0.18715263005E+03  0.22598445756E+03  0.86149933651E+02 0.  0.
         -6    2    1    2    0  501 -0.14979125331E+02 -0.52168264480E+02  0.59351560681E+03  0.62065154368E+03  0.17320987597E+03 0.  0.
        -24    2    5    5    0    0 -0.31907344380E+02 -0.24636035258E+02  0.57734291403E+03  0.58420659564E+03  0.79671156298E+02 0.  0.
          5    1    3    3  502    0  0.39720453185E+02 -0.37324325993E+02  0.84817537287E+02  0.10093029448E+03  0.47000000000E+01 0. -1.
        -11    1    4    4    0    0  0.23022768997E+02  0.72297467651E+02  0.11412999321E+03  0.13704972482E+03  0.00000000000E+00 0.  1.
         12    1    4    4    0    0 -0.47764096851E+02  0.17195122822E+02  0.73022636841E+02  0.88934732743E+02  0.00000000000E+00 0. -1.
         -5    1    5    5    0  501  0.16928219049E+02 -0.27532229223E+02  0.16172692775E+02  0.36444948041E+02  0.47000000000E+01 0.  1.
         11    1    6    6    0    0 -0.43641492589E+02 -0.37597207386E+02  0.25653813933E+03  0.26292574390E+03  0.00000000000E+00 0. -1.
        -12    1    6    6    0    0  0.11734148208E+02  0.12961172128E+02  0.32080477471E+03  0.32128085173E+03  0.00000000000E+00 0.  1.
</event>
<event>
12    1  0.2576962E-002  0.2492668E+03  0.7818608E-02  0.1113769E+00
         -2   -1    0    0    0  501 -0.00000000000E+00  0.00000000000E+00  0.27451614136E+02  0.27451614136E+02  0.00000000000E+00 0. -1.
          2   -1    0    0  502    0  0.00000000000E+00 -0.00000000000E+00 -0.22751599823E+04  0.22751599823E+04  0.00000000000E+00 0.  1.
          6    2    1    2  502    0 -0.67703916289E+02  0.16684700905E+03 -0.10361029818E+04  0.10653986273E+04  0.17071350719E+03 0.  0.
         24    2    3    3    0    0 -0.38049905442E+02  0.54463624442E+02 -0.73986314478E+03  0.74713848763E+03  0.80027276559E+02 0.  0.
         -6    2    1    2    0  501  0.67703916289E+02 -0.16684700905E+03 -0.12116053864E+04  0.12372129691E+04  0.17403038216E+03 0.  0.
        -24    2    5    5    0    0  0.25982538290E+02 -0.63918109894E+01 -0.35687546761E+03  0.36653974223E+03  0.79217016517E+02 0.  0.
          5    1    3    3  502    0 -0.29654010848E+02  0.11238338461E+03 -0.29623983701E+03  0.31826013971E+03  0.47000000000E+01 0. -1.
        -13    1    4    4    0    0 -0.58067678311E+02  0.37384402601E+02 -0.37346920987E+03  0.37980086828E+03  0.00000000000E+00 0.  1.
         14    1    4    4    0    0  0.20017772869E+02  0.17079221842E+02 -0.36639393491E+03  0.36733761935E+03  0.00000000000E+00 0. -1.
         -5    1    5    5    0  501  0.41721377999E+02 -0.16045519807E+03 -0.85472991874E+03  0.87067322686E+03  0.47000000000E+01 0.  1.
         13    1    6    6    0    0 -0.51089365771E+01 -0.17838347628E+02 -0.17355682759E+02  0.25407235250E+02  0.00000000000E+00 0. -1.
        -14    1    6    6    0    0  0.31091474867E+02  0.11446536638E+02 -0.33951978485E+03  0.34113250698E+03  0.00000000000E+00 0.  1.
</event>
<event>
12    1  0.2576962E-002  0.2310930E+03  0.7818608E-02  0.1125873E+00
          1   -1    0    0  502    0  0.00000000000E+00  0.00000000000E+00  0.25826325510E+04  0.25826325510E+04  0.00000000000E+00 0. -1.
         -1   -1    0    0    0  501 -0.00000000000E+00 -0.00000000000E+00 -0.23280737268E+02  0.23280737268E+02  0.00000000000E+00 0.  1.
          6    2    1    2  502    0 -0.63948882003E+02  0.13937637116E+03  0.82626563107E+03  0.85698937673E+03  0.16793054039E+03 0.  0.
         24    2    3    3    0    0 -0.47621063362E+02  0.15705224133E+03  0.80186314693E+03  0.82239739385E+03  0.80123622105E+02 0.  0.
         -6    2    1    2    0  501  0.63948882003E+02 -0.13937637116E+03  0.17330861826E+04  0.17489239115E+04  0.17785358995E+03 0.  0.
        -24    2    5    5    0    0  0.77724920203E+02 -0.39067667485E+02  0.12382351343E+04  0.12437989118E+04  0.79006578154E+02 0.  0.
          5    1    3    3  502    0 -0.16327818641E+02 -0.17675870167E+02  0.24402484141E+02  0.34591982886E+02  0.47000000000E+01 0. -1.
        -13    1    4    4    0    0 -0.14158748340E+02  0.84818093229E+02  0.24036586610E+03  0.25528479915E+03  0.00000000000E+00 0.  1.
         14    1    4    4    0    0 -0.33462315022E+02  0.72234148099E+02  0.56149728083E+03  0.56711259469E+03  0.00000000000E+00 0. -1.
         -5    1    5    5    0  501 -0.13776038201E+02 -0.10030870368E+03  0.49485104832E+03  0.50512499967E+03  0.47000000000E+01 0.  1.
         13    1    6    6    0    0  0.64917418754E+02 -0.40008124998E+02  0.53103066314E+03  0.53647785278E+03  0.00000000000E+00 0. -1.
        -14    1    6    6    0    0  0.12807501449E+02  0.94045751232E+00  0.70720447117E+03  0.70732105906E+03  0.00000000000E+00 0.  1.
</event>
<event>
12    1  0.2576962E-002  0.2853561E+03  0.7818608E-02  0.1092799E+00
         -1   -1    0    0    0  501 -0.00000000000E+00  0.00000000000E+00  0.43511414773E+03  0.43511414773E+03  0.00000000000E+00 0. -1.
          1   -1    0    0  502    0  0.00000000000E+00 -0.00000000000E+00 -0.25338653857E+03  0.25338653857E+03  0.00000000000E+00 0.  1.
          6    2    1    2  502    0  0.22075278194E+03  0.55741649024E+02  0.26679467407E+03  0.39038059495E+03  0.17140212553E+03 0.  0.
         24    2    3    3    0    0  0.59704795634E+02  0.62743465313E+02  0.13372558352E+03  0.18129938541E+03  0.86518959786E+02 0.  0.
         -6    2    1    2    0  501 -0.22075278194E+03 -0.55741649024E+02 -0.85067064913E+02  0.29812009135E+03  0.17262752145E+03 0.  0.
        -24    2    5    5    0    0 -0.87060638041E+02 -0.82729494684E+02 -0.14526860043E+02  0.14449735977E+03  0.79023625149E+02 0.  0.
          5    1    3    3  502    0  0.16104798630E+03 -0.70018162895E+01  0.13306909055E+03  0.20908120954E+03  0.47000000000E+01 0. -1.
        -13    1    4    4    0    0  0.59109695783E+02  0.59495117382E+02  0.50270688776E+02  0.97779176095E+02  0.00000000000E+00 0.  1.
         14    1    4    4    0    0  0.59509985171E+00  0.32483479312E+01  0.83454894741E+02  0.83520209317E+02  0.00000000000E+00 0. -1.
         -5    1    5    5    0  501 -0.13369214390E+03  0.26987845660E+02 -0.70540204870E+02  0.15362273158E+03  0.47000000000E+01 0.  1.
         13    1    6    6    0    0  0.14756457374E+02 -0.60318199932E+01  0.15417562433E+01  0.16016020073E+02  0.00000000000E+00 0. -1.
        -14    1    6    6    0    0 -0.10181709541E+03 -0.76697674691E+02 -0.16068616286E+02  0.12848133970E+03  0.00000000000E+00 0.  1.
</event>
<event>
12    1  0.2576962E-002  0.1744274E+03  0.7818608E-02  0.1173308E+00
         -2   -1    0    0    0  501 -0.00000000000E+00  0.00000000000E+00  0.21418651164E+03  0.21418651164E+03  0.00000000000E+00 0. -1.
          2   -1    0    0  502    0  0.00000000000E+00 -0.00000000000E+00 -0.14383015249E+03  0.14383015249E+03  0.00000000000E+00 0.  1.
          6    2    1    2  502    0 -0.21879217662E+00  0.31790448258E+02  0.55065954152E+02  0.18275310119E+03  0.17133521593E+03 0.  0.
         24    2    3    3    0    0  0.20768324763E+01 -0.47737538076E+02  0.24833343081E+02  0.97511847824E+02  0.81293786741E+02 0.  0.
         -6    2    1    2    0  501  0.21879217662E+00 -0.31790448258E+02  0.15290404998E+02  0.17526356294E+03  0.17167655501E+03 0.  0.
        -24    2    5    5    0    0  0.64643101228E+02 -0.32233823604E+02 -0.78097321058E+01  0.10666039601E+03  0.78087759869E+02 0.  0.
          5    1    3    3  502    0 -0.22956246529E+01  0.79527986334E+02  0.30232611071E+02  0.85241253364E+02  0.47000000000E+01 0. -1.
        -11    1    4    4    0    0 -0.16392451006E+02 -0.17676190010E+02 -0.26114323592E+02  0.35540371972E+02  0.00000000000E+00 0.  1.
         12    1    4    4    0    0  0.18469283482E+02 -0.30061348067E+02  0.50947666673E+02  0.61971475852E+02  0.00000000000E+00 0. -1.
         -5    1    5    5    0  501 -0.64424309051E+02  0.44337534601E+00  0.23100137104E+02  0.68603166929E+02  0.47000000000E+01 0.  1.
         13    1    6    6    0    0  0.13312098318E+02  0.81029136295E+00  0.31393659076E+02  0.34109095032E+02  0.00000000000E+00 0. -1.
        -14    1    6    6    0    0  0.51331002909E+02 -0.33044114967E+02 -0.39203391182E+02  0.72551300979E+02  0.00000000000E+00 0.  1.
</event>
<event>
12    1  0.2576962E-002  0.1804141E+03  0.7818608E-02  0.1167403E+00
         -1   -1    0    0    0  501 -0.00000000000E+00  0.00000000000E+00  0.45288420031E+02  0.45288420031E+02  0.00000000000E+00 0.  1.
          1   -1    0    0  502    0  0.00000000000E+00 -0.00000000000E+00 -0.73318193485E+03  0.73318193485E+03  0.00000000000E+00 0. -1.
          6    2    1    2  502    0 -0.94792181798E+01 -0.55849992097E+02 -0.39455031263E+03  0.43298450833E+03  0.16910516865E+03 0.  0.
         24    2    3    3    0    0  0.52865412061E+02 -0.62761461075E+02 -0.23135185299E+03  0.25808325461E+03  0.79683961003E+02 0.  0.
         -6    2    1    2    0  501  0.94792181798E+01  0.55849992097E+02 -0.29334320219E+03  0.34548584655E+03  0.17349685502E+03 0.  0.
        -24    2    5    5    0    0 -0.48864648178E+02 -0.17643811036E+01 -0.20410665925E+03  0.22420652705E+03  0.78855383729E+02 0.  0.
          5    1    3    3  502    0 -0.62344630241E+02  0.69114689778E+01 -0.16319845964E+03  0.17490125372E+03  0.47000000000E+01 0. -1.
        -13    1    4    4    0    0 -0.56941788168E+01 -0.54980548943E+02 -0.10872230121E+03  0.12196648398E+03  0.00000000000E+00 0.  1.
         14    1    4    4    0    0  0.58559590878E+02 -0.77809121318E+01 -0.12262955178E+03  0.13611677063E+03  0.00000000000E+00 0. -1.
         -5    1    5    5    0  501  0.58343866358E+02  0.57614373200E+02 -0.89236542939E+02  0.12127931949E+03  0.47000000000E+01 0.  1.
         13    1    6    6    0    0  0.17341195231E+02 -0.12945810924E+02 -0.82542908716E+02  0.85332542748E+02  0.00000000000E+00 0. -1.
        -14    1    6    6    0    0 -0.66205843408E+02  0.11181429821E+02 -0.12156375053E+03  0.13887398431E+03  0.00000000000E+00 0.  1.
</event>
<event>
12    1  0.2576962E-002  0.2000005E+03  0.7818608E-02  0.1149739E+00
         -1   -1    0    0    0  501 -0.00000000000E+00  0.00000000000E+00  0.54359347204E+02  0.54359347204E+02  0.00000000000E+00 0. -1.
          1   -1    0    0  502    0  0.00000000000E+00 -0.00000000000E+00 -0.81681077212E+03  0.81681077212E+03  0.00000000000E+00 0.  1.
          6    2    1    2  502    0  0.61479429626E+02  0.83677654316E+02 -0.51968945384E+03  0.55712650389E+03  0.17184627667E+03 0.  0.
         24    2    3    3    0    0 -0.15757627675E+02  0.92463653893E+01 -0.31446625178E+03  0.32551425798E+03  0.82077466684E+02 0.  0.
         -6    2    1    2    0  501 -0.61479429626E+02 -0.83677654316E+02 -0.24276197108E+03  0.31404361544E+03  0.17002455027E+03 0.  0.
        -24    2    5    5    0    0  0.22141259060E+02 -0.41459210680E+02 -0.17581973165E+03  0.19881267350E+03  0.80029991913E+02 0.  0.
          5    1    3    3  502    0  0.77237057301E+02  0.74431288927E+02 -0.20522320206E+03  0.23161224591E+03  0.47000000000E+01 0. -1.
        -13    1    4    4    0    0  0.32164005544E+02  0.10429931200E+02 -0.93992053255E+02  0.99889002360E+02  0.00000000000E+00 0.  1.
         14    1    4    4    0    0 -0.47921633219E+02 -0.11835658106E+01 -0.22047419852E+03  0.22562525562E+03  0.00000000000E+00 0. -1.
         -5    1    5    5    0  501 -0.83620688686E+02 -0.42218443637E+02 -0.66942239436E+02  0.11523094194E+03  0.47000000000E+01 0.  1.
         13    1    6    6    0    0 -0.22834358121E+02 -0.17998545880E+02 -0.20921705788E+02  0.35820013089E+02  0.00000000000E+00 0. -1.
        -14    1    6    6    0    0  0.44975617180E+02 -0.23460664800E+02 -0.15489802586E+03  0.16299266041E+03  0.00000000000E+00 0.  1.
</event>
<event>
12    1  0.2576962E-002  0.1861866E+03  0.7818608E-02  0.1161946E+00
          1   -1    0    0  502    0  0.00000000000E+00  0.00000000000E+00  0.60839551999E+03  0.60839551999E+03  0.00000000000E+00 0. -1.
         -1   -1    0    0    0  501 -0.00000000000E+00 -0.00000000000E+00 -0.57615133111E+02  0.57615133111E+02  0.00000000000E+00 0.  1.
          6    2    1    2  502    0  0.17936663759E+02  0.69811336272E+02  0.31162529498E+03  0.36345442058E+03  0.17260777732E+03 0.  0.
         24    2    3    3    0    0  0.81668928123E+02  0.33211947249E+02  0.17425697445E+03  0.20759081905E+03  0.70396077650E+02 0.  0.
         -6    2    1    2    0  501 -0.17936663759E+02 -0.69811336272E+02  0.23915509190E+03  0.30255623252E+03  0.17073303510E+03 0.  0.
        -24    2    5    5    0    0 -0.52301898662E+02 -0.10151526736E+03  0.17093499130E+03  0.21971795186E+03  0.77565256446E+02 0.  0.
          5    1    3    3  502    0 -0.63732264364E+02  0.36599389023E+02  0.13736832053E+03  0.15586360153E+03  0.47000000000E+01 0. -1.
        -13    1    4    4    0    0  0.73476505497E+02  0.41228447023E+02  0.17680090634E+03  0.19584979497E+03  0.00000000000E+00 0.  1.
         14    1    4    4    0    0  0.81924226262E+01 -0.80164997735E+01 -0.25439318926E+01  0.11741024086E+02  0.00000000000E+00 0. -1.
         -5    1    5    5    0  501  0.34365234903E+02  0.31703931090E+02  0.68220100598E+02  0.82838280656E+02  0.47000000000E+01 0.  1.
         13    1    6    6    0    0 -0.35937975059E+02 -0.19185480669E+02  0.10610567876E+03  0.11365753730E+03  0.00000000000E+00 0. -1.
        -14    1    6    6    0    0 -0.16363923603E+02 -0.82329786693E+02  0.64829312544E+02  0.10606041456E+03  0.00000000000E+00 0.  1.
</event>
<event>
12    1  0.2576962E-002  0.1832902E+03  0.7818608E-02  0.1164656E+00
         -1   -1    0    0    0  501 -0.00000000000E+00  0.00000000000E+00  0.68859603390E+03  0.68859603390E+03  0.00000000000E+00 0. -1.
          1   -1    0    0  502    0  0.00000000000E+00 -0.00000000000E+00 -0.49328191550E+02  0.49328191550E+02  0.00000000000E+00 0.  1.
          6    2    1    2  502    0  0.52913186386E+02 -0.35765574239E+02  0.35813331454E+03  0.40228317638E+03  0.17173613893E+03 0.  0.
         24    2    3    3    0    0  0.41488406914E+02  0.21113113011E+02  0.31859946856E+03  0.33192178336E+03  0.80618840538E+02 0.  0.
         -6    2    1    2    0  501 -0.52913186386E+02  0.35765574239E+02  0.28113452780E+03  0.33564104907E+03  0.17187003667E+03 0.  0.
        -24    2    5    5    0    0 -0.93891907205E+02  0.59400946904E+02  0.22604615218E+03  0.26287632183E+03  0.75252474611E+02 0.  0.
          5    1    3    3  502    0  0.11424779472E+02 -0.56878687250E+02  0.39533845980E+02  0.70361393017E+02  0.47000000000E+01 0. -1.
        -11    1    4    4    0    0 -0.25434883324E+01 -0.25633267660E+02  0.13446703401E+03  0.13691207755E+03  0.00000000000E+00 0.  1.
         12    1    4    4    0    0  0.44031895246E+02  0.46746380671E+02  0.18413243456E+03  0.19500970581E+03  0.00000000000E+00 0. -1.
         -5    1    5    5    0  501  0.40978720819E+02 -0.23635372665E+02  0.55088375630E+02  0.72764727241E+02  0.47000000000E+01 0.  1.
         11    1    6    6    0    0 -0.33182615860E+02  0.87580610747E+01  0.14747100449E+03  0.15141164682E+03  0.00000000000E+00 0. -1.
        -12    1    6    6    0    0 -0.60709291346E+02  0.50642885829E+02  0.78575147688E+02  0.11146467501E+03  0.00000000000E+00 0.  1.
</event>
<event>
12    1  0.2576962E-002  0.1734011E+03  0.7818608E-02  0.1174347E+00
          2   -1    0    0  502    0  0.00000000000E+00  0.00000000000E+00  0.21580901058E+03  0.21580901058E+03  0.00000000000E+00 0.  1.
         -2   -1    0    0    0  501 -0.00000000000E+00 -0.00000000000E+00 -0.18300951042E+03  0.18300951042E+03  0.00000000000E+00 0. -1.
          6    2    1    2  502    0  0.17702703785E+02  0.19989560442E+02  0.11376703351E+03  0.20677905364E+03  0.17059211841E+03 0.  0.
         24    2    3    3    0    0  0.66483729348E+02  0.50354966744E+02  0.96067941587E+02  0.14647155652E+03  0.72588969709E+02 0.  0.
         -6    2    1    2    0  501 -0.17702703785E+02 -0.19989560442E+02 -0.80967533355E+02  0.19203946735E+03  0.17207686456E+03 0.  0.
        -24    2    5    5    0    0 -0.73824534477E+02  0.99039696193E+01 -0.46889313746E+02  0.11974356103E+03  0.81189667807E+02 0.  0.
          5    1    3    3  502    0 -0.48781025563E+02 -0.30365406302E+02  0.17699091927E+02  0.60307497129E+02  0.47000000000E+01 0. -1.
        -11    1    4    4    0    0  0.20723195621E+02 -0.14079587755E+02  0.47521708066E+02  0.53721488863E+02  0.00000000000E+00 0.  1.
         12    1    4    4    0    0  0.45760533727E+02  0.64434554499E+02  0.48546233521E+02  0.92750067653E+02  0.00000000000E+00 0. -1.
         -5    1    5    5    0  501  0.56121830692E+02 -0.29893530061E+02 -0.34078219609E+02  0.72295906326E+02  0.47000000000E+01 0.  1.
         11    1    6    6    0    0  0.53965595257E+01  0.27929166153E+02 -0.17208346699E+02  0.33245877531E+02  0.00000000000E+00 0. -1.
        -12    1    6    6    0    0 -0.79221094003E+02 -0.18025196534E+02 -0.29680967047E+02  0.86497683495E+02  0.00000000000E+00 0.  1.
</event>
<event>
12    1  0.2576962E-002  0.3607349E+03  0.7818608E-02  0.1058293E+00
          2   -1    0    0  502    0  0.00000000000E+00  0.00000000000E+00  0.31989900991E+03  0.31989900991E+03  0.00000000000E+00 0. -1.
         -2   -1    0    0    0  501 -0.00000000000E+00 -0.00000000000E+00 -0.40790078054E+03  0.40790078054E+03  0.00000000000E+00 0.  1.
          6    2    1    2  502    0 -0.31366041799E+03 -0.45569372045E+02 -0.63093884284E+02  0.36664979467E+03  0.17318143151E+03 0.  0.
         24    2    3    3    0    0 -0.19090246373E+03 -0.60033366653E+02  0.22454785778E+02  0.21625236311E+03  0.78823292080E+02 0.  0.
         -6    2    1    2    0  501  0.31366041799E+03  0.45569372045E+02 -0.24907886341E+02  0.36114999578E+03  0.17131693194E+03 0.  0.
        -24    2    5    5    0    0  0.14670320604E+03  0.86005738681E+02 -0.73800678430E+01  0.18840994603E+03  0.80777624445E+02 0.  0.
          5    1    3    3  502    0 -0.12275795425E+03  0.14463994607E+02 -0.85548670062E+02  0.15039743157E+03  0.47000000000E+01 0. -1.
        -13    1    4    4    0    0  0.56530419606E+01 -0.23285289989E+01 -0.70006839882E+01  0.92945417859E+01  0.00000000000E+00 0.  1.
         14    1    4    4    0    0 -0.19655550569E+03 -0.57704837654E+02  0.29455469766E+02  0.20695782132E+03  0.00000000000E+00 0. -1.
         -5    1    5    5    0  501  0.16695721194E+03 -0.40436366635E+02 -0.17527818498E+02  0.17274004975E+03  0.47000000000E+01 0.  1.
         11    1    6    6    0    0  0.96321083722E+02  0.38090493748E+02  0.32119196873E+02  0.10844482326E+03  0.00000000000E+00 0. -1.
        -12    1    6    6    0    0  0.50382122320E+02  0.47915244932E+02 -0.39499264716E+02  0.79965122769E+02  0.00000000000E+00 0.  1.
</event>
<event>
12    1  0.2576962E-002  0.1905139E+03  0.7818608E-02  0.1157999E+00
          4   -1    0    0  502    0  0.00000000000E+00  0.00000000000E+00  0.14124702130E+03  0.14124702130E+03  0.00000000000E+00 0.  1.
         -4   -1    0    0    0  501 -0.00000000000E+00 -0.00000000000E+00 -0.30855691989E+03  0.30855691989E+03  0.00000000000E+00 0. -1.
          6    2    1    2  502    0 -0.82774760395E+02  0.13253863907E+02  0.83936977600E+01  0.19046560975E+03  0.17081969578E+03 0.  0.
         24    2    3    3    0    0 -0.10639770350E+03 -0.22604548239E+02  0.35071906863E+02  0.13969469284E+03  0.80331386439E+02 0.  0.
         -6    2    1    2    0  501  0.82774760395E+02 -0.13253863907E+02 -0.17570359635E+03  0.25933833144E+03  0.17133969335E+03 0.  0.
        -24    2    5    5    0    0  0.51547010408E+02  0.52614350165E+02 -0.63145601929E+02  0.12515492672E+03  0.79063420830E+02 0.  0.
          5    1    3    3  502    0  0.23622943101E+02  0.35858412146E+02 -0.26678209103E+02  0.50770916905E+02  0.47000000000E+01 0. -1.
        -11    1    4    4    0    0  0.12591374547E+01 -0.18517948958E+02  0.25494831217E+02  0.31535476523E+02  0.00000000000E+00 0.  1.
         12    1    4    4    0    0 -0.10765684095E+03 -0.40865992815E+01  0.95770756465E+01  0.10815921632E+03  0.00000000000E+00 0. -1.
         -5    1    5    5    0  501  0.31227749988E+02 -0.65868214072E+02 -0.11255799442E+03  0.13418340472E+03  0.47000000000E+01 0.  1.
         11    1    6    6    0    0  0.70276971280E+02  0.28378898845E+02 -0.54426989741E+02  0.93308690936E+02  0.00000000000E+00 0. -1.
        -12    1    6    6    0    0 -0.18729960872E+02  0.24235451320E+02 -0.87186121879E+01  0.31846235781E+02  0.00000000000E+00 0.  1.
</event>
<event>
12    1  0.2576962E-002  0.2686168E+03  0.7818608E-02  0.1102074E+00
         -1   -1    0    0    0  501 -0.00000000000E+00  0.00000000000E+00  0.22315837286E+03  0.22315837286E+03  0.00000000000E+00 0.  1.
          1   -1    0    0  502    0  0.00000000000E+00 -0.00000000000E+00 -0.34145584224E+03  0.34145584224E+03  0.00000000000E+00 0. -1.
          6    2    1    2  502    0  0.13760039567E+03  0.15738229984E+03  0.55380063082E+01  0.27024422506E+03  0.17116721202E+03 0.  0.
         24    2    3    3    0    0  0.56192996358E+02  0.83108012421E+02  0.68996989807E+02  0.14299263559E+03  0.74978094555E+02 0.  0.
         -6    2    1    2    0  501 -0.13760039567E+03 -0.15738229984E+03 -0.12383547569E+03  0.29436999003E+03  0.16617884583E+03 0.  0.
        -24    2    5    5    0    0 -0.12942744734E+03 -0.15413920997E+03 -0.15122772917E+03  0.26521968528E+03  0.83434376720E+02 0.  0.
          5    1    3    3  502    0  0.81407399314E+02  0.74274287421E+02 -0.63458983499E+02  0.12725158947E+03  0.47000000000E+01 0. -1.
        -13    1    4    4    0    0  0.45249591718E+02  0.49709000635E+02  0.18985622806E+01  0.67246671542E+02  0.00000000000E+00 0.  1.
         14    1    4    4    0    0  0.10943404639E+02  0.33399011786E+02  0.67098427527E+02  0.75745964051E+02  0.00000000000E+00 0. -1.
         -5    1    5    5    0  501 -0.81729483303E+01 -0.32430898746E+01  0.27392253478E+02  0.29150304749E+02  0.47000000000E+01 0.  1.
         13    1    6    6    0    0 -0.65808165620E+01 -0.57567611448E+02 -0.63717898911E+02  0.86123792741E+02  0.00000000000E+00 0. -1.
        -14    1    6    6    0    0 -0.12284663078E+03 -0.96571598519E+02 -0.87509830254E+02  0.17909589254E+03  0.00000000000E+00 0.  1.
</event>
<event>
12    1  0.2576962E-002  0.2273746E+03  0.7818608E-02  0.1128501E+00
          2   -1    0    0  502    0  0.00000000000E+00  0.00000000000E+00  0.26376423778E+04  0.26376423778E+04  0.00000000000E+00 0.  1.
         -2   -1    0    0    0  501 -0.00000000000E+00 -0.00000000000E+00 -0.33108896984E+02  0.33108896984E+02  0.00000000000E+00 0. -1.
          6    2    1    2  502    0  0.13354062984E+03 -0.63474956884E+02  0.44815342576E+03  0.50238128971E+03  0.17228841300E+03 0.  0.
         24    2    3    3    0    0  0.63157222705E+02  0.16718856974E+02  0.11772322420E+03  0.15511902587E+03  0.77037651262E+02 0.  0.
         -6    2    1    2    0  501 -0.13354062984E+03  0.63474956884E+02  0.21563800550E+04  0.21683699851E+04  0.17317990755E+03 0.  0.
        -24    2    5    5    0    0 -0.60769697788E+02  0.87965603418E+02  0.89665109747E+03  0.90629449729E+03  0.77172674276E+02 0.  0.
          5    1    3    3  502    0  0.70383407139E+02 -0.80193813857E+02  0.33043020156E+03  0.34726226384E+03  0.47000000000E+01 0. -1.
        -13    1    4    4    0    0  0.27115416798E+02  0.46159289125E+02  0.73424710261E+02  0.90868662792E+02  0.00000000000E+00 0.  1.
         14    1    4    4    0    0  0.36041805907E+02 -0.29440432151E+02  0.44298513941E+02  0.64250363078E+02  0.00000000000E+00 0. -1.
         -5    1    5    5    0  501 -0.72770932056E+02 -0.24490646534E+02  0.12597289576E+04  0.12620754878E+04  0.47000000000E+01 0.  1.
         13    1    6    6    0    0 -0.72296008895E+02  0.45646509729E+02  0.67049856161E+03  0.67592798276E+03  0.00000000000E+00 0. -1.
        -14    1    6    6    0    0  0.11526311107E+02  0.42319093689E+02  0.22615253586E+03  0.23036651453E+03  0.00000000000E+00 0.  1.
</event>
<event>
12    1  0.2576962E-002  0.1797025E+03  0.7818608E-02  0.1168091E+00
          1   -1    0    0  502    0  0.00000000000E+00  0.00000000000E+00  0.11644980905E+04  0.11644980905E+04  0.00000000000E+00 0. -1.
         -1   -1    0    0    0  501 -0.00000000000E+00 -0.00000000000E+00 -0.36927471423E+02  0.36927471423E+02  0.00000000000E+00 0.  1.
          6    2    1    2  502    0  0.35213800704E+02 -0.40192324269E+02  0.86393087909E+03  0.88245457868E+03  0.17173841998E+03 0.  0.
         24    2    3    3    0    0  0.35413723884E+02 -0.35915526206E+02  0.86911758203E+03  0.87424952791E+03  0.80017553034E+02 0.  0.
         -6    2    1    2    0  501 -0.35213800704E+02  0.40192324269E+02  0.26363974003E+03  0.31897098329E+03  0.17140927911E+03 0.  0.
        -24    2    5    5    0    0 -0.12295093811E+02  0.90323518912E+02  0.14791273705E+03  0.19070082690E+03  0.78607380041E+02 0.  0.
          5    1    3    3  502    0 -0.19992317928E+00 -0.42767980631E+01 -0.51867029325E+01  0.82050507774E+01  0.47000000000E+01 0. -1.
        -13    1    4    4    0    0  0.90945456565E+01 -0.58846244826E+02  0.57018930589E+03  0.57329001024E+03  0.00000000000E+00 0.  1.
         14    1    4    4    0    0  0.26319178227E+02  0.22930718620E+02  0.29892827614E+03  0.30095951767E+03  0.00000000000E+00 0. -1.
         -5    1    5    5    0  501 -0.22918706893E+02 -0.50131194642E+02  0.11572700298E+03  0.12827015639E+03  0.47000000000E+01 0.  1.
         13    1    6    6    0    0  0.24008261308E+01 -0.32692518374E+01  0.64043088253E+02  0.64171404276E+02  0.00000000000E+00 0. -1.
        -14    1    6    6    0    0 -0.14695919942E+02  0.93592770749E+02  0.83869648797E+02  0.12652942262E+03  0.00000000000E+00 0.  1.
</event>
<event>
12    1  0.2576962E-002  0.2047970E+03  0.7818608E-02  0.1145754E+00
         -3   -1    0    0    0  501 -0.00000000000E+00  0.00000000000E+00  0.20370514352E+03  0.20370514352E+03  0.00000000000E+00 0.  1.
          3   -1    0    0  502    0  0.00000000000E+00 -0.00000000000E+00 -0.20657394661E+03  0.20657394661E+03  0.00000000000E+00 0. -1.
          6    2    1    2  502    0 -0.30511690108E+02 -0.11044670389E+03  0.10008011485E+02  0.20225965049E+03  0.16637117626E+03 0.  0.
         24    2    3    3    0    0 -0.20658312764E+02 -0.66037203301E+02  0.69069292337E+02  0.12756281198E+03  0.81939158838E+02 0.  0.
         -6    2    1    2    0  501  0.30511690108E+02  0.11044670389E+03 -0.12876814574E+02  0.20801943964E+03  0.17313820283E+03 0.  0.
        -24    2    5    5    0    0  0.38184327230E+02  0.31936912039E+02 -0.62863514998E+02  0.11451319922E+03  0.81752321568E+02 0.  0.
          5    1    3    3  502    0 -0.98533773438E+01 -0.44409500587E+02 -0.59061280852E+02  0.74696838510E+02  0.47000000000E+01 0. -1.
        -11    1    4    4    0    0  0.17335049578E+02  0.10839880425E+02  0.20764681567E+02  0.29140675216E+02  0.00000000000E+00 0.  1.
         12    1    4    4    0    0 -0.37993362342E+02 -0.76877083726E+02  0.48304610770E+02  0.98422136768E+02  0.00000000000E+00 0. -1.
         -5    1    5    5    0  501 -0.76726371226E+01  0.78509791849E+02  0.49986700425E+02  0.93506240412E+02  0.47000000000E+01 0.  1.
         11    1    6    6    0    0  0.18308102963E+02  0.56371704653E+02 -0.22692382611E+02  0.63465738380E+02  0.00000000000E+00 0. -1.
        -12    1    6    6    0    0  0.19876224268E+02 -0.24434792614E+02 -0.40171132388E+02  0.51047460843E+02  0.00000000000E+00 0.  1.
</event>
<event>
12    1  0.2576962E-002  0.2230668E+03  0.7818608E-02  0.1131617E+00
         -2   -1    0    0    0  501 -0.00000000000E+00  0.00000000000E+00  0.62630036266E+02  0.62630036266E+02  0.00000000000E+00 0.  1.
          2   -1    0    0  502    0  0.00000000000E+00 -0.00000000000E+00 -0.80096629457E+03  0.80096629457E+03  0.00000000000E+00 0. -1.
          6    2    1    2  502    0 -0.62919371926E+01 -0.14202345093E+03 -0.40867816934E+03  0.46579256330E+03  0.17243728378E+03 0.  0.
         24    2    3    3    0    0 -0.46020270875E+02 -0.28570742285E+02 -0.12139091253E+03  0.15433483659E+03  0.78417698865E+02 0.  0.
         -6    2    1    2    0  501  0.62919371926E+01  0.14202345093E+03 -0.32965808896E+03  0.39780376754E+03  0.17135674123E+03 0.  0.
        -24    2    5    5    0    0  0.23434274538E+02  0.29327044477E+02 -0.23095821928E+03  0.24694590718E+03  0.78938845063E+02 0.  0.
          5    1    3    3  502    0  0.39728333683E+02 -0.11345270865E+03 -0.28728725681E+03  0.31145772670E+03  0.47000000000E+01 0. -1.
        -11    1    4    4    0    0 -0.50232599805E+02 -0.50944721040E+02 -0.10099085800E+03  0.12376522970E+03  0.00000000000E+00 0.  1.
         12    1    4    4    0    0  0.42123289296E+01  0.22373978755E+02 -0.20400054533E+02  0.30569606888E+02  0.00000000000E+00 0. -1.
         -5    1    5    5    0  501 -0.17142337345E+02  0.11269640645E+03 -0.98699869689E+02  0.15085786037E+03  0.47000000000E+01 0.  1.
         13    1    6    6    0    0 -0.15606429755E+02  0.40443904675E+02 -0.84564405263E+02  0.95028462645E+02  0.00000000000E+00 0. -1.
        -14    1    6    6    0    0  0.39040704292E+02 -0.11116860198E+02 -0.14639381401E+03  0.15191744453E+03  0.00000000000E+00 0.  1.
</event>
<event>
12    1  0.2576962E-002  0.1972381E+03  0.7818608E-02  0.1152090E+00
         -1   -1    0    0    0  501 -0.00000000000E+00  0.00000000000E+00  0.77197361235E+02  0.77197361235E+02  0.00000000000E+00 0.  1.
          1   -1    0    0  502    0  0.00000000000E+00 -0.00000000000E+00 -0.70893828734E+03  0.70893828734E+03  0.00000000000E+00 0. -1.
          6    2    1    2  502    0  0.95234695551E+02 -0.61079012415E+01 -0.52604077166E+03  0.56143771357E+03  0.17142479131E+03 0.  0.
         24    2    3    3    0    0  0.94196632687E+02 -0.63184675762E+02 -0.39473770358E+03  0.41818471552E+03  0.78710182335E+02 0.  0.
         -6    2    1    2    0  501 -0.95234695551E+02  0.61079012415E+01 -0.10570015445E+03  0.22469793501E+03  0.17380933707E+03 0.  0.
        -24    2    5    5    0    0 -0.60549979242E+01 -0.44635191470E+02 -0.72596614636E+02  0.11678216102E+03  0.79616840924E+02 0.  0.
          5    1    3    3  502    0  0.10380628640E+01  0.57076774520E+02 -0.13130306808E+03  0.14325299805E+03  0.47000000000E+01 0. -1.
        -13    1    4    4    0    0  0.21943617251E+02 -0.61126585658E+02 -0.16405834225E+03  0.17644580322E+03  0.00000000000E+00 0.  1.
         14    1    4    4    0    0  0.72253015435E+02 -0.20580901036E+01 -0.23067936133E+03  0.24173891230E+03  0.00000000000E+00 0. -1.
         -5    1    5    5    0  501 -0.89179697627E+02  0.50743092712E+02 -0.33103539811E+02  0.10791577398E+03  0.47000000000E+01 0.  1.
         13    1    6    6    0    0 -0.27173821609E+02 -0.50343817849E+02 -0.21353597746E+02  0.61064660099E+02  0.00000000000E+00 0. -1.
        -14    1    6    6    0    0  0.21118823684E+02  0.57086263785E+01 -0.51243016890E+02  0.55717500922E+02  0.00000000000E+00 0.  1.
</event>
<event>
12    1  0.2576962E-002  0.1944531E+03  0.7818608E-02  0.1154505E+00
         -2   -1    0    0    0  501 -0.00000000000E+00  0.00000000000E+00  0.28702803154E+02  0.28702803154E+02  0.00000000000E+00 0.  1.
          2   -1    0    0  502    0  0.00000000000E+00 -0.00000000000E+00 -0.20616459863E+04  0.20616459863E+04  0.00000000000E+00 0. -1.
          6    2    1    2  502    0 -0.40837430547E+02 -0.55372144445E+02 -0.42129233456E+03  0.46807120528E+03  0.19201471803E+03 0.  0.
         24    2    3    3    0    0 -0.88082941259E+02 -0.35662045986E+02 -0.38492571497E+03  0.40510099578E+03  0.83118136855E+02 0.  0.
         -6    2    1    2    0  501  0.40837430547E+02  0.55372144445E+02 -0.16116508486E+04  0.16222775842E+04  0.17214044338E+03 0.  0.
        -24    2    5    5    0    0  0.40148484951E+02  0.58084846592E+02 -0.16127961375E+04  0.16166887484E+04  0.87094074466E+02 0.  0.
          5    1    3    3  502    0  0.47245510712E+02 -0.19710098459E+02 -0.36366619586E+02  0.62970209495E+02  0.47000000000E+01 0. -1.
        -13    1    4    4    0    0 -0.49921554272E+02 -0.31943403659E+02 -0.90437206402E+02  0.10812692042E+03  0.00000000000E+00 0.  1.
         14    1    4    4    0    0 -0.38161386987E+02 -0.37186423274E+01 -0.29448850857E+03  0.29697407536E+03  0.00000000000E+00 0. -1.
         -5    1    5    5    0  501  0.68894559526E+00 -0.27127021468E+01  0.11452888898E+01  0.55888358011E+01  0.47000000000E+01 0.  1.
         13    1    6    6    0    0  0.65723640288E+02  0.48422498338E+02 -0.10195837982E+04  0.10228467416E+04  0.00000000000E+00 0. -1.
        -14    1    6    6    0    0 -0.25575155337E+02  0.96623482532E+01 -0.59321233928E+03  0.59384200679E+03  0.00000000000E+00 0.  1.
</event>
<event>
12    1  0.2576962E-002  0.1901009E+03  0.7818608E-02  0.1158370E+00
         -1   -1    0    0    0  501 -0.00000000000E+00  0.00000000000E+00  0.21073925112E+03  0.21073925112E+03  0.00000000000E+00 0.  1.
          1   -1    0    0  502    0  0.00000000000E+00 -0.00000000000E+00 -0.17730598607E+03  0.17730598607E+03  0.00000000000E+00 0. -1.
          6    2    1    2  502    0  0.58601824514E+02  0.48059528109E+02 -0.18145773982E+02  0.19341626587E+03  0.17702172384E+03 0.  0.
         24    2    3    3    0    0 -0.15668793752E+02  0.53200634689E+02 -0.51203014150E+02  0.11182320954E+03  0.82503714484E+02 0.  0.
         -6    2    1    2    0  501 -0.58601824514E+02 -0.48059528109E+02  0.51579039035E+02  0.19462897132E+03  0.17168618795E+03 0.  0.
        -24    2    5    5    0    0 -0.81806783899E+02 -0.64793273442E+02 -0.87887581870E+01  0.12765995375E+03  0.73002077684E+02 0.  0.
          5    1    3    3  502    0  0.74270618266E+02 -0.51411065807E+01  0.33057240168E+02  0.81593056335E+02  0.47000000000E+01 0. -1.
        -11    1    4    4    0    0  0.10857768678E+02  0.35516399104E+02 -0.66724998747E+02  0.76364462964E+02  0.00000000000E+00 0.  1.
         12    1    4    4    0    0 -0.26526562429E+02  0.17684235586E+02  0.15521984597E+02  0.35458746571E+02  0.00000000000E+00 0. -1.
         -5    1    5    5    0  501  0.23204959385E+02  0.16733745334E+02  0.60367797222E+02  0.66969017571E+02  0.47000000000E+01 0.  1.
         11    1    6    6    0    0 -0.44966123136E+02 -0.74395264489E+02 -0.17336839155E+02  0.88640699457E+02  0.00000000000E+00 0. -1.
        -12    1    6    6    0    0 -0.36840660763E+02  0.96019910466E+01  0.85480809680E+01  0.39019254295E+02  0.00000000000E+00 0.  1.
</event>
<event>
12    1  0.2576962E-002  0.1757668E+03  0.7818608E-02  0.1171964E+00
         -1   -1    0    0    0  501 -0.00000000000E+00  0.00000000000E+00  0.87024911886E+02  0.87024911886E+02  0.00000000000E+00 0. -1.
          1   -1    0    0  502    0  0.00000000000E+00 -0.00000000000E+00 -0.39818640548E+03  0.39818640548E+03  0.00000000000E+00 0.  1.
          6    2    1    2  502    0 -0.27944274214E+02  0.25424128881E+02 -0.23543183887E+03  0.29377255792E+03  0.17160097972E+03 0.  0.
         24    2    3    3    0    0 -0.13612855083E+02  0.82480568075E+02 -0.14583557012E+03  0.18648598745E+03  0.80750579384E+02 0.  0.
         -6    2    1    2    0  501  0.27944274214E+02 -0.25424128881E+02 -0.75729654716E+02  0.19143875944E+03  0.17171647918E+03 0.  0.
        -24    2    5    5    0    0 -0.33212513639E+02  0.82982343467E+01  0.19473609435E+01  0.86877010968E+02  0.79824125830E+02 0.  0.
          5    1    3    3  502    0 -0.14331419130E+02 -0.57056439194E+02 -0.89596268754E+02  0.10728657047E+03  0.47000000000E+01 0. -1.
        -11    1    4    4    0    0 -0.35122156635E+02  0.86330256503E+02 -0.10678396137E+03  0.14173670477E+03  0.00000000000E+00 0.  1.
         12    1    4    4    0    0  0.21509301552E+02 -0.38496884287E+01 -0.39051608750E+02  0.44749282678E+02  0.00000000000E+00 0. -1.
         -5    1    5    5    0  501  0.61156787853E+02 -0.33722363227E+02 -0.77677015660E+02  0.10456174847E+03  0.47000000000E+01 0.  1.
         13    1    6    6    0    0 -0.24707261292E+02  0.21997595919E+01  0.40189864470E+02  0.47228306225E+02  0.00000000000E+00 0. -1.
        -14    1    6    6    0    0 -0.85052523470E+01  0.60984747548E+01 -0.38242503526E+02  0.39648704743E+02  0.00000000000E+00 0.  1.
</event>
<event>
12    1  0.2576962E-002  0.1930921E+03  0.7818608E-02  0.1155702E+00
         -2   -1    0    0    0  501 -0.00000000000E+00  0.00000000000E+00  0.42549159722E+02  0.42549159722E+02  0.00000000000E+00 0. -1.
          2   -1    0    0  502    0  0.00000000000E+00 -0.00000000000E+00 -0.14937865776E+04  0.14937865776E+04  0.00000000000E+00 0.  1.
          6    2    1    2  502    0 -0.31842363982E+01 -0.86658135338E+02 -0.12202085985E+04  0.12354413853E+04  0.17287747352E+03 0.  0.
         24    2    3    3    0    0  0.16072198793E+02  0.20224335672E+02 -0.60358095409E+03  0.60930528606E+03  0.79218837122E+02 0.  0.
         -6    2    1    2    0  501  0.31842363982E+01  0.86658135338E+02 -0.23102881946E+03  0.30089435211E+03  0.17217236692E+03 0.  0.
        -24    2    5    5    0    0 -0.57295674506E+02  0.26525281945E+02 -0.16047761950E+03  0.19010923806E+03  0.80012943554E+02 0.  0.
          5    1    3    3  502    0 -0.19256435192E+02 -0.10688247101E+03 -0.61662764437E+03  0.62613609919E+03  0.47000000000E+01 0. -1.
        -13    1    4    4    0    0 -0.16628772754E+02 -0.11695948300E+02 -0.40599695272E+03  0.40650564192E+03  0.00000000000E+00 0.  1.
         14    1    4    4    0    0  0.32700971548E+02  0.31920283972E+02 -0.19758400137E+03  0.20279964415E+03  0.00000000000E+00 0. -1.
         -5    1    5    5    0  501  0.60479910904E+02  0.60132853393E+02 -0.70551199960E+02  0.11078511405E+03  0.47000000000E+01 0.  1.
         13    1    6    6    0    0 -0.28434203148E+02  0.41226843282E+01 -0.35093620741E+01  0.28945052374E+02  0.00000000000E+00 0. -1.
        -14    1    6    6    0    0 -0.28861471358E+02  0.22402597617E+02 -0.15696825742E+03  0.16116418568E+03  0.00000000000E+00 0.  1.
</event>
<event>
12    1  0.2576962E-002  0.2002909E+03  0.7818608E-02  0.1149494E+00
         -2   -1    0    0    0  501 -0.00000000000E+00  0.00000000000E+00  0.30576582413E+02  0.30576582413E+02  0.00000000000E+00 0. -1.
          2   -1    0    0  502    0  0.00000000000E+00 -0.00000000000E+00 -0.15288882810E+04  0.15288882810E+04  0.00000000000E+00 0.  1.
          6    2    1    2  502    0 -0.94126372878E+02  0.40586347378E+02 -0.45397660178E+03  0.49600809312E+03  0.17152914564E+03 0.  0.
         24    2    3    3    0    0 -0.15122430811E+02 -0.20199782275E+02 -0.10862404182E+03  0.13652644255E+03  0.78762731901E+02 0.  0.
         -6    2    1    2    0  501  0.94126372878E+02 -0.40586347378E+02 -0.10443350968E+04  0.10634567703E+04  0.17261947228E+03 0.  0.
        -24    2    5    5    0    0  0.29232992473E+01 -0.61949057804E+02 -0.41201796930E+03  0.42422175422E+03  0.79743703770E+02 0.  0.
          5    1    3    3  502    0 -0.79003942067E+02  0.60786129653E+02 -0.34535255996E+03  0.35948165057E+03  0.47000000000E+01 0. -1.
        -11    1    4    4    0    0  0.56537519399E+00 -0.39288477383E+02 -0.10428313424E+03  0.11144001162E+03  0.00000000000E+00 0.  1.
         12    1    4    4    0    0 -0.15687806005E+02  0.19088695107E+02 -0.43409075855E+01  0.25086430930E+02  0.00000000000E+00 0. -1.
         -5    1    5    5    0  501  0.91203073630E+02  0.21362710426E+02 -0.63231712750E+03  0.63923501606E+03  0.47000000000E+01 0.  1.
         11    1    6    6    0    0  0.10020823739E+02  0.17120447380E+02 -0.54562750725E+02  0.58057044306E+02  0.00000000000E+00 0. -1.
        -12    1    6    6    0    0 -0.70975244918E+01 -0.79069505184E+02 -0.35745521857E+03  0.36616470992E+03  0.00000000000E+00 0.  1.
</event>
<event>
12    1  0.2576962E-002  0.2698990E+03  0.7818608E-02  0.1101337E+00
         -1   -1    0    0    0  501 -0.00000000000E+00  0.00000000000E+00  0.58749398630E+02  0.58749398630E+02  0.00000000000E+00 0. -1.
          1   -1    0    0  502    0  0.00000000000E+00 -0.00000000000E+00 -0.17208041083E+04  0.17208041083E+04  0.00000000000E+00 0.  1.
          6    2    1    2  502    0 -0.13969813319E+03 -0.15375229684E+03 -0.13013287775E+04  0.13290177915E+04  0.17226829546E+03 0.  0.
         24    2    3    3    0    0 -0.12181744428E+03 -0.11794150607E+03 -0.12493001488E+04  0.12632059386E+04  0.78668245877E+02 0.  0.
         -6    2    1    2    0  501  0.13969813319E+03  0.15375229684E+03 -0.36072593218E+03  0.45053571550E+03  0.17234818128E+03 0.  0.
        -24    2    5    5    0    0  0.80693124768E+01  0.42547271960E+02 -0.17455618005E+03  0.19681545495E+03  0.79944225306E+02 0.  0.
          5    1    3    3  502    0 -0.17880688912E+02 -0.35810790776E+02 -0.52028628714E+02  0.65811852868E+02  0.47000000000E+01 0. -1.
        -13    1    4    4    0    0 -0.52642756930E+02 -0.25576307694E+02 -0.22740122657E+03  0.23481210620E+03  0.00000000000E+00 0.  1.
         14    1    4    4    0    0 -0.69174687352E+02 -0.92365198373E+02 -0.10218989222E+04  0.10283938324E+04  0.00000000000E+00 0. -1.
         -5    1    5    5    0  501  0.13162882072E+03  0.11120502488E+03 -0.18616975213E+03  0.25372026055E+03  0.47000000000E+01 0.  1.
         13    1    6    6    0    0  0.27258364529E+01  0.66143045553E+02 -0.13675640704E+03  0.15193632721E+03  0.00000000000E+00 0. -1.
        -14    1    6    6    0    0  0.53434760240E+01 -0.23595773593E+02 -0.37799773009E+02  0.44879127743E+02  0.00000000000E+00 0.  1.
</event>
<event>
12    1  0.2576962E-002  0.2182850E+03  0.7818608E-02  0.1135168E+00
          3   -1    0    0  502    0  0.00000000000E+00  0.00000000000E+00  0.31362909288E+03  0.31362909288E+03  0.00000000000E+00 0. -1.
         -3   -1    0    0    0  501 -0.00000000000E+00 -0.00000000000E+00 -0.18643451961E+03  0.18643451961E+03  0.00000000000E+00 0.  1.
          6    2    1    2  502    0 -0.73638703424E+02  0.11389463823E+03 -0.44053914501E+02  0.22235386145E+03  0.17060435240E+03 0.  0.
         24    2    3    3    0    0 -0.11167274467E+03  0.66756248530E+02 -0.44997139058E+02  0.16159535793E+03  0.84623392515E+02 0.  0.
         -6    2    1    2    0  501  0.73638703424E+02 -0.11389463823E+03  0.17124848778E+03  0.27770975104E+03  0.17147015483E+03 0.  0.
        -24    2    5    5    0    0  0.10664861845E+03 -0.75736169429E+02  0.16748480686E+03  0.22689657829E+03  0.79504726491E+02 0.  0.
          5    1    3    3  502    0  0.38034041247E+02  0.47138389701E+02  0.94322455747E+00  0.60758503518E+02  0.47000000000E+01 0. -1.
        -13    1    4    4    0    0 -0.33182407224E+02 -0.14860208065E+02  0.69465330135E+01  0.37015567723E+02  0.00000000000E+00 0.  1.
         14    1    4    4    0    0 -0.78490337447E+02  0.81616456595E+02 -0.51943672072E+02  0.12457979021E+03  0.00000000000E+00 0. -1.
         -5    1    5    5    0  501 -0.33009915021E+02 -0.38158468803E+02  0.37636809168E+01  0.50813172752E+02  0.47000000000E+01 0.  1.
         11    1    6    6    0    0  0.55399160073E+02 -0.40496512295E+01  0.10526803427E+03  0.11902447501E+03  0.00000000000E+00 0. -1.
        -12    1    6    6    0    0  0.51249458372E+02 -0.71686518199E+02  0.62216772593E+02  0.10787210328E+03  0.00000000000E+00 0.  1.
</event>
<event>
12    1  0.2576962E-002  0.1987991E+03  0.7818608E-02  0.1150756E+00
          4   -1    0    0  502    0  0.00000000000E+00  0.00000000000E+00  0.11004115021E+03  0.11004115021E+03  0.00000000000E+00 0. -1.
         -4   -1    0    0    0  501 -0.00000000000E+00 -0.00000000000E+00 -0.43574771456E+03  0.43574771456E+03  0.00000000000E+00 0.  1.
          6    2    1    2  502    0 -0.98799217277E+02 -0.21525791276E+02 -0.48448250383E+02  0.20463457125E+03  0.17118244584E+03 0.  0.
         24    2    3    3    0    0 -0.12818060122E+03  0.70275570040E+01 -0.17323251693E+02  0.15296818988E+03  0.81360426373E+02 0.  0.
         -6    2    1    2    0  501  0.98799217277E+02  0.21525791276E+02 -0.27725831397E+03  0.34115429351E+03  0.17114156214E+03 0.  0.
        -24    2    5    5    0    0  0.33684217056E+02  0.68226333006E+02 -0.11245320657E+03  0.15784112629E+03  0.80489989977E+02 0.  0.
          5    1    3    3  502    0  0.29381383945E+02 -0.28553348280E+02 -0.31124998691E+02  0.51666381371E+02  0.47000000000E+01 0. -1.
        -11    1    4    4    0    0 -0.36816645203E+02  0.10222858756E+02 -0.43476762774E+02  0.57880921783E+02  0.00000000000E+00 0.  1.
         12    1    4    4    0    0 -0.91363956019E+02 -0.31953017523E+01  0.26153511081E+02  0.95087268099E+02  0.00000000000E+00 0. -1.
         -5    1    5    5    0  501  0.65115000220E+02 -0.46700541729E+02 -0.16480510740E+03  0.18331316722E+03  0.47000000000E+01 0.  1.
         11    1    6    6    0    0  0.48520981886E+02  0.54137043836E+02 -0.40887447137E+02  0.83407964439E+02  0.00000000000E+00 0. -1.
        -12    1    6    6    0    0 -0.14836764830E+02  0.14089289169E+02 -0.71565759432E+02  0.74433161850E+02  0.00000000000E+00 0.  1.
</event>
<event>
12    1  0.2576962E-002  0.1672386E+03  0.7818608E-02  0.1180759E+00
         -2   -1    0    0    0  501 -0.00000000000E+00  0.00000000000E+00  0.17674056447E+02  0.17674056447E+02  0.00000000000E+00 0.  1.
          2   -1    0    0  502    0  0.00000000000E+00 -0.00000000000E+00 -0.19353314452E+04  0.19353314452E+04  0.00000000000E+00 0. -1.
          6    2    1    2  502    0 -0.51734361791E+01 -0.24240924394E+02 -0.55116877283E+03  0.57655549426E+03  0.16737632737E+03 0.  0.
         24    2    3    3    0    0 -0.14899663797E+02  0.40061577296E+02 -0.19194654400E+03  0.21146357308E+03  0.77758838912E+02 0.  0.
         -6    2    1    2    0  501  0.51734361791E+01  0.24240924394E+02 -0.13664886159E+04  0.13764500074E+04  0.16342918505E+03 0.  0.
        -24    2    5    5    0    0  0.30484326172E+02 -0.38527864928E+02 -0.41012783333E+03  0.41768590786E+03  0.61991833587E+02 0.  0.
          5    1    3    3  502    0  0.97262276184E+01 -0.64302501691E+02 -0.35922222883E+03  0.36509192118E+03  0.47000000000E+01 0. -1.
        -11    1    4    4    0    0 -0.30550103930E+02 -0.10117087748E+02 -0.10542191733E+03  0.11022452072E+03  0.00000000000E+00 0.  1.
         12    1    4    4    0    0  0.15650440133E+02  0.50178665044E+02 -0.86524626677E+02  0.10123905236E+03  0.00000000000E+00 0. -1.
         -5    1    5    5    0  501 -0.25310889993E+02  0.62768789322E+02 -0.95636078258E+03  0.95876409951E+03  0.47000000000E+01 0.  1.
         13    1    6    6    0    0  0.51063232887E+01 -0.16696303700E+02 -0.33479430306E+03  0.33524926018E+03  0.00000000000E+00 0. -1.
        -14    1    6    6    0    0  0.25378002883E+02 -0.21831561227E+02 -0.75333530277E+02  0.82436647675E+02  0.00000000000E+00 0.  1.
</event>
<event>
12    1  0.2576962E-002  0.2054489E+03  0.7818608E-02  0.1145222E+00
          1   -1    0    0  502    0  0.00000000000E+00  0.00000000000E+00  0.91141879399E+03  0.91141879399E+03  0.00000000000E+00 0. -1.
         -1   -1    0    0    0  501 -0.00000000000E+00 -0.00000000000E+00 -0.69239673017E+02  0.69239673017E+02  0.00000000000E+00 0.  1.
          6    2    1    2  502    0 -0.10770138599E+03  0.17433546872E+01  0.14133738752E+03  0.25080844661E+03  0.17699150248E+03 0.  0.
         24    2    3    3    0    0 -0.43020424098E+02 -0.46536983268E+02  0.17621830528E+02  0.10301721918E+03  0.79281592029E+02 0.  0.
         -6    2    1    2    0  501  0.10770138599E+03 -0.17433546872E+01  0.70084173346E+03  0.72985002040E+03  0.17291410900E+03 0.  0.
        -24    2    5    5    0    0  0.60661701326E+02 -0.61058578408E+02  0.30742590024E+03  0.32918914694E+03  0.80292081290E+02 0.  0.
          5    1    3    3  502    0 -0.64680961892E+02  0.48280337956E+02  0.12371555699E+03  0.14779122743E+03  0.47000000000E+01 0. -1.
        -11    1    4    4    0    0 -0.60466162464E+02 -0.55294973481E+02  0.13071402744E+02  0.82973203295E+02  0.00000000000E+00 0.  1.
         12    1    4    4    0    0  0.17445738366E+02  0.87579902125E+01  0.45504277837E+01  0.20044015883E+02  0.00000000000E+00 0. -1.
         -5    1    5    5    0  501  0.47039684665E+02  0.59315223720E+02  0.39341583321E+03  0.40066087346E+03  0.47000000000E+01 0.  1.
         11    1    6    6    0    0  0.39331445030E+02  0.11990305329E+02  0.12252512335E+03  0.12924061220E+03  0.00000000000E+00 0. -1.
        -12    1    6    6    0    0  0.21330256295E+02 -0.73048883736E+02  0.18490077690E+03  0.19994853474E+03  0.00000000000E+00 0.  1.
</event>
<event>
12    1  0.2576962E-002  0.2106308E+03  0.7818608E-02  0.1141067E+00
         -1   -1    0    0    0  501 -0.00000000000E+00  0.00000000000E+00  0.11336671028E+03  0.11336671028E+03  0.00000000000E+00 0.  1.
          1   -1    0    0  502    0  0.00000000000E+00 -0.00000000000E+00 -0.39810814943E+03  0.39810814943E+03  0.00000000000E+00 0. -1.
          6    2    1    2  502    0  0.10516358671E+03  0.63623653248E+02 -0.17473740280E+03  0.27260763027E+03  0.16933520283E+03 0.  0.
         24    2    3    3    0    0  0.83470771650E+02  0.10264185613E+03 -0.10871770462E+03  0.19277224382E+03  0.88537440316E+02 0.  0.
         -6    2    1    2    0  501 -0.10516358671E+03 -0.63623653248E+02 -0.11000403634E+03  0.23886722943E+03  0.17276954611E+03 0.  0.
        -24    2    5    5    0    0 -0.12844137869E+03 -0.66211059543E+02 -0.47690745844E+02  0.17213203300E+03  0.80460781631E+02 0.  0.
          5    1    3    3  502    0  0.21692815062E+02 -0.39018202884E+02 -0.66019698185E+02  0.79835386453E+02  0.47000000000E+01 0. -1.
        -13    1    4    4    0    0  0.97413095765E+02  0.60244496528E+02 -0.79683046310E+02  0.13952812784E+03  0.00000000000E+00 0.  1.
         14    1    4    4    0    0 -0.13942324115E+02  0.42397359605E+02 -0.29034658309E+02  0.53244115978E+02  0.00000000000E+00 0. -1.
         -5    1    5    5    0  501  0.23277791974E+02  0.25874062945E+01 -0.62313290499E+02  0.66735196436E+02  0.47000000000E+01 0.  1.
         11    1    6    6    0    0 -0.11076419949E+03 -0.18450469852E+02 -0.45498435386E+02  0.12115789429E+03  0.00000000000E+00 0. -1.
        -12    1    6    6    0    0 -0.17677179197E+02 -0.47760589691E+02 -0.21923104573E+01  0.50974138709E+02  0.00000000000E+00 0.  1.
</event>
<event>
12    1  0.2576962E-002  0.2683058E+03  0.7818608E-02  0.1102253E+00
          2   -1    0    0  502    0  0.00000000000E+00  0.00000000000E+00  0.75589190351E+02  0.75589190351E+02  0.00000000000E+00 0.  1.
         -2   -1    0    0    0  501 -0.00000000000E+00 -0.00000000000E+00 -0.95251897007E+03  0.95251897007E+03  0.00000000000E+00 0. -1.
          6    2    1    2  502    0  0.74480141801E+02  0.19232445130E+03 -0.43256991101E+03  0.50925581609E+03  0.17230430124E+03 0.  0.
         24    2    3    3    0    0  0.46211757464E+02  0.27064916772E+02 -0.11197141300E+03  0.14743361911E+03  0.79567823062E+02 0.  0.
         -6    2    1    2    0  501 -0.74480141801E+02 -0.19232445130E+03 -0.44435986871E+03  0.51885234432E+03  0.17092710785E+03 0.  0.
        -24    2    5    5    0    0 -0.77436063408E+02 -0.57992803714E+02 -0.14652935534E+03  0.19208203706E+03  0.77879058711E+02 0.  0.
          5    1    3    3  502    0  0.28268384337E+02  0.16525953453E+03 -0.32059849800E+03  0.36182219698E+03  0.47000000000E+01 0. -1.
        -13    1    4    4    0    0 -0.12299996239E+02  0.83770737052E+01  0.46788006827E+01  0.15599886127E+02  0.00000000000E+00 0.  1.
         14    1    4    4    0    0  0.58511753703E+02  0.18687843067E+02 -0.11665021369E+03  0.13183373299E+03  0.00000000000E+00 0. -1.
         -5    1    5    5    0  501  0.29559216068E+01 -0.13433164759E+03 -0.29783051337E+03  0.32677030726E+03  0.47000000000E+01 0.  1.
         13    1    6    6    0    0  0.13578531850E+02 -0.19424345133E+02 -0.17109912570E+02  0.29230648628E+02  0.00000000000E+00 0. -1.
        -14    1    6    6    0    0 -0.91014595258E+02 -0.38568458581E+02 -0.12941944277E+03  0.16285138843E+03  0.00000000000E+00 0.  1.
</event>
<event>
12    1  0.2576962E-002  0.1911458E+03  0.7818608E-02  0.1157432E+00
          2   -1    0    0  502    0  0.00000000000E+00  0.00000000000E+00  0.20464175312E+03  0.20464175312E+03  0.00000000000E+00 0.  1.
         -2   -1    0    0    0  501 -0.00000000000E+00 -0.00000000000E+00 -0.19141870766E+03  0.19141870766E+03  0.00000000000E+00 0. -1.
          6    2    1    2  502    0  0.70142002791E+02 -0.41335279392E+02  0.57988456421E+02  0.20010821225E+03  0.17335550079E+03 0.  0.
         24    2    3    3    0    0  0.21517824991E+02  0.43533118733E+02  0.29323240973E+02  0.98075177186E+02  0.80004616742E+02 0.  0.
         -6    2    1    2    0  501 -0.70142002791E+02  0.41335279392E+02 -0.44765410961E+02  0.19595224853E+03  0.17252488460E+03 0.  0.
        -24    2    5    5    0    0 -0.81825399200E+02 -0.84249402541E+01 -0.74882252998E+02  0.13644010367E+03  0.79007433215E+02 0.  0.
          5    1    3    3  502    0  0.48624177800E+02 -0.84868398125E+02  0.28665215447E+02  0.10203303506E+03  0.47000000000E+01 0. -1.
        -11    1    4    4    0    0 -0.10216873202E+02 -0.97020685897E+01  0.33110038272E+02  0.35983180339E+02  0.00000000000E+00 0.  1.
         12    1    4    4    0    0  0.31734698193E+02  0.53235187323E+02 -0.37867972989E+01  0.62091996847E+02  0.00000000000E+00 0. -1.
         -5    1    5    5    0  501  0.11683396410E+02  0.49760219646E+02  0.30116842037E+02  0.59512144855E+02  0.47000000000E+01 0.  1.
         13    1    6    6    0    0 -0.61754917380E+02 -0.55443710788E+01 -0.33544665972E+01  0.62093979720E+02  0.00000000000E+00 0. -1.
        -14    1    6    6    0    0 -0.20070481820E+02 -0.28805691753E+01 -0.71527786401E+02  0.74346123952E+02  0.00000000000E+00 0.  1.
</event>
<event>
12    1  0.2576962E-002  0.2114241E+03  0.7818608E-02  0.1140443E+00
         -2   -1    0    0    0  501 -0.00000000000E+00  0.00000000000E+00  0.15329321337E+03  0.15329321337E+03  0.00000000000E+00 0. -1.
          2   -1    0    0  502    0  0.00000000000E+00 -0.00000000000E+00 -0.39303092294E+03  0.39303092294E+03  0.00000000000E+00 0.  1.
          6    2    1    2  502    0 -0.12492912951E+03  0.72019018903E+01 -0.25855656805E+03  0.33387054217E+03  0.17017310380E+03 0.  0.
         24    2    3    3    0    0 -0.46149539165E+02 -0.21726105407E+01 -0.23319093637E+03  0.25044626148E+03  0.78808736087E+02 0.  0.
         -6    2    1    2    0  501  0.12492912951E+03 -0.72019018903E+01  0.18818858482E+02  0.21245359414E+03  0.17065528248E+03 0.  0.
        -24    2    5    5    0    0  0.12951596970E+03  0.41197709986E+02  0.34841740266E+02  0.16104946713E+03  0.79065455703E+02 0.  0.
          5    1    3    3  502    0 -0.78779590341E+02  0.93745124310E+01 -0.25365631676E+02  0.83424280685E+02  0.47000000000E+01 0. -1.
        -13    1    4    4    0    0  0.92112187626E+00 -0.21533129681E+02 -0.15912723750E+03  0.16058020381E+03  0.00000000000E+00 0.  1.
         14    1    4    4    0    0 -0.47070661041E+02  0.19360519141E+02 -0.74063698869E+02  0.89866057677E+02  0.00000000000E+00 0. -1.
         -5    1    5    5    0  501 -0.45868401895E+01 -0.48399611876E+02 -0.16022881783E+02  0.51404127007E+02  0.47000000000E+01 0.  1.
         13    1    6    6    0    0  0.38868711128E+02  0.38223471522E+02 -0.16337412394E+02  0.56909766505E+02  0.00000000000E+00 0. -1.
        -14    1    6    6    0    0  0.90647258568E+02  0.29742384639E+01  0.51179152660E+02  0.10413970063E+03  0.00000000000E+00 0.  1.
</event>
<event>
12    1  0.2576962E-002  0.1860863E+03  0.7818608E-02  0.1162039E+00
         -1   -1    0    0    0  501 -0.00000000000E+00  0.00000000000E+00  0.49884957689E+02  0.49884957689E+02  0.00000000000E+00 0.  1.
          1   -1    0    0  502    0  0.00000000000E+00 -0.00000000000E+00 -0.86507837637E+03  0.86507837637E+03  0.00000000000E+00 0. -1.
          6    2    1    2  502    0  0.41207549180E+02 -0.57173150162E+02 -0.61065332107E+03  0.63832895901E+03  0.17204519805E+03 0.  0.
         24    2    3    3    0    0  0.17712316519E+02  0.16842718850E+02 -0.15504827828E+03  0.17612941353E+03  0.79901178839E+02 0.  0.
         -6    2    1    2    0  501 -0.41207549180E+02  0.57173150162E+02 -0.20454009761E+03  0.27663437504E+03  0.17240387095E+03 0.  0.
        -24    2    5    5    0    0 -0.27935697016E+02  0.97767742325E+02 -0.19141112511E+03  0.23170640056E+03  0.81918878390E+02 0.  0.
          5    1    3    3  502    0  0.23495232661E+02 -0.74015869012E+02 -0.45560504279E+03  0.46219954548E+03  0.47000000000E+01 0. -1.
        -13    1    4    4    0    0 -0.21992167285E+02  0.13614389774E+02 -0.12097575507E+03  0.12370990399E+03  0.00000000000E+00 0.  1.
         14    1    4    4    0    0  0.39704483803E+02  0.32283290761E+01 -0.34072523204E+02  0.52419509538E+02  0.00000000000E+00 0. -1.
         -5    1    5    5    0  501 -0.13271852164E+02 -0.40594592163E+02 -0.13128972503E+02  0.44927974490E+02  0.47000000000E+01 0.  1.
         11    1    6    6    0    0  0.21879983009E+02  0.13789467900E+02 -0.14530649959E+02  0.29665179414E+02  0.00000000000E+00 0. -1.
        -12    1    6    6    0    0 -0.49815680025E+02  0.83978274425E+02 -0.17688047515E+03  0.20204122114E+03  0.00000000000E+00 0.  1.
</event>
<event>
12    1  0.2576962E-002  0.2001042E+03  0.7818608E-02  0.1149651E+00
         -2   -1    0    0    0  501 -0.00000000000E+00  0.00000000000E+00  0.26278110172E+03  0.26278110172E+03  0.00000000000E+00 0.  1.
          2   -1    0    0  502    0  0.00000000000E+00 -0.00000000000E+00 -0.15294752845E+03  0.15294752845E+03  0.00000000000E+00 0. -1.
          6    2    1    2  502    0 -0.42604167017E+01  0.10157731084E+03  0.67307931400E+02  0.21019286939E+03  0.17121502121E+03 0.  0.
         24    2    3    3    0    0  0.90460945261E+01  0.10432390116E+03 -0.89981417109E+01  0.13254421330E+03  0.80757004321E+02 0.  0.
         -6    2    1    2    0  501  0.42604167017E+01 -0.10157731084E+03  0.42525641876E+02  0.20553576077E+03  0.17349471898E+03 0.  0.
        -24    2    5    5    0    0  0.73065513442E+01 -0.68489400816E+02 -0.42852224802E+02  0.11379940569E+03  0.79811075974E+02 0.  0.
          5    1    3    3  502    0 -0.13306511228E+02 -0.27465903179E+01  0.76306073111E+02  0.77648656093E+02  0.47000000000E+01 0. -1.
        -11    1    4    4    0    0 -0.55708590455E+01  0.76925704653E+02  0.29944470851E+02  0.82736145918E+02  0.00000000000E+00 0.  1.
         12    1    4    4    0    0  0.14616953572E+02  0.27398196503E+02 -0.38942612561E+02  0.49808067383E+02  0.00000000000E+00 0. -1.
         -5    1    5    5    0  501 -0.30461346424E+01 -0.33087910022E+02  0.85377866677E+02  0.91736355085E+02  0.47000000000E+01 0.  1.
         13    1    6    6    0    0  0.35277960244E+02 -0.10030553959E+02 -0.10701856664E+01  0.36691849082E+02  0.00000000000E+00 0. -1.
        -14    1    6    6    0    0 -0.27971408900E+02 -0.58458846857E+02 -0.41782039135E+02  0.77107556608E+02  0.00000000000E+00 0.  1.
</event>
<event>
12    1  0.2576962E-002  0.2945678E+03  0.7818608E-02  0.1087988E+00
          2   -1    0    0  502    0  0.00000000000E+00  0.00000000000E+00  0.15496057862E+04  0.15496057862E+04  0.00000000000E+00 0.  1.
         -2   -1    0    0    0  501 -0.00000000000E+00 -0.00000000000E+00 -0.88779426260E+02  0.88779426260E+02  0.00000000000E+00 0. -1.
          6    2    1    2  502    0  0.21054714037E+03 -0.10223318035E+03  0.23907627656E+03  0.38256677453E+03  0.18552129117E+03 0.  0.
         24    2    3    3    0    0  0.17444957419E+03 -0.10632332128E+03  0.26008651495E+03  0.34033783122E+03  0.80296584704E+02 0.  0.
         -6    2    1    2    0  501 -0.21054714037E+03  0.10223318035E+03  0.12217500833E+04  0.12558184379E+04  0.17211903243E+03 0.  0.
        -24    2    5    5    0    0 -0.14377893755E+03  0.13667646578E+03  0.86169803977E+03  0.88798165765E+03  0.81455959897E+02 0.  0.
          5    1    3    3  502    0  0.36097566173E+02  0.40901409234E+01 -0.21010238387E+02  0.42228943315E+02  0.47000000000E+01 0. -1.
        -11    1    4    4    0    0  0.48053600738E+02 -0.63117980656E+02  0.58726500309E+02  0.98700708530E+02  0.00000000000E+00 0.  1.
         12    1    4    4    0    0  0.12639597346E+03 -0.43205340623E+02  0.20136001464E+03  0.24163712269E+03  0.00000000000E+00 0. -1.
         -5    1    5    5    0  501 -0.66768202817E+02 -0.34443285424E+02  0.36005204356E+03  0.36783678023E+03  0.47000000000E+01 0.  1.
         13    1    6    6    0    0 -0.20784835066E+02 -0.77587299840E+01  0.55633242073E+02  0.59893780005E+02  0.00000000000E+00 0. -1.
        -14    1    6    6    0    0 -0.12299410248E+03  0.14443519576E+03  0.80606479770E+03  0.82808787765E+03  0.00000000000E+00 0.  1.
</event>
<event>
12    1  0.2576962E-002  0.1766382E+03  0.7818608E-02  0.1171097E+00
          2   -1    0    0  502    0  0.00000000000E+00  0.00000000000E+00  0.18371497986E+04  0.18371497986E+04  0.00000000000E+00 0.  1.
         -2   -1    0    0    0  501 -0.00000000000E+00 -0.00000000000E+00 -0.30378807148E+02  0.30378807148E+02  0.00000000000E+00 0. -1.
          6    2    1    2  502    0 -0.31914090191E+02 -0.20427677341E+02  0.15232262925E+04  0.15334252594E+04  0.17244967054E+03 0.  0.
         24    2    3    3    0    0 -0.71938493278E+02  0.25121262812E+02  0.11440446507E+04  0.11493973096E+04  0.80434990827E+02 0.  0.
         -6    2    1    2    0  501  0.31914090191E+02  0.20427677341E+02  0.28354469899E+03  0.33410334638E+03  0.17260257988E+03 0.  0.
        -24    2    5    5    0    0 -0.31853782027E+02  0.51244764058E+02  0.11961925989E+03  0.15547055559E+03  0.78877354456E+02 0.  0.
          5    1    3    3  502    0  0.40024403087E+02 -0.45548940153E+02  0.37918164179E+03  0.38402794984E+03  0.47000000000E+01 0. -1.
        -11    1    4    4    0    0 -0.55596140357E+02  0.33897839207E+02  0.10954332257E+04  0.10973668239E+04  0.00000000000E+00 0.  1.
         12    1    4    4    0    0 -0.16342352921E+02 -0.87765763947E+01  0.48611425025E+02  0.52030485632E+02  0.00000000000E+00 0. -1.
         -5    1    5    5    0  501  0.63767872218E+02 -0.30817086717E+02  0.16392543910E+03  0.17863279079E+03  0.47000000000E+01 0.  1.
         13    1    6    6    0    0 -0.46455554459E+01  0.23758227728E+02 -0.52312240918E+01  0.24766918978E+02  0.00000000000E+00 0. -1.
        -14    1    6    6    0    0 -0.27208226581E+02  0.27486536331E+02  0.12485048398E+03  0.13070363661E+03  0.00000000000E+00 0.  1.
</event>
<event>
12    1  0.2576962E-002  0.1972511E+03  0.7818608E-02  0.1152079E+00
         -2   -1    0    0    0  501 -0.00000000000E+00  0.00000000000E+00  0.21568333853E+03  0.21568333853E+03  0.00000000000E+00 0.  1.
          2   -1    0    0  502    0  0.00000000000E+00 -0.00000000000E+00 -0.18274667022E+03  0.18274667022E+03  0.00000000000E+00 0. -1.
          6    2    1    2  502    0  0.10961492320E+01  0.96576671856E+02 -0.61405540374E+01  0.19727791507E+03  0.17190873823E+03 0.  0.
         24    2    3    3    0    0  0.15745037579E+02 -0.14893420913E+02  0.13979075492E+02  0.82966668886E+02  0.78856410009E+02 0.  0.
         -6    2    1    2    0  501 -0.10961492320E+01 -0.96576671856E+02  0.39077222347E+02  0.20115209367E+03  0.17206649991E+03 0.  0.
        -24    2    5    5    0    0  0.62687969141E+01 -0.38583042491E+02 -0.50083355725E+02  0.94431888646E+02  0.69864798647E+02 0.  0.
          5    1    3    3  502    0 -0.14648888347E+02  0.11147009277E+03 -0.20119629530E+02  0.11431124618E+03  0.47000000000E+01 0. -1.
        -11    1    4    4    0    0  0.31933497258E+02 -0.16663128837E+02  0.39015426898E+02  0.53100015497E+02  0.00000000000E+00 0.  1.
         12    1    4    4    0    0 -0.16188459680E+02  0.17697079231E+01 -0.25036351405E+02  0.29866653389E+02  0.00000000000E+00 0. -1.
         -5    1    5    5    0  501 -0.73649461462E+01 -0.57993629365E+02  0.89160578072E+02  0.10672020503E+03  0.47000000000E+01 0.  1.
         11    1    6    6    0    0  0.46496539777E+01 -0.58520446425E+02 -0.29389260678E+02  0.65650518468E+02  0.00000000000E+00 0. -1.
        -12    1    6    6    0    0  0.16191429365E+01  0.19937403934E+02 -0.20694095047E+02  0.28781370178E+02  0.00000000000E+00 0.  1.
</event>
<event>
12    1  0.2576962E-002  0.1828293E+03  0.7818608E-02  0.1165093E+00
         -2   -1    0    0    0  501 -0.00000000000E+00  0.00000000000E+00  0.42092649721E+02  0.42092649721E+02  0.00000000000E+00 0.  1.
          2   -1    0    0  502    0  0.00000000000E+00 -0.00000000000E+00 -0.13526212226E+04  0.13526212226E+04  0.00000000000E+00 0. -1.
          6    2    1    2  502    0 -0.64374889136E+02 -0.33359897679E+02 -0.10970073751E+04  0.11116583887E+04  0.16462740658E+03 0.  0.
         24    2    3    3    0    0 -0.65879209447E+02  0.10974539170E+01 -0.10378287166E+04  0.10430014467E+04  0.80139242824E+02 0.  0.
         -6    2    1    2    0  501  0.64374889136E+02  0.33359897679E+02 -0.21352119777E+03  0.28305548362E+03  0.17109089919E+03 0.  0.
        -24    2    5    5    0    0  0.80369205932E+02  0.74197984578E+02 -0.19199498582E+03  0.23397355913E+03  0.76922048944E+02 0.  0.
          5    1    3    3  502    0  0.15043203108E+01 -0.34457351596E+02 -0.59178658570E+02  0.68656942029E+02  0.47000000000E+01 0. -1.
        -11    1    4    4    0    0  0.15579965419E+02  0.48689611407E+01 -0.34574246444E+03  0.34612756871E+03  0.00000000000E+00 0.  1.
         12    1    4    4    0    0 -0.81459174866E+02 -0.37715072238E+01 -0.69208625211E+03  0.69687387797E+03  0.00000000000E+00 0. -1.
         -5    1    5    5    0  501 -0.15994316796E+02 -0.40838086898E+02 -0.21526211955E+02  0.49081924498E+02  0.47000000000E+01 0.  1.
         13    1    6    6    0    0 -0.20786951736E+01  0.39278334493E+02 -0.90202705000E+02  0.98405469987E+02  0.00000000000E+00 0. -1.
        -14    1    6    6    0    0  0.82447901106E+02  0.34919650085E+02 -0.10179228082E+03  0.13556808914E+03  0.00000000000E+00 0.  1.
</event>
<event>
12    1  0.2576962E-002  0.2599040E+03  0.7818608E-02  0.1107201E+00
         -2   -1    0    0    0  501 -0.00000000000E+00  0.00000000000E+00  0.96552648213E+02  0.96552648213E+02  0.00000000000E+00 0.  1.
          2   -1    0    0  502    0  0.00000000000E+00 -0.00000000000E+00 -0.80257514444E+03  0.80257514444E+03  0.00000000000E+00 0. -1.
          6    2    1    2  502    0 -0.19615100187E+03 -0.40846126985E+02 -0.18324824023E+03  0.31171495144E+03  0.15310999895E+03 0.  0.
         24    2    3    3    0    0 -0.21187288162E+03 -0.26901156562E+02 -0.17407626691E+03  0.28830865319E+03  0.84885467606E+02 0.  0.
         -6    2    1    2    0  501  0.19615100187E+03  0.40846126985E+02 -0.52277425599E+03  0.58741284121E+03  0.17781254643E+03 0.  0.
        -24    2    5    5    0    0  0.60119069608E+02  0.75922136234E+02 -0.28201156579E+03  0.30862299920E+03  0.79618836280E+02 0.  0.
          5    1    3    3  502    0  0.15721879757E+02 -0.13944970422E+02 -0.91719733253E+01  0.23406298252E+02  0.47000000000E+01 0. -1.
        -11    1    4    4    0    0 -0.10652572899E+03 -0.29667450308E+01 -0.13811535844E+03  0.17444880266E+03  0.00000000000E+00 0.  1.
         12    1    4    4    0    0 -0.10534715264E+03 -0.23934411531E+02 -0.35960908463E+02  0.11385985053E+03  0.00000000000E+00 0. -1.
         -5    1    5    5    0  501  0.13603193226E+03 -0.35076009249E+02 -0.24076269020E+03  0.27878984201E+03  0.47000000000E+01 0.  1.
         11    1    6    6    0    0  0.28980436023E+02 -0.69247257463E+01 -0.12383168061E+03  0.12736601831E+03  0.00000000000E+00 0. -1.
        -12    1    6    6    0    0  0.31138633586E+02  0.82846861980E+02 -0.15817988519E+03  0.18125698088E+03  0.00000000000E+00 0.  1.
</event>
<event>
12    1  0.2576962E-002  0.2070204E+03  0.7818608E-02  0.1143947E+00
         -1   -1    0    0    0  501 -0.00000000000E+00  0.00000000000E+00  0.11399277257E+03  0.11399277257E+03  0.00000000000E+00 0. -1.
          1   -1    0    0  502    0  0.00000000000E+00 -0.00000000000E+00 -0.38325072068E+03  0.38325072068E+03  0.00000000000E+00 0.  1.
          6    2    1    2  502    0 -0.73813321427E+02 -0.77027299539E+02 -0.16634972056E+03  0.26281630660E+03  0.17325867998E+03 0.  0.
         24    2    3    3    0    0 -0.67418840041E+02 -0.78810810890E+02 -0.19387402207E+03  0.23411530524E+03  0.80413903060E+02 0.  0.
         -6    2    1    2    0  501  0.73813321427E+02  0.77027299539E+02 -0.10290822756E+03  0.23442718665E+03  0.18161605449E+03 0.  0.
        -24    2    5    5    0    0  0.39772128332E+02 -0.25821933228E+02 -0.21912229769E+02  0.99078713568E+02  0.84189377246E+02 0.  0.
          5    1    3    3  502    0 -0.63944813857E+01  0.17835113515E+01  0.27524301518E+02  0.28701001358E+02  0.47000000000E+01 0. -1.
        -11    1    4    4    0    0 -0.18403510404E+01 -0.53916507309E+02 -0.12342647451E+03  0.13470141522E+03  0.00000000000E+00 0.  1.
         12    1    4    4    0    0 -0.65578489001E+02 -0.24894303581E+02 -0.70447547564E+02  0.99413890016E+02  0.00000000000E+00 0. -1.
         -5    1    5    5    0  501  0.34041193095E+02  0.10284923277E+03 -0.80995997788E+02  0.13534847308E+03  0.47000000000E+01 0.  1.
         13    1    6    6    0    0  0.94552644735E+01  0.22601711008E+02  0.17118620041E+02  0.29887899205E+02  0.00000000000E+00 0. -1.
        -14    1    6    6    0    0  0.30316863859E+02 -0.48423644236E+02 -0.39030849810E+02  0.69190814363E+02  0.00000000000E+00 0.  1.
</event>
<event>
12    1  0.2576962E-002  0.2736637E+03  0.7818608E-02  0.1099201E+00
         -2   -1    0    0    0  501 -0.00000000000E+00  0.00000000000E+00  0.15701097256E+03  0.15701097256E+03  0.00000000000E+00 0. -1.
          2   -1    0    0  502    0  0.00000000000E+00 -0.00000000000E+00 -0.56191007184E+03  0.56191007184E+03  0.00000000000E+00 0.  1.
          6    2    1    2  502    0  0.19823851130E+03 -0.76874624902E+02 -0.62512375153E+02  0.28041394740E+03  0.17180212318E+03 0.  0.
         24    2    3    3    0    0  0.29734679153E+02 -0.72210055123E+02 -0.76882742019E+01  0.10309200373E+03  0.66861113271E+02 0.  0.
         -6    2    1    2    0  501 -0.19823851130E+03  0.76874624902E+02 -0.34238672413E+03  0.43850709701E+03  0.17277612668E+03 0.  0.
        -24    2    5    5    0    0 -0.73488307197E+02  0.89762319975E+02 -0.19454192109E+03  0.24457700163E+03  0.92268874935E+02 0.  0.
          5    1    3    3  502    0  0.16850383215E+03 -0.46645697795E+01 -0.54824100952E+02  0.17732194366E+03  0.47000000000E+01 0. -1.
        -13    1    4    4    0    0  0.26632750912E+02 -0.22314607430E+02 -0.32237987202E+02  0.47397604842E+02  0.00000000000E+00 0.  1.
         14    1    4    4    0    0  0.31019282414E+01 -0.49895447693E+02  0.24549713000E+02  0.55694398889E+02  0.00000000000E+00 0. -1.
         -5    1    5    5    0  501 -0.12475020410E+03 -0.12887695072E+02 -0.14784480304E+03  0.19393009538E+03  0.47000000000E+01 0.  1.
         13    1    6    6    0    0 -0.69416829111E+02  0.10511005217E+03 -0.14262361179E+03  0.19028482302E+03  0.00000000000E+00 0. -1.
        -14    1    6    6    0    0 -0.40714780867E+01 -0.15347732199E+02 -0.51918309295E+02  0.54292178603E+02  0.00000000000E+00 0.  1.
</event>
<event>
12    1  0.2576962E-002  0.1976165E+03  0.7818608E-02  0.1151766E+00
          2   -1    0    0  502    0  0.00000000000E+00  0.00000000000E+00  0.39655753107E+03  0.39655753107E+03  0.00000000000E+00 0. -1.
         -2   -1    0    0    0  501 -0.00000000000E+00 -0.00000000000E+00 -0.14262358195E+03  0.14262358195E+03  0.00000000000E+00 0.  1.
          6    2    1    2  502    0  0.50792646788E+02 -0.58275220849E+02  0.28068482385E+03  0.34899846363E+03  0.19245795111E+03 0.  0.
         24    2    3    3    0    0  0.12381277241E+01 -0.10131076783E+03  0.12747916777E+03  0.18225983067E+03  0.81867594473E+02 0.  0.
         -6    2    1    2    0  501 -0.50792646788E+02  0.58275220849E+02 -0.26750874727E+02  0.19018264939E+03  0.17169139902E+03 0.  0.
        -24    2    5    5    0    0  0.25368523854E+02  0.32961457802E+02  0.27204129786E+02  0.93360425571E+02  0.79032174982E+02 0.  0.
          5    1    3    3  502    0  0.49554519064E+02  0.43035546982E+02  0.15320565609E+03  0.16673863296E+03  0.47000000000E+01 0. -1.
        -13    1    4    4    0    0 -0.29962279167E+02 -0.20690421099E+02  0.68604446879E+02  0.77668538223E+02  0.00000000000E+00 0.  1.
         14    1    4    4    0    0  0.31200406891E+02 -0.80620346731E+02  0.58874720887E+02  0.10459129245E+03  0.00000000000E+00 0. -1.
         -5    1    5    5    0  501 -0.76161170642E+02  0.25313763046E+02 -0.53955004513E+02  0.96822223818E+02  0.47000000000E+01 0.  1.
         13    1    6    6    0    0 -0.14296898080E+02  0.44942562503E+02  0.20337139746E+02  0.51359852727E+02  0.00000000000E+00 0. -1.
        -14    1    6    6    0    0  0.39665421934E+02 -0.11981104701E+02  0.68669900404E+01  0.42000572844E+02  0.00000000000E+00 0.  1.
</event>
<event>
12    1  0.2576962E-002  0.3529257E+03  0.7818608E-02  0.1061421E+00
          1   -1    0    0  502    0  0.00000000000E+00  0.00000000000E+00  0.17610012860E+04  0.17610012860E+04  0.00000000000E+00 0.  1.
         -1   -1    0    0    0  501 -0.00000000000E+00 -0.00000000000E+00 -0.82707970944E+02  0.82707970944E+02  0.00000000000E+00 0. -1.
          6    2    1    2  502    0  0.23872761747E+02 -0.30935385477E+03  0.11929317011E+04  0.12444626152E+04  0.17126424252E+03 0.  0.
         24    2    3    3    0    0  0.74936127687E+02 -0.21779914941E+03  0.73046956826E+03  0.77024426276E+03  0.81477244990E+02 0.  0.
         -6    2    1    2    0  501 -0.23872761747E+02  0.30935385477E+03  0.48536161389E+03  0.59924664175E+03  0.16507854248E+03 0.  0.
        -24    2    5    5    0    0 -0.65962392703E+02  0.19557466477E+03  0.37344898244E+03  0.43412920417E+03  0.80022101194E+02 0.  0.
          5    1    3    3  502    0 -0.51063365940E+02 -0.91554705366E+02  0.46246213286E+03  0.47421835239E+03  0.47000000000E+01 0. -1.
        -13    1    4    4    0    0 -0.10951925474E+02 -0.66990754541E+02  0.26233708977E+03  0.27097685240E+03  0.00000000000E+00 0.  1.
         14    1    4    4    0    0  0.85888053160E+02 -0.15080839486E+03  0.46813247848E+03  0.49926741036E+03  0.00000000000E+00 0. -1.
         -5    1    5    5    0  501  0.42089630957E+02  0.11377919001E+03  0.11191263145E+03  0.16511743758E+03  0.47000000000E+01 0.  1.
         11    1    6    6    0    0 -0.55371311626E+02  0.19211899463E+03  0.37272482007E+03  0.42296510700E+03  0.00000000000E+00 0. -1.
        -12    1    6    6    0    0 -0.10591081077E+02  0.34556701340E+01  0.72416237603E+00  0.11164097169E+02  0.00000000000E+00 0.  1.
</event>
<event>
12    1  0.2576962E-002  0.1959314E+03  0.7818608E-02  0.1153218E+00
          2   -1    0    0  502    0  0.00000000000E+00  0.00000000000E+00  0.14551678764E+04  0.14551678764E+04  0.00000000000E+00 0. -1.
         -2   -1    0    0    0  501 -0.00000000000E+00 -0.00000000000E+00 -0.35671336538E+02  0.35671336538E+02  0.00000000000E+00 0.  1.
          6    2    1    2  502    0 -0.30906054096E+02 -0.94508414961E+02  0.10962627126E+04  0.11140460345E+04  0.17152144803E+03 0.  0.
         24    2    3    3    0    0 -0.29639830946E+01 -0.53876228845E+02  0.26522788621E+03  0.28153615068E+03  0.77494124208E+02 0.  0.
         -6    2    1    2    0  501  0.30906054096E+02  0.94508414961E+02  0.32323382727E+03  0.37679317851E+03  0.16615043666E+03 0.  0.
        -24    2    5    5    0    0  0.44851025959E+02  0.66145209850E+02  0.32708193769E+03  0.34460884074E+03  0.73388390335E+02 0.  0.
          5    1    3    3  502    0 -0.27942071001E+02 -0.40632186116E+02  0.83103482642E+03  0.83250988379E+03  0.47000000000E+01 0. -1.
        -13    1    4    4    0    0 -0.18880778664E+02  0.14608366467E+02  0.76417117358E+02  0.80059128143E+02  0.00000000000E+00 0.  1.
         14    1    4    4    0    0  0.15916795569E+02 -0.68484595312E+02  0.18881076885E+03  0.20147702254E+03  0.00000000000E+00 0. -1.
         -5    1    5    5    0  501 -0.13944971863E+02  0.28363205111E+02 -0.38481104128E+01  0.32184337778E+02  0.47000000000E+01 0.  1.
         13    1    6    6    0    0 -0.53018176733E+01  0.43031750704E+02  0.21884362646E+03  0.22309722921E+03  0.00000000000E+00 0. -1.
        -14    1    6    6    0    0  0.50152843632E+02  0.23113459146E+02  0.10823831123E+03  0.12151161153E+03  0.00000000000E+00 0.  1.
</event>
<event>
12    1  0.2576962E-002  0.1858724E+03  0.7818608E-02  0.1162238E+00
          2   -1    0    0  502    0  0.00000000000E+00  0.00000000000E+00  0.12318637776E+03  0.12318637776E+03  0.00000000000E+00 0.  1.
         -2   -1    0    0    0  501 -0.00000000000E+00 -0.00000000000E+00 -0.28081959124E+03  0.28081959124E+03  0.00000000000E+00 0. -1.
          6    2    1    2  502    0  0.54238405998E+02  0.37595123574E+02 -0.84843981478E+02  0.20245848703E+03  0.17156846964E+03 0.  0.
         24    2    3    3    0    0  0.40197252457E+02 -0.31760848405E+02 -0.89628696844E+02  0.13137833267E+03  0.81255106923E+02 0.  0.
         -6    2    1    2    0  501 -0.54238405998E+02 -0.37595123574E+02 -0.72789232000E+02  0.20154748198E+03  0.17597703599E+03 0.  0.
        -24    2    5    5    0    0 -0.64142941129E+02 -0.10705028122E+01 -0.10853134321E+03  0.14928146767E+03  0.79940235538E+02 0.  0.
          5    1    3    3  502    0  0.14041153542E+02  0.69355971979E+02  0.47847153660E+01  0.71080154355E+02  0.47000000000E+01 0. -1.
        -11    1    4    4    0    0  0.17214324931E+02 -0.32719227396E+02  0.18835616538E+01  0.37019300760E+02  0.00000000000E+00 0.  1.
         12    1    4    4    0    0  0.22982927525E+02  0.95837899123E+00 -0.91512258498E+02  0.94359031912E+02  0.00000000000E+00 0. -1.
         -5    1    5    5    0  501  0.99045351305E+01 -0.36524620762E+02  0.35742111210E+02  0.52266014308E+02  0.47000000000E+01 0.  1.
         13    1    6    6    0    0 -0.38800991183E+02  0.70648657154E+01 -0.11526637645E+03  0.12182679009E+03  0.00000000000E+00 0. -1.
        -14    1    6    6    0    0 -0.25341949946E+02 -0.81353685276E+01  0.67350332403E+01  0.27454677578E+02  0.00000000000E+00 0.  1.
</event>
<event>
12    1  0.2576962E-002  0.2000969E+03  0.7818608E-02  0.1149657E+00
          2   -1    0    0  502    0  0.00000000000E+00  0.00000000000E+00  0.18164630621E+04  0.18164630621E+04  0.00000000000E+00 0. -1.
         -2   -1    0    0    0  501 -0.00000000000E+00 -0.00000000000E+00 -0.24242119206E+02  0.24242119206E+02  0.00000000000E+00 0.  1.
          6    2    1    2  502    0 -0.75516487465E+01 -0.10257722989E+03  0.11749717025E+04  0.11919547560E+04  0.17210032908E+03 0.  0.
         24    2    3    3    0    0 -0.13330633879E+02 -0.11623794214E+03  0.58970029019E+03  0.60647655166E+03  0.79864951468E+02 0.  0.
         -6    2    1    2    0  501  0.75516487465E+01  0.10257722989E+03  0.61724924045E+03  0.64875042533E+03  0.17117644123E+03 0.  0.
        -24    2    5    5    0    0  0.70228887109E+02  0.48643132656E+02  0.37460073816E+03  0.39235676566E+03  0.79497594867E+02 0.  0.
          5    1    3    3  502    0  0.57789851327E+01  0.13660712253E+02  0.58527141229E+03  0.58547820436E+03  0.47000000000E+01 0. -1.
        -13    1    4    4    0    0  0.15591696462E+02 -0.84378082903E+02  0.25564039011E+03  0.26965676503E+03  0.00000000000E+00 0.  1.
         14    1    4    4    0    0 -0.28922330341E+02 -0.31859859242E+02  0.33405990008E+03  0.33681978663E+03  0.00000000000E+00 0. -1.
         -5    1    5    5    0  501 -0.62677238363E+02  0.53934097236E+02  0.24264850229E+03  0.25639365967E+03  0.47000000000E+01 0.  1.
         11    1    6    6    0    0 -0.16246668778E+02  0.43405205181E+01  0.30823749429E+02  0.35112645779E+02  0.00000000000E+00 0. -1.
        -12    1    6    6    0    0  0.86475555887E+02  0.44302612137E+02  0.34377698873E+03  0.35724411988E+03  0.00000000000E+00 0.  1.
</event>
<event>
12    1  0.2576962E-002  0.1947997E+03  0.7818608E-02  0.1154202E+00
          2   -1    0    0  502    0  0.00000000000E+00  0.00000000000E+00  0.45142048567E+03  0.45142048567E+03  0.00000000000E+00 0.  1.
         -2   -1    0    0    0  501 -0.00000000000E+00 -0.00000000000E+00 -0.85004236972E+02  0.85004236972E+02  0.00000000000E+00 0. -1.
          6    2    1    2  502    0  0.72447675803E+02  0.53820730049E+02  0.15469692666E+03  0.24853197459E+03  0.17231269994E+03 0.  0.
         24    2    3    3    0    0 -0.72325760217E+00 -0.13952050253E+02  0.11274472921E+03  0.14023048745E+03  0.82207255382E+02 0.  0.
         -6    2    1    2    0  501 -0.72447675803E+02 -0.53820730049E+02  0.21171932204E+03  0.28789274806E+03  0.17295035804E+03 0.  0.
        -24    2    5    5    0    0 -0.64467061090E+02  0.16607010057E+02  0.57228900323E+02  0.11785411365E+03  0.78629831009E+02 0.  0.
          5    1    3    3  502    0  0.73170933405E+02  0.67772780302E+02  0.41952197446E+02  0.10830148714E+03  0.47000000000E+01 0. -1.
        -13    1    4    4    0    0  0.40324777388E+02 -0.51843171747E+01  0.64904471181E+02  0.76586912689E+02  0.00000000000E+00 0.  1.
         14    1    4    4    0    0 -0.41048034990E+02 -0.87677330785E+01  0.47840258033E+02  0.63643574762E+02  0.00000000000E+00 0. -1.
         -5    1    5    5    0  501 -0.79806147131E+01 -0.70427740105E+02  0.15449042172E+03  0.17003863440E+03  0.47000000000E+01 0.  1.
         11    1    6    6    0    0 -0.19859794919E+02  0.39258421039E+02  0.51132764156E+02  0.67455130621E+02  0.00000000000E+00 0. -1.
        -12    1    6    6    0    0 -0.44607266170E+02 -0.22651410983E+02  0.60961361662E+01  0.50398983034E+02  0.00000000000E+00 0.  1.
</event>
<event>
12    1  0.2576962E-002  0.2859481E+03  0.7818608E-02  0.1092484E+00
         -2   -1    0    0    0  501 -0.00000000000E+00  0.00000000000E+00  0.34453616040E+03  0.34453616040E+03  0.00000000000E+00 0. -1.
          2   -1    0    0  502    0  0.00000000000E+00 -0.00000000000E+00 -0.24912800141E+03  0.24912800141E+03  0.00000000000E+00 0.  1.
          6    2    1    2  502    0 -0.64555304457E+01  0.23535750976E+03 -0.17513297051E+02  0.28132886781E+03  0.15298491762E+03 0.  0.
         24    2    3    3    0    0  0.21490187549E+02  0.64943001799E+02  0.13167513380E+02  0.10587098168E+03  0.79723645865E+02 0.  0.
         -6    2    1    2    0  501  0.64555304457E+01 -0.23535750976E+03  0.11292145604E+03  0.31233529400E+03  0.17136875262E+03 0.  0.
        -24    2    5    5    0    0  0.49020925162E+02 -0.16157563828E+03  0.12762867483E+03  0.22576757675E+03  0.78563236214E+02 0.  0.
          5    1    3    3  502    0 -0.27945717995E+02  0.17041450796E+03 -0.30680810431E+02  0.17545788613E+03  0.47000000000E+01 0. -1.
        -13    1    4    4    0    0  0.30322307695E+02  0.45953776719E+02 -0.26433620030E+02  0.61073138175E+02  0.00000000000E+00 0.  1.
         14    1    4    4    0    0 -0.88321201463E+01  0.18989225080E+02  0.39601133410E+02  0.44797843506E+02  0.00000000000E+00 0. -1.
         -5    1    5    5    0  501 -0.42565394717E+02 -0.73781871482E+02 -0.14707218786E+02  0.86567717258E+02  0.47000000000E+01 0.  1.
         11    1    6    6    0    0 -0.17020546502E+02 -0.30142041685E+02  0.45915597383E+02  0.57502032688E+02  0.00000000000E+00 0. -1.
        -12    1    6    6    0    0  0.66041471665E+02 -0.13143359659E+03  0.81713077442E+02  0.16826554406E+03  0.00000000000E+00 0.  1.
</event>
<event>
12    1  0.2576962E-002  0.2249212E+03  0.7818608E-02  0.1130266E+00
          2   -1    0    0  502    0  0.00000000000E+00  0.00000000000E+00  0.13405490409E+04  0.13405490409E+04  0.00000000000E+00 0.  1.
         -2   -1    0    0    0  501 -0.00000000000E+00 -0.00000000000E+00 -0.60263910261E+02  0.60263910261E+02  0.00000000000E+00 0. -1.
          6    2    1    2  502    0  0.10339425984E+03  0.99330418320E+02  0.10665820121E+04  0.10898360398E+04  0.17201308104E+03 0.  0.
         24    2    3    3    0    0  0.12003321997E+03  0.88318833027E+02  0.10496981786E+04  0.10632792357E+04  0.80549841188E+02 0.  0.
         -6    2    1    2    0  501 -0.10339425984E+03 -0.99330418320E+02  0.21370311854E+03  0.31097691141E+03  0.17458726066E+03 0.  0.
        -24    2    5    5    0    0 -0.10327758902E+03 -0.50767830727E+01  0.11575540613E+03  0.17496365567E+03  0.80752291841E+02 0.  0.
          5    1    3    3  502    0 -0.16638960138E+02  0.11011585293E+02  0.16883833564E+02  0.26556804043E+02  0.47000000000E+01 0. -1.
        -13    1    4    4    0    0  0.15975472022E+02 -0.14317656225E+02  0.90396043695E+02  0.92906704289E+02  0.00000000000E+00 0.  1.
         14    1    4    4    0    0  0.10405774795E+03  0.10263648925E+03  0.95930213486E+03  0.97037253145E+03  0.00000000000E+00 0. -1.
         -5    1    5    5    0  501 -0.11667081794E+00 -0.94253635247E+02  0.97947712411E+02  0.13601325574E+03  0.47000000000E+01 0.  1.
         11    1    6    6    0    0 -0.65493071570E+02 -0.38977244211E+02  0.47150461372E+02  0.89619941963E+02  0.00000000000E+00 0. -1.
        -12    1    6    6    0    0 -0.37784517448E+02  0.33900461138E+02  0.68604944758E+02  0.85343713708E+02  0.00000000000E+00 0.  1.
</event>
<event>
12    1  0.2576962E-002  0.2169543E+03  0.7818608E-02  0.1136174E+00
         -2   -1    0    0    0  501 -0.00000000000E+00  0.00000000000E+00  0.33503229911E+02  0.33503229911E+02  0.00000000000E+00 0.  1.
          2   -1    0    0  502    0  0.00000000000E+00 -0.00000000000E+00 -0.14157372107E+04  0.14157372107E+04  0.00000000000E+00 0. -1.
          6    2    1    2  502    0  0.12181207536E+03 -0.50405899498E+02 -0.75358982148E+03  0.78412160176E+03  0.17195967810E+03 0.  0.
         24    2    3    3    0    0  0.63486188337E+02 -0.11049587657E+02 -0.65411963648E+03  0.66219032569E+03  0.80442147611E+02 0.  0.
         -6    2    1    2    0  501 -0.12181207536E+03  0.50405899498E+02 -0.62864415929E+03  0.66511883884E+03  0.17265762178E+03 0.  0.
        -24    2    5    5    0    0 -0.48138608918E+02  0.14258247143E+01 -0.49871533483E+03  0.50785976340E+03  0.82977077774E+02 0.  0.
          5    1    3    3  502    0  0.58325887024E+02 -0.39356311841E+02 -0.99470185004E+02  0.12193127607E+03  0.47000000000E+01 0. -1.
        -11    1    4    4    0    0  0.69287105036E+02  0.18800561162E+02 -0.49657285518E+03  0.50173575170E+03  0.00000000000E+00 0.  1.
         12    1    4    4    0    0 -0.58009166984E+01 -0.29850148819E+02 -0.15754678129E+03  0.16045457399E+03  0.00000000000E+00 0. -1.
         -5    1    5    5    0  501 -0.73673466444E+02  0.48980074784E+02 -0.12992882446E+03  0.15725907544E+03  0.47000000000E+01 0.  1.
         13    1    6    6    0    0 -0.12209661985E+02  0.35248736653E+02 -0.11293349902E+03  0.11893495905E+03  0.00000000000E+00 0. -1.
        -14    1    6    6    0    0 -0.35928946933E+02 -0.33822911939E+02 -0.38578183581E+03  0.38892480435E+03  0.00000000000E+00 0.  1.
</event>
<event>
12    1  0.2576962E-002  0.2487343E+03  0.7818608E-02  0.1114107E+00
          2   -1    0    0  502    0  0.00000000000E+00  0.00000000000E+00  0.25436637185E+03  0.25436637185E+03  0.00000000000E+00 0. -1.
         -2   -1    0    0    0  501 -0.00000000000E+00 -0.00000000000E+00 -0.69129173486E+03  0.69129173486E+03  0.00000000000E+00 0.  1.
          6    2    1    2  502    0 -0.37674044141E+02  0.17556593072E+03 -0.59907462108E+03  0.64859275138E+03  0.17187037525E+03 0.  0.
         24    2    3    3    0    0 -0.65557340498E+02  0.17927594122E+03 -0.57582310970E+03  0.61179648560E+03  0.79278358554E+02 0.  0.
         -6    2    1    2    0  501  0.37674044141E+02 -0.17556593072E+03  0.16214925807E+03  0.29706535534E+03  0.17237376197E+03 0.  0.
        -24    2    5    5    0    0  0.32961916567E+02 -0.82503708541E+02  0.16597826456E+03  0.20368691761E+03  0.77757483443E+02 0.  0.
          5    1    3    3  502    0  0.27883296357E+02 -0.37100105040E+01 -0.23251511378E+02  0.36796265776E+02  0.47000000000E+01 0. -1.
        -13    1    4    4    0    0 -0.64565990341E+02  0.11757341650E+03 -0.47510027334E+03  0.49367250795E+03  0.00000000000E+00 0.  1.
         14    1    4    4    0    0 -0.99135015739E+00  0.61702524719E+02 -0.10072283636E+03  0.11812397765E+03  0.00000000000E+00 0. -1.
         -5    1    5    5    0  501  0.47121275738E+01 -0.93062222174E+02 -0.38290064839E+01  0.93378437730E+02  0.47000000000E+01 0.  1.
         13    1    6    6    0    0 -0.76276046660E+01 -0.72369091363E+02  0.12771682482E+03  0.14699337767E+03  0.00000000000E+00 0. -1.
        -14    1    6    6    0    0  0.40589521233E+02 -0.10134617178E+02  0.38261439738E+02  0.56693539933E+02  0.00000000000E+00 0.  1.
</event>
<event>
12    1  0.2576962E-002  0.1827235E+03  0.7818608E-02  0.1165193E+00
          1   -1    0    0  502    0  0.00000000000E+00  0.00000000000E+00  0.10919318783E+03  0.10919318783E+03  0.00000000000E+00 0. -1.
         -1   -1    0    0    0  501 -0.00000000000E+00 -0.00000000000E+00 -0.47620995635E+03  0.47620995635E+03  0.00000000000E+00 0.  1.
          6    2    1    2  502    0 -0.14549949135E+02  0.61083848833E+02 -0.82166208960E+01  0.18262730902E+03  0.17129589468E+03 0.  0.
         24    2    3    3    0    0 -0.23469845153E+02 -0.31591345477E+02 -0.15415964640E+02  0.89127700808E+02  0.78468135857E+02 0.  0.
         -6    2    1    2    0  501  0.14549949135E+02 -0.61083848833E+02 -0.35880014762E+03  0.40277583516E+03  0.17189499658E+03 0.  0.
        -24    2    5    5    0    0 -0.50660913809E+02 -0.33191334334E+02 -0.13698406692E+03  0.16984899543E+03  0.80099024935E+02 0.  0.
          5    1    3    3  502    0  0.89198960173E+01  0.92675194310E+02  0.71993437438E+01  0.93499608212E+02  0.47000000000E+01 0. -1.
        -13    1    4    4    0    0 -0.51232884601E+02 -0.14875626584E+02 -0.18754654736E+02  0.56549357248E+02  0.00000000000E+00 0.  1.
         14    1    4    4    0    0  0.27763039449E+02 -0.16715718893E+02  0.33386900966E+01  0.32578343560E+02  0.00000000000E+00 0. -1.
         -5    1    5    5    0  501  0.65210862944E+02 -0.27892514499E+02 -0.22181608070E+03  0.23292683974E+03  0.47000000000E+01 0.  1.
         13    1    6    6    0    0 -0.11338432062E+02 -0.21224902931E+02  0.27265595985E+01  0.24217569517E+02  0.00000000000E+00 0. -1.
        -14    1    6    6    0    0 -0.39322481747E+02 -0.11966431403E+02 -0.13971062651E+03  0.14563142591E+03  0.00000000000E+00 0.  1.
</event>
<event>
12    1  0.2576962E-002  0.2194231E+03  0.7818608E-02  0.1134314E+00
          2   -1    0    0  502    0  0.00000000000E+00  0.00000000000E+00  0.66140991375E+03  0.66140991375E+03  0.00000000000E+00 0.  1.
         -2   -1    0    0    0  501 -0.00000000000E+00 -0.00000000000E+00 -0.93961494058E+02  0.93961494058E+02  0.00000000000E+00 0. -1.
          6    2    1    2  502    0 -0.33376221180E+02  0.13249129777E+03  0.46311365319E+03  0.51251901429E+03  0.17185333313E+03 0.  0.
         24    2    3    3    0    0 -0.17077523092E+02  0.93364588952E+02  0.13785411863E+03  0.18447572183E+03  0.77581864226E+02 0.  0.
         -6    2    1    2    0  501  0.33376221180E+02 -0.13249129777E+03  0.10433476650E+03  0.24285239352E+03  0.17153316127E+03 0.  0.
        -24    2    5    5    0    0 -0.17233500335E+02 -0.14085481629E+02  0.53538348770E+01  0.80369791276E+02  0.77040544361E+02 0.  0.
          5    1    3    3  502    0 -0.16298698088E+02  0.39126708815E+02  0.32525953456E+03  0.32804329246E+03  0.47000000000E+01 0. -1.
        -13    1    4    4    0    0 -0.41697748253E+02  0.74295345342E+02  0.12386517832E+03  0.15033656558E+03  0.00000000000E+00 0.  1.
         14    1    4    4    0    0  0.24620225161E+02  0.19069243610E+02  0.13988940311E+02  0.34139156256E+02  0.00000000000E+00 0. -1.
         -5    1    5    5    0  501  0.50609721515E+02 -0.11840581614E+03  0.98980931628E+02  0.16248260225E+03  0.47000000000E+01 0.  1.
         11    1    6    6    0    0  0.10987077657E+02 -0.39069812024E+02 -0.59523654939E+01  0.41019467842E+02  0.00000000000E+00 0. -1.
        -12    1    6    6    0    0 -0.28220577992E+02  0.24984330396E+02  0.11306200371E+02  0.39350323434E+02  0.00000000000E+00 0.  1.
</event>
<event>
12    1  0.2576962E-002  0.1765499E+03  0.7818608E-02  0.1171184E+00
          2   -1    0    0  502    0  0.00000000000E+00  0.00000000000E+00  0.10266456328E+04  0.10266456328E+04  0.00000000000E+00 0.  1.
         -2   -1    0    0    0  501 -0.00000000000E+00 -0.00000000000E+00 -0.32617799796E+02  0.32617799796E+02  0.00000000000E+00 0. -1.
          6    2    1    2  502    0 -0.61729418962E+02  0.15778683969E+02  0.37626752434E+03  0.41850779212E+03  0.17179066960E+03 0.  0.
         24    2    3    3    0    0  0.50928828758E+01  0.62410266762E+02  0.22269954829E+03  0.24459707421E+03  0.79445963084E+02 0.  0.
         -6    2    1    2    0  501  0.61729418962E+02 -0.15778683969E+02  0.61776030866E+03  0.64075564047E+03  0.15773555022E+03 0.  0.
        -24    2    5    5    0    0  0.98847874729E+01  0.40672599441E+02  0.25837329837E+03  0.27325635288E+03  0.78487602273E+02 0.  0.
          5    1    3    3  502    0 -0.66822301837E+02 -0.46631582793E+02  0.15356797605E+03  0.17391071791E+03  0.47000000000E+01 0. -1.
        -11    1    4    4    0    0 -0.32452775702E+02  0.46231499067E+02  0.95120324625E+02  0.11062734885E+03  0.00000000000E+00 0.  1.
         12    1    4    4    0    0  0.37545658578E+02  0.16178767695E+02  0.12757922367E+03  0.13396972536E+03  0.00000000000E+00 0. -1.
         -5    1    5    5    0  501  0.51844631489E+02 -0.56451283410E+02  0.35938701029E+03  0.36749928759E+03  0.47000000000E+01 0.  1.
         11    1    6    6    0    0  0.16631993860E+02  0.27075132823E+02  0.27906404245E+02  0.42290110369E+02  0.00000000000E+00 0. -1.
        -12    1    6    6    0    0 -0.67472063868E+01  0.13597466618E+02  0.23046689412E+03  0.23096624251E+03  0.00000000000E+00 0.  1.
</event>
<event>
12    1  0.2576962E-002  0.2127230E+03  0.7818608E-02  0.1139428E+00
         -2   -1    0    0    0  501 -0.00000000000E+00  0.00000000000E+00  0.27975343878E+03  0.27975343878E+03  0.00000000000E+00 0. -1.
          2   -1    0    0  502    0  0.00000000000E+00 -0.00000000000E+00 -0.18569579837E+03  0.18569579837E+03  0.00000000000E+00 0.  1.
          6    2    1    2  502    0  0.11549438848E+03 -0.58124341698E+02 -0.36729146929E+02  0.21484661323E+03  0.16760860394E+03 0.  0.
         24    2    3    3    0    0  0.61082113438E+01 -0.43951518197E+02 -0.48992286185E+02  0.10376700547E+03  0.79989381308E+02 0.  0.
         -6    2    1    2    0  501 -0.11549438848E+03  0.58124341698E+02  0.13078678734E+03  0.25060262392E+03  0.17023248369E+03 0.  0.
        -24    2    5    5    0    0 -0.30699942121E+02  0.65834229813E+02  0.12592083346E+03  0.16519004865E+03  0.78454213465E+02 0.  0.
          5    1    3    3  502    0  0.10938617713E+03 -0.14172823501E+02  0.12263139256E+02  0.11107960775E+03  0.47000000000E+01 0. -1.
        -13    1    4    4    0    0  0.34557418868E+02  0.43319260864E+01 -0.13063279360E+02  0.37197177985E+02  0.00000000000E+00 0.  1.
         14    1    4    4    0    0 -0.28449207524E+02 -0.48283444283E+02 -0.35929006824E+02  0.66569827490E+02  0.00000000000E+00 0. -1.
         -5    1    5    5    0  501 -0.84794446357E+02 -0.77098881144E+01  0.48659538795E+01  0.85412575273E+02  0.47000000000E+01 0.  1.
         11    1    6    6    0    0 -0.53560306033E+02  0.59296032619E+02  0.11217966040E+03  0.13772800033E+03  0.00000000000E+00 0. -1.
        -12    1    6    6    0    0  0.22860363912E+02  0.65381971932E+01  0.13741173065E+02  0.27462048320E+02  0.00000000000E+00 0.  1.
</event>
<event>
12    1  0.2576962E-002  0.2306685E+03  0.7818608E-02  0.1126170E+00
         -1   -1    0    0    0  501 -0.00000000000E+00  0.00000000000E+00  0.98839087438E+02  0.98839087438E+02  0.00000000000E+00 0.  1.
          1   -1    0    0  502    0  0.00000000000E+00 -0.00000000000E+00 -0.54164151934E+03  0.54164151934E+03  0.00000000000E+00 0. -1.
          6    2    1    2  502    0 -0.20930870908E+02  0.15163323527E+03 -0.19678842788E+03  0.30354345410E+03  0.17315369988E+03 0.  0.
         24    2    3    3    0    0 -0.26886512299E+02  0.57339955625E+02 -0.25496906669E+02  0.10786625182E+03  0.83512160656E+02 0.  0.
         -6    2    1    2    0  501  0.20930870908E+02 -0.15163323527E+03 -0.24601400402E+03  0.33693715269E+03  0.17196806474E+03 0.  0.
        -24    2    5    5    0    0  0.16991871676E+02 -0.15220746067E+03 -0.26561326394E+03  0.31639289706E+03  0.78091129721E+02 0.  0.
          5    1    3    3  502    0  0.59556413917E+01  0.94293279644E+02 -0.17129152121E+03  0.19567720227E+03  0.47000000000E+01 0. -1.
        -11    1    4    4    0    0 -0.53006110612E+02  0.57993273207E+02 -0.21298893836E+02  0.81403380631E+02  0.00000000000E+00 0.  1.
         12    1    4    4    0    0  0.26119598313E+02 -0.65331758140E+00 -0.41980128325E+01  0.26462871190E+02  0.00000000000E+00 0. -1.
         -5    1    5    5    0  501  0.39389992319E+01  0.57422539855E+00  0.19599259922E+02  0.20544255626E+02  0.47000000000E+01 0.  1.
         11    1    6    6    0    0  0.47670851964E+02 -0.10820110793E+03 -0.18548894387E+03  0.21996849361E+03  0.00000000000E+00 0. -1.
        -12    1    6    6    0    0 -0.30678980288E+02 -0.44006352737E+02 -0.80124320071E+02  0.96424403445E+02  0.00000000000E+00 0.  1.
</event>
<event>
12    1  0.2576962E-002  0.2378328E+03  0.7818608E-02  0.1121245E+00
         -2   -1    0    0    0  501 -0.00000000000E+00  0.00000000000E+00  0.17063268938E+02  0.17063268938E+02  0.00000000000E+00 0. -1.
          2   -1    0    0  502    0  0.00000000000E+00 -0.00000000000E+00 -0.33312433594E+04  0.33312433594E+04  0.00000000000E+00 0.  1.
          6    2    1    2  502    0  0.14307660289E+03 -0.85613280763E+02 -0.15548458578E+04  0.15732354745E+04  0.17240553574E+03 0.  0.
         24    2    3    3    0    0  0.15945888906E+03 -0.30050493182E+02 -0.11305601267E+04  0.11449877959E+04  0.80626814564E+02 0.  0.
         -6    2    1    2    0  501 -0.14307660289E+03  0.85613280763E+02 -0.17593342327E+04  0.17750711538E+04  0.16679361687E+03 0.  0.
        -24    2    5    5    0    0 -0.83979479397E+02  0.11978694672E+03 -0.11666271733E+04  0.11784271580E+04  0.79184213884E+02 0.  0.
          5    1    3    3  502    0 -0.16382286171E+02 -0.55562787581E+02 -0.42428573109E+03  0.42824767865E+03  0.47000000000E+01 0. -1.
        -13    1    4    4    0    0  0.50607292306E+02 -0.21016646000E+02 -0.64358226264E+03  0.64591092747E+03  0.00000000000E+00 0.  1.
         14    1    4    4    0    0  0.10885159676E+03 -0.90338471812E+01 -0.48697786405E+03  0.49907686841E+03  0.00000000000E+00 0. -1.
         -5    1    5    5    0  501 -0.59097123495E+02 -0.34173665960E+02 -0.59270705940E+03  0.59664399579E+03  0.47000000000E+01 0.  1.
         13    1    6    6    0    0 -0.96806270943E+02  0.11897662945E+03 -0.10642755808E+04  0.10752717816E+04  0.00000000000E+00 0. -1.
        -14    1    6    6    0    0  0.12826791546E+02  0.81031726978E+00 -0.10235159247E+03  0.10315537638E+03  0.00000000000E+00 0.  1.
</event>
<event>
12    1  0.2576962E-002  0.2234899E+03  0.7818608E-02  0.1131308E+00
          2   -1    0    0  502    0  0.00000000000E+00  0.00000000000E+00  0.14300729860E+04  0.14300729860E+04  0.00000000000E+00 0. -1.
         -2   -1    0    0    0  501 -0.00000000000E+00 -0.00000000000E+00 -0.39680368722E+02  0.39680368722E+02  0.00000000000E+00 0.  1.
          6    2    1    2  502    0 -0.61944634723E+02  0.12817428562E+03  0.44057798520E+03  0.49397747227E+03  0.17215980018E+03 0.  0.
         24    2    3    3    0    0 -0.10549206096E+03  0.66853746441E+02  0.29026829421E+03  0.32583562720E+03  0.79468075283E+02 0.  0.
         -6    2    1    2    0  501  0.61944634723E+02 -0.12817428562E+03  0.94981463204E+03  0.97577588242E+03  0.17240925789E+03 0.  0.
        -24    2    5    5    0    0  0.25016689492E+02 -0.84840992763E+02  0.86679709297E+03  0.87500163371E+03  0.80416601603E+02 0.  0.
          5    1    3    3  502    0  0.43547426235E+02  0.61320539184E+02  0.15030969099E+03  0.16814184507E+03  0.47000000000E+01 0. -1.
        -13    1    4    4    0    0 -0.73620750411E+02 -0.17892855570E+00  0.13637287807E+03  0.15497615552E+03  0.00000000000E+00 0.  1.
         14    1    4    4    0    0 -0.31871310547E+02  0.67032674996E+02  0.15389541614E+03  0.17085947168E+03  0.00000000000E+00 0. -1.
         -5    1    5    5    0  501  0.36927945231E+02 -0.43333292861E+02  0.83017539075E+02  0.10077424871E+03  0.47000000000E+01 0.  1.
         13    1    6    6    0    0 -0.78819989342E-01 -0.78379007491E+02  0.40721010425E+03  0.41468463202E+03  0.00000000000E+00 0. -1.
        -14    1    6    6    0    0  0.25095509481E+02 -0.64619852714E+01  0.45958698871E+03  0.46031700169E+03  0.00000000000E+00 0.  1.
</event>
<event>
12    1  0.2576962E-002  0.2838306E+03  0.7818608E-02  0.1093615E+00
          1   -1    0    0  502    0  0.00000000000E+00  0.00000000000E+00  0.82447784499E+03  0.82447784499E+03  0.00000000000E+00 0.  1.
         -1   -1    0    0    0  501 -0.00000000000E+00 -0.00000000000E+00 -0.97786279264E+02  0.97786279264E+02  0.00000000000E+00 0. -1.
          6    2    1    2  502    0 -0.16739707415E+03 -0.14942591198E+03  0.34925849967E+03  0.44939232245E+03  0.17211065129E+03 0.  0.
         24    2    3    3    0    0 -0.19621365898E+03 -0.12917876590E+03  0.31123722463E+03  0.39735339624E+03  0.76381659976E+02 0.  0.
         -6    2    1    2    0  501  0.16739707415E+03  0.14942591198E+03  0.37743306606E+03  0.47287180180E+03  0.17550537877E+03 0.  0.
        -24    2    5    5    0    0  0.13331282563E+03  0.39752733788E+02  0.16056809858E+03  0.22742843535E+03  0.81172591462E+02 0.  0.
          5    1    3    3  502    0  0.28816584831E+02 -0.20247146085E+02  0.38021275039E+02  0.52038926215E+02  0.47000000000E+01 0. -1.
        -13    1    4    4    0    0 -0.17647550387E+03 -0.85641301354E+02  0.22297849667E+03  0.29698054808E+03  0.00000000000E+00 0.  1.
         14    1    4    4    0    0 -0.19738155109E+02 -0.43537464541E+02  0.88258727960E+02  0.10037284816E+03  0.00000000000E+00 0. -1.
         -5    1    5    5    0  501  0.34084248515E+02  0.10967317819E+03  0.21686496748E+03  0.24544336644E+03  0.47000000000E+01 0.  1.
         11    1    6    6    0    0 -0.24371526654E+01  0.76944878790E+01 -0.60835202389E+01  0.10107129926E+02  0.00000000000E+00 0. -1.
        -12    1    6    6    0    0  0.13574997830E+03  0.32058245909E+02  0.16665161882E+03  0.21732130543E+03  0.00000000000E+00 0.  1.
</event>
<event>
12    1  0.2576962E-002  0.1831765E+03  0.7818608E-02  0.1164764E+00
         -4   -1    0    0    0  501 -0.00000000000E+00  0.00000000000E+00  0.21408791002E+03  0.21408791002E+03  0.00000000000E+00 0.  1.
          4   -1    0    0  502    0  0.00000000000E+00 -0.00000000000E+00 -0.16349144952E+03  0.16349144952E+03  0.00000000000E+00 0. -1.
          6    2    1    2  502    0  0.41100706409E+02 -0.49720858498E+02  0.63818730972E+02  0.19496196311E+03  0.17255696103E+03 0.  0.
         24    2    3    3    0    0  0.50149546141E+02 -0.88184953592E+00  0.96723386768E+02  0.13519628174E+03  0.80042903570E+02 0.  0.
         -6    2    1    2    0  501 -0.41100706409E+02  0.49720858498E+02 -0.13222270466E+02  0.18261739642E+03  0.17033159778E+03 0.  0.
        -24    2    5    5    0    0 -0.21757493828E+02 -0.93549839117E+01 -0.64507369107E+02  0.10189338282E+03  0.75234011802E+02 0.  0.
          5    1    3    3  502    0 -0.90488397313E+01 -0.48839008963E+02 -0.32904655796E+02  0.59765681373E+02  0.47000000000E+01 0. -1.
        -11    1    4    4    0    0  0.12106593243E+02 -0.36140444651E+02  0.21310429282E+02  0.43667330303E+02  0.00000000000E+00 0.  1.
         12    1    4    4    0    0  0.38042952897E+02  0.35258595115E+02  0.75412957485E+02  0.91528951438E+02  0.00000000000E+00 0. -1.
         -5    1    5    5    0  501 -0.19343212581E+02  0.59075842410E+02  0.51285098641E+02  0.80724013602E+02  0.47000000000E+01 0.  1.
         11    1    6    6    0    0  0.16084611311E+02  0.16619953069E+02 -0.47704061597E+02  0.53015234168E+02  0.00000000000E+00 0. -1.
        -12    1    6    6    0    0 -0.37842105139E+02 -0.25974936980E+02 -0.16803307511E+02  0.48878148653E+02  0.00000000000E+00 0.  1.
</event>
<event>
12    1  0.2576962E-002  0.2947593E+03  0.7818608E-02  0.1087890E+00
         -1   -1    0    0    0  501 -0.00000000000E+00  0.00000000000E+00  0.78832048331E+02  0.78832048331E+02  0.00000000000E+00 0. -1.
          1   -1    0    0  502    0  0.00000000000E+00 -0.00000000000E+00 -0.14156805386E+04  0.14156805386E+04  0.00000000000E+00 0.  1.
          6    2    1    2  502    0  0.23754873871E+03 -0.28358170742E+02 -0.31697592604E+03  0.43293482500E+03  0.17241008062E+03 0.  0.
         24    2    3    3    0    0  0.34346974624E+02 -0.24263322700E+01 -0.12728386586E+03  0.15370627189E+03  0.78986288411E+02 0.  0.
         -6    2    1    2    0  501 -0.23754873871E+03  0.28358170742E+02 -0.10198725643E+04  0.10615777620E+04  0.17197007951E+03 0.  0.
        -24    2    5    5    0    0 -0.14070247209E+03 -0.45711943479E+02 -0.49807998984E+03  0.52570915689E+03  0.79997962044E+02 0.  0.
          5    1    3    3  502    0  0.20320176409E+03 -0.25931838472E+02 -0.18969206018E+03  0.27922855311E+03  0.47000000000E+01 0. -1.
        -11    1    4    4    0    0  0.28411189840E+02  0.12045729934E+02 -0.13339117486E+03  0.13691420982E+03  0.00000000000E+00 0.  1.
         12    1    4    4    0    0  0.59357847846E+01 -0.14472062204E+02  0.61073090067E+01  0.16792062076E+02  0.00000000000E+00 0. -1.
         -5    1    5    5    0  501 -0.96846266623E+02  0.74070114221E+02 -0.52179257444E+03  0.53586860508E+03  0.47000000000E+01 0.  1.
         13    1    6    6    0    0 -0.67546713312E+02 -0.46541974031E+01 -0.11413695562E+03  0.13270819368E+03  0.00000000000E+00 0. -1.
        -14    1    6    6    0    0 -0.73155758779E+02 -0.41057746076E+02 -0.38394303422E+03  0.39300096321E+03  0.00000000000E+00 0.  1.
</event>
<event>
12    1  0.2576962E-002  0.2644524E+03  0.7818608E-02  0.1104497E+00
          1   -1    0    0  502    0  0.00000000000E+00  0.00000000000E+00  0.49831013495E+03  0.49831013495E+03  0.00000000000E+00 0.  1.
         -1   -1    0    0    0  501 -0.00000000000E+00 -0.00000000000E+00 -0.20642367869E+03  0.20642367869E+03  0.00000000000E+00 0. -1.
          6    2    1    2  502    0  0.10770264498E+03  0.16943858099E+03 -0.52974233429E+02  0.27086247068E+03  0.17392790504E+03 0.  0.
         24    2    3    3    0    0  0.36452719701E+01  0.13366144373E+03 -0.27388195209E+02  0.15779313010E+03  0.79182631429E+02 0.  0.
         -6    2    1    2    0  501 -0.10770264498E+03 -0.16943858099E+03  0.34486068970E+03  0.43387134296E+03  0.17031193288E+03 0.  0.
        -24    2    5    5    0    0 -0.60402244850E+02 -0.46352658964E+02  0.24354950703E+03  0.26751775031E+03  0.80326733929E+02 0.  0.
          5    1    3    3  502    0  0.10405737301E+03  0.35777137255E+02 -0.25586038221E+02  0.11306934058E+03  0.47000000000E+01 0. -1.
        -13    1    4    4    0    0  0.28281449428E+02  0.76176784119E+02  0.14471465933E+02  0.82535847647E+02  0.00000000000E+00 0.  1.
         14    1    4    4    0    0 -0.24636177458E+02  0.57484659615E+02 -0.41859661142E+02  0.75257282450E+02  0.00000000000E+00 0. -1.
         -5    1    5    5    0  501 -0.47300400128E+02 -0.12308592203E+03  0.10131118267E+03  0.16635359265E+03  0.47000000000E+01 0.  1.
         11    1    6    6    0    0 -0.53084267585E+02  0.80489139495E+01  0.94582073699E+02  0.10875887617E+03  0.00000000000E+00 0. -1.
        -12    1    6    6    0    0 -0.73179772656E+01 -0.54401572913E+02  0.14896743333E+03  0.15875887414E+03  0.00000000000E+00 0.  1.
</event>
<event>
12    1  0.2576962E-002  0.2007713E+03  0.7818608E-02  0.1149090E+00
          4   -1    0    0  502    0  0.00000000000E+00  0.00000000000E+00  0.54090954404E+03  0.54090954404E+03  0.00000000000E+00 0.  1.
         -4   -1    0    0    0  501 -0.00000000000E+00 -0.00000000000E+00 -0.76037334193E+02  0.76037334193E+02  0.00000000000E+00 0. -1.
          6    2    1    2  502    0  0.46039742394E+02  0.92104528826E+02  0.27545324513E+03  0.34057841239E+03  0.17180297618E+03 0.  0.
         24    2    3    3    0    0  0.40010534234E+02  0.13057190921E+03  0.21271290426E+03  0.26658833822E+03  0.84691771198E+02 0.  0.
         -6    2    1    2    0  501 -0.46039742394E+02 -0.92104528826E+02  0.18941896471E+03  0.27636846584E+03  0.17290772859E+03 0.  0.
        -24    2    5    5    0    0 -0.12167649986E+02 -0.25514807493E+02  0.16181652064E+02  0.87649717100E+02  0.81373029541E+02 0.  0.
          5    1    3    3  502    0  0.60292081598E+01 -0.38467380382E+02  0.62740340866E+02  0.73990074176E+02  0.47000000000E+01 0. -1.
        -13    1    4    4    0    0  0.24437068629E+02  0.10918575923E+03  0.21247233462E+03  0.24013161666E+03  0.00000000000E+00 0.  1.
         14    1    4    4    0    0  0.15573465605E+02  0.21386149975E+02  0.24056964656E+00  0.26456721555E+02  0.00000000000E+00 0. -1.
         -5    1    5    5    0  501 -0.33872092408E+02 -0.66589721333E+02  0.17323731265E+03  0.18871874874E+03  0.47000000000E+01 0.  1.
         11    1    6    6    0    0  0.27715286817E+02 -0.35470434039E+02  0.74680341135E+01  0.45629599469E+02  0.00000000000E+00 0. -1.
        -12    1    6    6    0    0 -0.39882936803E+02  0.99556265454E+01  0.87136179508E+01  0.42020117631E+02  0.00000000000E+00 0.  1.
</event>
<event>
12    1  0.2576962E-002  0.1722208E+03  0.7818608E-02  0.1175552E+00
         -2   -1    0    0    0  501 -0.00000000000E+00  0.00000000000E+00  0.33283623144E+02  0.33283623144E+02  0.00000000000E+00 0.  1.
          2   -1    0    0  502    0  0.00000000000E+00 -0.00000000000E+00 -0.19480796633E+04  0.19480796633E+04  0.00000000000E+00 0. -1.
          6    2    1    2  502    0 -0.92543360449E+01 -0.59357069963E+01 -0.22865226024E+03  0.28648598156E+03  0.17225413251E+03 0.  0.
         24    2    3    3    0    0 -0.59032559444E+02 -0.37790141958E+02 -0.95226374116E+02  0.14048209929E+03  0.75856575122E+02 0.  0.
         -6    2    1    2    0  501  0.92543360449E+01  0.59357069963E+01 -0.16861437800E+04  0.16948773049E+04  0.17148573322E+03 0.  0.
        -24    2    5    5    0    0  0.58833078061E+02 -0.32115995426E+02 -0.86954236845E+03  0.87587428967E+03  0.80988101216E+02 0.  0.
          5    1    3    3  502    0  0.49778223399E+02  0.31854434962E+02 -0.13342588612E+03  0.14600388228E+03  0.47000000000E+01 0. -1.
        -11    1    4    4    0    0 -0.24364207683E+00 -0.41590483007E+02 -0.55798816482E+02  0.69594077039E+02  0.00000000000E+00 0.  1.
         12    1    4    4    0    0 -0.58788917367E+02  0.38003410484E+01 -0.39427557634E+02  0.70888022249E+02  0.00000000000E+00 0. -1.
         -5    1    5    5    0  501 -0.49578742016E+02  0.38051702422E+02 -0.81660141151E+03  0.81900301525E+03  0.47000000000E+01 0.  1.
         11    1    6    6    0    0  0.53916464015E+02  0.90357528977E+01 -0.66079450080E+03  0.66305203582E+03  0.00000000000E+00 0. -1.
        -12    1    6    6    0    0  0.49166140462E+01 -0.41151748324E+02 -0.20874786765E+03  0.21282225385E+03  0.00000000000E+00 0.  1.
</event>
<event>
12    1  0.2576962E-002  0.1983413E+03  0.7818608E-02  0.1151146E+00
          2   -1    0    0  502    0  0.00000000000E+00  0.00000000000E+00  0.26850225035E+04  0.26850225035E+04  0.00000000000E+00 0.  1.
         -2   -1    0    0    0  501 -0.00000000000E+00 -0.00000000000E+00 -0.29434928688E+02  0.29434928688E+02  0.00000000000E+00 0. -1.
          6    2    1    2  502    0 -0.26793126053E-01 -0.10253422596E+03  0.37082399870E+03  0.42122591594E+03  0.17148634358E+03 0.  0.
         24    2    3    3    0    0 -0.30286638332E+02 -0.76890898233E+02  0.36259058237E+03  0.38044457666E+03  0.80228765378E+02 0.  0.
         -6    2    1    2    0  501  0.26793126053E-01  0.10253422596E+03  0.22847635761E+04  0.22932315162E+04  0.16808604994E+03 0.  0.
        -24    2    5    5    0    0  0.76963264500E+01  0.78456829765E+02  0.74023350201E+03  0.74848759490E+03  0.77931602321E+02 0.  0.
          5    1    3    3  502    0  0.30259845206E+02 -0.25643327724E+02  0.82334163276E+01  0.40781339276E+02  0.47000000000E+01 0. -1.
        -13    1    4    4    0    0  0.36858924173E+01  0.13186037494E+02  0.17743782233E+02  0.22412032385E+02  0.00000000000E+00 0.  1.
         14    1    4    4    0    0 -0.33972530750E+02 -0.90076935727E+02  0.34484680014E+03  0.35803254428E+03  0.00000000000E+00 0. -1.
         -5    1    5    5    0  501 -0.76695333239E+01  0.24077396193E+02  0.15445300741E+04  0.15447439213E+04  0.47000000000E+01 0.  1.
         11    1    6    6    0    0  0.39582618389E+02  0.21560866789E+02  0.26637900035E+03  0.27016555384E+03  0.00000000000E+00 0. -1.
        -12    1    6    6    0    0 -0.31886291939E+02  0.56895962976E+02  0.47385450166E+03  0.47832204106E+03  0.00000000000E+00 0.  1.
</event>
<event>
12    1  0.2576962E-002  0.1803687E+03  0.7818608E-02  0.1167447E+00
          2   -1    0    0  502    0  0.00000000000E+00  0.00000000000E+00  0.31844946743E+03  0.31844946743E+03  0.00000000000E+00 0. -1.
         -2   -1    0    0    0  501 -0.00000000000E+00 -0.00000000000E+00 -0.19231836127E+03  0.19231836127E+03  0.00000000000E+00 0.  1.
          6    2    1    2  502    0  0.54807379599E+02  0.79570162629E+01  0.23788281540E+03  0.29839987843E+03  0.17142663334E+03 0.  0.
         24    2    3    3    0    0  0.34450447873E+02 -0.57647044920E+02  0.17975025554E+03  0.20829004529E+03  0.81022055348E+02 0.  0.
         -6    2    1    2    0  501 -0.54807379599E+02 -0.79570162629E+01 -0.11175170924E+03  0.21236795027E+03  0.17188524897E+03 0.  0.
        -24    2    5    5    0    0 -0.60663180583E+01  0.51707129519E+02 -0.85841797607E+02  0.13094980184E+03  0.84075019642E+02 0.  0.
          5    1    3    3  502    0  0.20356931727E+02  0.65604061182E+02  0.58132559861E+02  0.90109833143E+02  0.47000000000E+01 0. -1.
        -11    1    4    4    0    0 -0.16259351581E+02 -0.41575858831E+02  0.44851897242E+02  0.63281997737E+02  0.00000000000E+00 0.  1.
         12    1    4    4    0    0  0.50709799454E+02 -0.16071186088E+02  0.13489835830E+03  0.14500804755E+03  0.00000000000E+00 0. -1.
         -5    1    5    5    0  501 -0.48741061541E+02 -0.59664145782E+02 -0.25909911636E+02  0.81418148426E+02  0.47000000000E+01 0.  1.
         13    1    6    6    0    0 -0.11506875741E+02  0.29988693504E+02  0.91152552380E+01  0.33388887455E+02  0.00000000000E+00 0. -1.
        -14    1    6    6    0    0  0.54405576827E+01  0.21718436015E+02 -0.94957052845E+02  0.97560914386E+02  0.00000000000E+00 0.  1.
</event>
<event>
12    1  0.2576962E-002  0.1814756E+03  0.7818608E-02  0.1166383E+00
         -2   -1    0    0    0  501 -0.00000000000E+00  0.00000000000E+00  0.78816909265E+02  0.78816909265E+02  0.00000000000E+00 0. -1.
          2   -1    0    0  502    0  0.00000000000E+00 -0.00000000000E+00 -0.52791000113E+03  0.52791000113E+03  0.00000000000E+00 0.  1.
          6    2    1    2  502    0  0.31052445485E+02 -0.46750056041E+02 -0.36310631499E+03  0.40594983882E+03  0.17262460294E+03 0.  0.
         24    2    3    3    0    0  0.20823987213E+02 -0.89250414613E+02 -0.32639679641E+03  0.34867348600E+03  0.81480403687E+02 0.  0.
         -6    2    1    2    0  501 -0.31052445485E+02  0.46750056041E+02 -0.85986776869E+02  0.20077707157E+03  0.17253372007E+03 0.  0.
        -24    2    5    5    0    0 -0.37021686807E+02 -0.38010499640E+02 -0.44406151433E+02  0.10606159209E+03  0.80385021334E+02 0.  0.
          5    1    3    3  502    0  0.10228458272E+02  0.42500358571E+02 -0.36709518586E+02  0.57276352818E+02  0.47000000000E+01 0. -1.
        -13    1    4    4    0    0 -0.19686709557E+02 -0.71938449387E+02 -0.15976971176E+03  0.17632092283E+03  0.00000000000E+00 0.  1.
         14    1    4    4    0    0  0.40510696770E+02 -0.17311965226E+02 -0.16662708465E+03  0.17235256317E+03  0.00000000000E+00 0. -1.
         -5    1    5    5    0  501  0.59692413222E+01  0.84760555681E+02 -0.41580625436E+02  0.94715479479E+02  0.47000000000E+01 0.  1.
         11    1    6    6    0    0 -0.23496293612E+02  0.15799804963E+02  0.83292538702E+01  0.29514168130E+02  0.00000000000E+00 0. -1.
        -12    1    6    6    0    0 -0.13525393195E+02 -0.53810304603E+02 -0.52735405303E+02  0.76547423961E+02  0.00000000000E+00 0.  1.
</event>
<event>
12    1  0.2576962E-002  0.2232089E+03  0.7818608E-02  0.1131513E+00
         -1   -1    0    0    0  501 -0.00000000000E+00  0.00000000000E+00  0.24183252214E+02  0.24183252214E+02  0.00000000000E+00 0. -1.
          1   -1    0    0  502    0  0.00000000000E+00 -0.00000000000E+00 -0.24167503278E+04  0.24167503278E+04  0.00000000000E+00 0.  1.
          6    2    1    2  502    0  0.13801536120E+03 -0.33213335264E+02 -0.73028997806E+03  0.76381803922E+03  0.17304097613E+03 0.  0.
         24    2    3    3    0    0  0.54814090088E+02  0.88507062542E+01 -0.18099336710E+03  0.20664599047E+03  0.82831437075E+02 0.  0.
         -6    2    1    2    0  501 -0.13801536120E+03  0.33213335264E+02 -0.16622770975E+04  0.16771155408E+04  0.17146434800E+03 0.  0.
        -24    2    5    5    0    0 -0.85139772461E+02 -0.44732232260E+02 -0.10964896889E+04  0.11035226354E+04  0.78884824055E+02 0.  0.
          5    1    3    3  502    0  0.83201271117E+02 -0.42064041519E+02 -0.54929661095E+03  0.55717204875E+03  0.47000000000E+01 0. -1.
        -11    1    4    4    0    0  0.34425889755E+02 -0.33531567639E+02 -0.12250390747E+03  0.13159299092E+03  0.00000000000E+00 0.  1.
         12    1    4    4    0    0  0.20388200333E+02  0.42382273893E+02 -0.58489459637E+02  0.75052999552E+02  0.00000000000E+00 0. -1.
         -5    1    5    5    0  501 -0.52875588744E+02  0.77945567525E+02 -0.56578740863E+03  0.57359290541E+03  0.47000000000E+01 0.  1.
         13    1    6    6    0    0 -0.74932064238E+02 -0.64420264256E+02 -0.77597625366E+03  0.78224288488E+03  0.00000000000E+00 0. -1.
        -14    1    6    6    0    0 -0.10207708222E+02  0.19688031996E+02 -0.32051343523E+03  0.32127975049E+03  0.00000000000E+00 0.  1.
</event>
<event>
12    1  0.2576962E-002  0.1772425E+03  0.7818608E-02  0.1170499E+00
          1   -1    0    0  502    0  0.00000000000E+00  0.00000000000E+00  0.19515470110E+04  0.19515470110E+04  0.00000000000E+00 0. -1.
         -1   -1    0    0    0  501 -0.00000000000E+00 -0.00000000000E+00 -0.20935303084E+02  0.20935303084E+02  0.00000000000E+00 0.  1.
          6    2    1    2  502    0  0.32757983030E+02 -0.12636430433E+02  0.49435504524E+03  0.52542180594E+03  0.17449469497E+03 0.  0.
         24    2    3    3    0    0  0.48651325618E+02 -0.59218700040E+02  0.43314631826E+03  0.44673823434E+03  0.78009685808E+02 0.  0.
         -6    2    1    2    0  501 -0.32757983030E+02  0.12636430433E+02  0.14362566626E+04  0.14470605081E+04  0.17296863397E+03 0.  0.
        -24    2    5    5    0    0  0.66717033873E+01 -0.49526736871E+02  0.10244984481E+04  0.10287473757E+04  0.78909337097E+02 0.  0.
          5    1    3    3  502    0 -0.15893342588E+02  0.46582269607E+02  0.61208726977E+02  0.78683571592E+02  0.47000000000E+01 0. -1.
        -13    1    4    4    0    0  0.31977224027E+02 -0.67930057960E+02  0.21404951337E+03  0.22683524815E+03  0.00000000000E+00 0.  1.
         14    1    4    4    0    0  0.16674101592E+02  0.87113579193E+01  0.21909680489E+03  0.21990298619E+03  0.00000000000E+00 0. -1.
         -5    1    5    5    0  501 -0.39429686417E+02  0.62163167305E+02  0.41175821454E+03  0.41831313245E+03  0.47000000000E+01 0.  1.
         13    1    6    6    0    0  0.13320779916E+02 -0.75500153036E+01  0.33448028791E+02  0.36786091647E+02  0.00000000000E+00 0. -1.
        -14    1    6    6    0    0 -0.66490765289E+01 -0.41976721568E+02  0.99105041930E+03  0.99196128401E+03  0.00000000000E+00 0.  1.
</event>
<event>
12    1  0.2576962E-002  0.1733232E+03  0.7818608E-02  0.1174426E+00
         -2   -1    0    0    0  501 -0.00000000000E+00  0.00000000000E+00  0.11077125298E+03  0.11077125298E+03  0.00000000000E+00 0.  1.
          2   -1    0    0  502    0  0.00000000000E+00 -0.00000000000E+00 -0.49304478492E+03  0.49304478492E+03  0.00000000000E+00 0. -1.
          6    2    1    2  502    0 -0.64269325098E+01 -0.81136305845E+00  0.12074036323E+02  0.17259039225E+03  0.17204562585E+03 0.  0.
         24    2    3    3    0    0 -0.32964485990E+02  0.33999632232E+02  0.55364213697E+02  0.11084756599E+03  0.83542530482E+02 0.  0.
         -6    2    1    2    0  501  0.64269325098E+01  0.81136305845E+00 -0.39434756827E+03  0.43122564564E+03  0.17436624986E+03 0.  0.
        -24    2    5    5    0    0  0.43975391769E+02 -0.24616584633E+02 -0.36512200791E+03  0.37707132269E+03  0.79554323663E+02 0.  0.
          5    1    3    3  502    0  0.26537553480E+02 -0.34810995290E+02 -0.43290177374E+02  0.61742826263E+02  0.47000000000E+01 0. -1.
        -13    1    4    4    0    0 -0.34624687285E+02  0.60375517029E+02  0.40562295990E+02  0.80556637728E+02  0.00000000000E+00 0.  1.
         14    1    4    4    0    0  0.16602012950E+01 -0.26375884798E+02  0.14801917708E+02  0.30290928263E+02  0.00000000000E+00 0. -1.
         -5    1    5    5    0  501 -0.37548459259E+02  0.25427947691E+02 -0.29225560360E+02  0.54154322956E+02  0.47000000000E+01 0.  1.
         13    1    6    6    0    0  0.22000940175E+01  0.22783194028E+02 -0.18032610551E+03  0.18177298664E+03  0.00000000000E+00 0. -1.
        -14    1    6    6    0    0  0.41775297751E+02 -0.47399778661E+02 -0.18479590240E+03  0.19529833605E+03  0.00000000000E+00 0.  1.
</event>
<event>
12    1  0.2576962E-002  0.2015213E+03  0.7818608E-02  0.1148462E+00
         -1   -1    0    0    0  501 -0.00000000000E+00  0.00000000000E+00  0.21478844032E+03  0.21478844032E+03  0.00000000000E+00 0.  1.
          1   -1    0    0  502    0  0.00000000000E+00 -0.00000000000E+00 -0.18909549181E+03  0.18909549181E+03  0.00000000000E+00 0. -1.
          6    2    1    2  502    0  0.76751553728E+02 -0.65377332868E+02  0.13776411677E+02  0.20400654022E+03  0.17681595596E+03 0.  0.
         24    2    3    3    0    0  0.51467582566E+02 -0.56319335546E+02 -0.58990558091E+02  0.12629908625E+03  0.81552398079E+02 0.  0.
         -6    2    1    2    0  501 -0.76751553728E+02  0.65377332868E+02  0.11916536835E+02  0.19987739191E+03  0.17217424689E+03 0.  0.
        -24    2    5    5    0    0 -0.77170084057E+02  0.47482551919E+02  0.63398318293E+02  0.14517033409E+03  0.94049266491E+02 0.  0.
          5    1    3    3  502    0  0.25283971161E+02 -0.90579973216E+01  0.72766969769E+02  0.77707453970E+02  0.47000000000E+01 0. -1.
        -13    1    4    4    0    0  0.12652429687E+02 -0.46392480973E+02  0.75025334895E+01  0.48668616958E+02  0.00000000000E+00 0.  1.
         14    1    4    4    0    0  0.38815152879E+02 -0.99268545733E+01 -0.66493091581E+02  0.77630469294E+02  0.00000000000E+00 0. -1.
         -5    1    5    5    0  501  0.41853032906E+00  0.17894780948E+02 -0.51481781458E+02  0.54707057816E+02  0.47000000000E+01 0.  1.
         11    1    6    6    0    0 -0.41856553067E+02 -0.96059191920E+01 -0.11634054577E+02  0.44492650450E+02  0.00000000000E+00 0. -1.
        -12    1    6    6    0    0 -0.35313530990E+02  0.57088471111E+02  0.75032372870E+02  0.10067768364E+03  0.00000000000E+00 0.  1.
</event>
<event>
12    1  0.2576962E-002  0.3151548E+03  0.7818608E-02  0.1077901E+00
         -2   -1    0    0    0  501 -0.00000000000E+00  0.00000000000E+00  0.47028661392E+02  0.47028661392E+02  0.00000000000E+00 0.  1.
          2   -1    0    0  502    0  0.00000000000E+00 -0.00000000000E+00 -0.23032324028E+04  0.23032324028E+04  0.00000000000E+00 0. -1.
          6    2    1    2  502    0 -0.23965569399E+03 -0.11066648381E+03 -0.14672782899E+04  0.15007765033E+04  0.17246046114E+03 0.  0.
         24    2    3    3    0    0 -0.11578235930E+03 -0.12762249180E+03 -0.85377119127E+03  0.87464140664E+03  0.79870445204E+02 0.  0.
         -6    2    1    2    0  501  0.23965569399E+03  0.11066648381E+03 -0.78892545157E+03  0.84948456092E+03  0.17186834729E+03 0.  0.
        -24    2    5    5    0    0  0.63952004474E+02  0.85097814873E+02 -0.40826784016E+03  0.42942759994E+03  0.79962099198E+02 0.  0.
          5    1    3    3  502    0 -0.12387333469E+03  0.16956007991E+02 -0.61350709860E+03  0.62613509668E+03  0.47000000000E+01 0. -1.
        -11    1    4    4    0    0 -0.40606901126E+02  0.13669052805E+01 -0.18207545595E+03  0.18655363977E+03  0.00000000000E+00 0.  1.
         12    1    4    4    0    0 -0.75175458175E+02 -0.12898939708E+03 -0.67169573532E+03  0.68808776687E+03  0.00000000000E+00 0. -1.
         -5    1    5    5    0  501  0.17570368952E+03  0.25568668940E+02 -0.38065761141E+03  0.42005696098E+03  0.47000000000E+01 0.  1.
         13    1    6    6    0    0 -0.33956772078E+01 -0.13394865128E+02 -0.41769167632E+02  0.43995640695E+02  0.00000000000E+00 0. -1.
        -14    1    6    6    0    0  0.67347681682E+02  0.98492680002E+02 -0.36649867252E+03  0.38543195924E+03  0.00000000000E+00 0.  1.
</event>
<event>
12    1  0.2576962E-002  0.1887042E+03  0.7818608E-02  0.1159635E+00
          1   -1    0    0  502    0  0.00000000000E+00  0.00000000000E+00  0.28940703800E+03  0.28940703800E+03  0.00000000000E+00 0. -1.
         -1   -1    0    0    0  501 -0.00000000000E+00 -0.00000000000E+00 -0.25675417961E+03  0.25675417961E+03  0.00000000000E+00 0.  1.
          6    2    1    2  502    0  0.38732376843E+02 -0.70415792034E+02  0.21337272963E+03  0.28450756783E+03  0.17017066028E+03 0.  0.
         24    2    3    3    0    0 -0.18389777424E+02 -0.89650521701E+02  0.10754902353E+03  0.16263196688E+03  0.80665756280E+02 0.  0.
         -6    2    1    2    0  501 -0.38732376843E+02  0.70415792034E+02 -0.18071987123E+03  0.26165364978E+03  0.17130201341E+03 0.  0.
        -24    2    5    5    0    0 -0.61274533839E+02 -0.12188155524E+02 -0.10691013203E+03  0.14850980949E+03  0.81989435609E+02 0.  0.
          5    1    3    3  502    0  0.57122154267E+02  0.19234729667E+02  0.10582370610E+03  0.12187560095E+03  0.47000000000E+01 0. -1.
        -13    1    4    4    0    0 -0.25894721230E+02  0.51580593394E+01  0.29595099806E+02  0.39661216525E+02  0.00000000000E+00 0.  1.
         14    1    4    4    0    0  0.75049438066E+01 -0.94808581041E+02  0.77953923719E+02  0.12297075036E+03  0.00000000000E+00 0. -1.
         -5    1    5    5    0  501  0.22542156996E+02  0.82603947558E+02 -0.73809739202E+02  0.11314384029E+03  0.47000000000E+01 0.  1.
         11    1    6    6    0    0 -0.52976198938E+02 -0.39793162607E+02 -0.44640830816E+02  0.79892285110E+02  0.00000000000E+00 0. -1.
        -12    1    6    6    0    0 -0.82983349007E+01  0.27605007084E+02 -0.62269301212E+02  0.68617524377E+02  0.00000000000E+00 0.  1.
</event>
<event>
12    1  0.2576962E-002  0.2853897E+03  0.7818608E-02  0.1092781E+00
          1   -1    0    0  502    0  0.00000000000E+00  0.00000000000E+00  0.40877889799E+03  0.40877889799E+03  0.00000000000E+00 0.  1.
         -1   -1    0    0    0  501 -0.00000000000E+00 -0.00000000000E+00 -0.19962945645E+03  0.19962945645E+03  0.00000000000E+00 0. -1.
          6    2    1    2  502    0  0.19475271481E+03 -0.11903686109E+03  0.11791222679E+03  0.30876967308E+03  0.17128054053E+03 0.  0.
         24    2    3    3    0    0  0.97063423603E+02 -0.33063745326E+02  0.12266750628E+03  0.17846511854E+03  0.79296670695E+02 0.  0.
         -6    2    1    2    0  501 -0.19475271481E+03  0.11903686109E+03  0.91237214743E+02  0.29963868136E+03  0.17134968861E+03 0.  0.
        -24    2    5    5    0    0 -0.20587177347E+03  0.73461498502E+02  0.96443639913E+02  0.25220510671E+03  0.80785278971E+02 0.  0.
          5    1    3    3  502    0  0.97689291210E+02 -0.85973115764E+02 -0.47552794873E+01  0.13030455454E+03  0.47000000000E+01 0. -1.
        -11    1    4    4    0    0  0.10716353259E+03 -0.38826446641E+02  0.12178598100E+03  0.16680329986E+03  0.00000000000E+00 0.  1.
         12    1    4    4    0    0 -0.10100108992E+02  0.57627013152E+01  0.88152527816E+00  0.11661818680E+02  0.00000000000E+00 0. -1.
         -5    1    5    5    0  501  0.11119058660E+02  0.45575362588E+02 -0.52064251708E+01  0.47433574644E+02  0.47000000000E+01 0.  1.
         13    1    6    6    0    0 -0.84799753108E+02  0.44239283212E+02  0.16056949428E+01  0.95659241909E+02  0.00000000000E+00 0. -1.
        -14    1    6    6    0    0 -0.12107202036E+03  0.29222215289E+02  0.94837944971E+02  0.15654586481E+03  0.00000000000E+00 0.  1.
</event>
<event>
12    1  0.2576962E-002  0.2479430E+03  0.7818608E-02  0.1114612E+00
         -2   -1    0    0    0  501 -0.00000000000E+00  0.00000000000E+00  0.17128419944E+03  0.17128419944E+03  0.00000000000E+00 0. -1.
          2   -1    0    0  502    0  0.00000000000E+00 -0.00000000000E+00 -0.53376124799E+03  0.53376124799E+03  0.00000000000E+00 0.  1.
          6    2    1    2  502    0  0.93314317452E+02 -0.15252563813E+03 -0.38294911614E+03  0.45614726147E+03  0.17160613760E+03 0.  0.
         24    2    3    3    0    0  0.13115090594E+03 -0.10367963273E+03 -0.28110848447E+03  0.33693675886E+03  0.80959082626E+02 0.  0.
         -6    2    1    2    0  501 -0.93314317452E+02  0.15252563813E+03  0.20472067594E+02  0.24889818596E+03  0.17192896583E+03 0.  0.
        -24    2    5    5    0    0  0.72471305907E+01  0.59959807876E+02  0.42701574803E+02  0.11034394115E+03  0.81881996768E+02 0.  0.
          5    1    3    3  502    0 -0.37836588491E+02 -0.48846005399E+02 -0.10184063168E+03  0.11921050261E+03  0.47000000000E+01 0. -1.
        -11    1    4    4    0    0  0.81661158930E+02 -0.52990954795E+02 -0.22949094125E+03  0.24928433221E+03  0.00000000000E+00 0.  1.
         12    1    4    4    0    0  0.49489747013E+02 -0.50688677939E+02 -0.51617543213E+02  0.87652426652E+02  0.00000000000E+00 0. -1.
         -5    1    5    5    0  501 -0.10056144804E+03  0.92565830257E+02 -0.22229507210E+02  0.13855424481E+03  0.47000000000E+01 0.  1.
         11    1    6    6    0    0 -0.20232578781E+02  0.59530783742E+02  0.51725372500E+02  0.81417354522E+02  0.00000000000E+00 0. -1.
        -12    1    6    6    0    0  0.27479709372E+02  0.42902413378E+00 -0.90237976965E+01  0.28926586624E+02  0.00000000000E+00 0.  1.
</event>
<event>
12    1  0.2576962E-002  0.2198939E+03  0.7818608E-02  0.1133962E+00
         -2   -1    0    0    0  501 -0.00000000000E+00  0.00000000000E+00  0.47774027779E+02  0.47774027779E+02  0.00000000000E+00 0. -1.
          2   -1    0    0  502    0  0.00000000000E+00 -0.00000000000E+00 -0.11500021446E+04  0.11500021446E+04  0.00000000000E+00 0.  1.
          6    2    1    2  502    0  0.12474406262E+03 -0.56170075102E+02 -0.75835597095E+03  0.78957711374E+03  0.17208161254E+03 0.  0.
         24    2    3    3    0    0  0.60339676542E+02  0.37450454585E+02 -0.34762911120E+03  0.36339479144E+03  0.78526189107E+02 0.  0.
         -6    2    1    2    0  501 -0.12474406262E+03  0.56170075102E+02 -0.34387214587E+03  0.40819905863E+03  0.17222735053E+03 0.  0.
        -24    2    5    5    0    0 -0.71700868537E+02 -0.21794405795E+02 -0.10414965074E+03  0.15055394343E+03  0.78761217994E+02 0.  0.
          5    1    3    3  502    0  0.64404386074E+02 -0.93620529688E+02 -0.41072685975E+03  0.42618232230E+03  0.47000000000E+01 0. -1.
        -11    1    4    4    0    0  0.45256342974E+02  0.11704641850E+02 -0.31774218688E+03  0.32116231495E+03  0.00000000000E+00 0.  1.
         12    1    4    4    0    0  0.15083333567E+02  0.25745812735E+02 -0.29886924318E+02  0.42232476486E+02  0.00000000000E+00 0. -1.
         -5    1    5    5    0  501 -0.53043194078E+02  0.77964480897E+02 -0.23972249512E+03  0.25764511520E+03  0.47000000000E+01 0.  1.
         11    1    6    6    0    0 -0.23662257010E+02  0.20174912167E+02 -0.33632718879E+01  0.31276845838E+02  0.00000000000E+00 0. -1.
        -12    1    6    6    0    0 -0.48038611527E+02 -0.41969317962E+02 -0.10078637885E+03  0.11927709759E+03  0.00000000000E+00 0.  1.
</event>
<event>
12    1  0.2576962E-002  0.2652599E+03  0.7818608E-02  0.1104024E+00
          2   -1    0    0  502    0  0.00000000000E+00  0.00000000000E+00  0.55678567554E+03  0.55678567554E+03  0.00000000000E+00 0.  1.
         -2   -1    0    0    0  501 -0.00000000000E+00 -0.00000000000E+00 -0.15306189858E+03  0.15306189858E+03  0.00000000000E+00 0. -1.
          6    2    1    2  502    0  0.11220388278E+02 -0.20234730926E+03  0.53431202063E+02  0.27023575967E+03  0.17059349863E+03 0.  0.
         24    2    3    3    0    0  0.20940504998E+02 -0.37928353184E+02  0.55879363643E+02  0.10544450602E+03  0.78223882820E+02 0.  0.
         -6    2    1    2    0  501 -0.11220388278E+02  0.20234730926E+03  0.35029257489E+03  0.43961181445E+03  0.17170710148E+03 0.  0.
        -24    2    5    5    0    0 -0.59849813053E+02  0.13656415727E+03  0.29680320215E+03  0.34175760127E+03  0.80463333557E+02 0.  0.
          5    1    3    3  502    0 -0.97201167200E+01 -0.16441895608E+03 -0.24481615803E+01  0.16479125366E+03  0.47000000000E+01 0. -1.
        -13    1    4    4    0    0 -0.23333696069E+02  0.76197024022E+00 -0.13612477787E+01  0.23385785563E+02  0.00000000000E+00 0.  1.
         14    1    4    4    0    0  0.44274201067E+02 -0.38690323424E+02  0.57240611422E+02  0.82058720455E+02  0.00000000000E+00 0. -1.
         -5    1    5    5    0  501  0.48629424775E+02  0.65783151995E+02  0.53489372746E+02  0.97854213180E+02  0.47000000000E+01 0.  1.
         11    1    6    6    0    0 -0.48672142465E+01  0.17706261419E+02  0.12181588522E+03  0.12319217248E+03  0.00000000000E+00 0. -1.
        -12    1    6    6    0    0 -0.54982598807E+02  0.11885789585E+03  0.17498731693E+03  0.21856542879E+03  0.00000000000E+00 0.  1.
</event>
<event>
12    1  0.2576962E-002  0.2083184E+03  0.7818608E-02  0.1142905E+00
         -1   -1    0    0    0  501 -0.00000000000E+00  0.00000000000E+00  0.18311670738E+03  0.18311670738E+03  0.00000000000E+00 0.  1.
          1   -1    0    0  502    0  0.00000000000E+00 -0.00000000000E+00 -0.23706448206E+03  0.23706448206E+03  0.00000000000E+00 0. -1.
          6    2    1    2  502    0 -0.89639693937E+02  0.70900735209E+02 -0.30580957410E+02  0.20986629227E+03  0.17333919549E+03 0.  0.
         24    2    3    3    0    0 -0.11740638834E+03  0.81198385377E+02  0.54548555752E+01  0.16298665133E+03  0.78469454257E+02 0.  0.
         -6    2    1    2    0  501  0.89639693937E+02 -0.70900735209E+02 -0.23366817270E+02  0.21031489717E+03  0.17499759667E+03 0.  0.
        -24    2    5    5    0    0 -0.98107544903E+01  0.56721842780E+01 -0.31520603997E+02  0.84448388803E+02  0.77521334593E+02 0.  0.
          5    1    3    3  502    0  0.27766694407E+02 -0.10297650169E+02 -0.36035812985E+02  0.46879640941E+02  0.47000000000E+01 0. -1.
        -13    1    4    4    0    0 -0.75968204229E+02  0.91419547332E+02  0.13250166137E+02  0.11960045397E+03  0.00000000000E+00 0.  1.
         14    1    4    4    0    0 -0.41438184115E+02 -0.10221161955E+02 -0.77953105617E+01  0.43386197358E+02  0.00000000000E+00 0. -1.
         -5    1    5    5    0  501  0.99450448427E+02 -0.76572919487E+02  0.81537867273E+01  0.12586650837E+03  0.47000000000E+01 0.  1.
         11    1    6    6    0    0 -0.36166643028E+02  0.25996138987E+02 -0.13189482686E+02  0.46451994184E+02  0.00000000000E+00 0. -1.
        -12    1    6    6    0    0  0.26355888537E+02 -0.20323954709E+02 -0.18331121311E+02  0.37996394620E+02  0.00000000000E+00 0.  1.
</event>
<event>
12    1  0.2576962E-002  0.2312927E+03  0.7818608E-02  0.1125733E+00
         -1   -1    0    0    0  501 -0.00000000000E+00  0.00000000000E+00  0.11462977212E+03  0.11462977212E+03  0.00000000000E+00 0. -1.
          1   -1    0    0  502    0  0.00000000000E+00 -0.00000000000E+00 -0.47438829466E+03  0.47438829466E+03  0.00000000000E+00 0.  1.
          6    2    1    2  502    0  0.13916778864E+03  0.44748575622E+02 -0.22087778604E+03  0.32375953408E+03  0.18618037256E+03 0.  0.
         24    2    3    3    0    0  0.13595133112E+03  0.93937769387E+02 -0.19576277719E+03  0.26823678152E+03  0.79503692233E+02 0.  0.
         -6    2    1    2    0  501 -0.13916778864E+03 -0.44748575622E+02 -0.13888073649E+03  0.26525853269E+03  0.17234883749E+03 0.  0.
        -24    2    5    5    0    0 -0.98568215271E+01  0.15767359779E+02 -0.60320888726E+02  0.10223324529E+03  0.80419277914E+02 0.  0.
          5    1    3    3  502    0  0.32164575208E+01 -0.49189193765E+02 -0.25115008857E+02  0.55522752562E+02  0.47000000000E+01 0. -1.
        -13    1    4    4    0    0  0.30441602876E+02  0.70090538997E+01 -0.90379936823E+02  0.95626100006E+02  0.00000000000E+00 0.  1.
         14    1    4    4    0    0  0.10550972824E+03  0.86928715487E+02 -0.10538284037E+03  0.17261068152E+03  0.00000000000E+00 0. -1.
         -5    1    5    5    0  501 -0.12931096711E+03 -0.60515935401E+02 -0.78559847768E+02  0.16302528741E+03  0.47000000000E+01 0.  1.
         13    1    6    6    0    0  0.32566382753E+02  0.11622989843E+02 -0.94132020990E+01  0.35836734676E+02  0.00000000000E+00 0. -1.
        -14    1    6    6    0    0 -0.42423204280E+02  0.41443699360E+01 -0.50907686627E+02  0.66396510611E+02  0.00000000000E+00 0.  1.
</event>
<event>
12    1  0.2576962E-002  0.2286540E+03  0.7818608E-02  0.1127591E+00
         -1   -1    0    0    0  501 -0.00000000000E+00  0.00000000000E+00  0.68144064644E+02  0.68144064644E+02  0.00000000000E+00 0.  1.
          1   -1    0    0  502    0  0.00000000000E+00 -0.00000000000E+00 -0.79686436415E+03  0.79686436415E+03  0.00000000000E+00 0. -1.
          6    2    1    2  502    0  0.60167552022E+02 -0.13867121081E+03 -0.44757293420E+03  0.50254315269E+03  0.17140084556E+03 0.  0.
         24    2    3    3    0    0 -0.68016234159E+01 -0.61249862129E+01 -0.16293795069E+03  0.18146288865E+03  0.79348765870E+02 0.  0.
         -6    2    1    2    0  501 -0.60167552022E+02  0.13867121081E+03 -0.28114736531E+03  0.36246527611E+03  0.17171894579E+03 0.  0.
        -24    2    5    5    0    0 -0.89984409860E+02  0.10785468348E+03 -0.13222424074E+03  0.20742047485E+03  0.76224515610E+02 0.  0.
          5    1    3    3  502    0  0.66969175437E+02 -0.13254622460E+03 -0.28463498351E+03  0.32108026404E+03  0.47000000000E+01 0. -1.
        -13    1    4    4    0    0 -0.37658491952E+02 -0.21358738396E+02 -0.69413041310E+02  0.81807872640E+02  0.00000000000E+00 0.  1.
         14    1    4    4    0    0  0.30856868536E+02  0.15233752184E+02 -0.93524909381E+02  0.99655016011E+02  0.00000000000E+00 0. -1.
         -5    1    5    5    0  501  0.29816857838E+02  0.30816527335E+02 -0.14892312457E+03  0.15504480126E+03  0.47000000000E+01 0.  1.
         11    1    6    6    0    0 -0.42926199466E+02  0.17040031147E+02 -0.80488594781E+02  0.92797818680E+02  0.00000000000E+00 0. -1.
        -12    1    6    6    0    0 -0.47058210394E+02  0.90814652332E+02 -0.51735645959E+02  0.11462265617E+03  0.00000000000E+00 0.  1.
</event>
<event>
12    1  0.2576962E-002  0.2113424E+03  0.7818608E-02  0.1140507E+00
          2   -1    0    0  502    0  0.00000000000E+00  0.00000000000E+00  0.33933953322E+04  0.33933953322E+04  0.00000000000E+00 0.  1.
         -2   -1    0    0    0  501 -0.00000000000E+00 -0.00000000000E+00 -0.13927305267E+02  0.13927305267E+02  0.00000000000E+00 0. -1.
          6    2    1    2  502    0 -0.28461007985E+02  0.12062375230E+03  0.20874631691E+04  0.20981144979E+04  0.17094398280E+03 0.  0.
         24    2    3    3    0    0 -0.18428117665E+02  0.82441018672E+02  0.19814247369E+04  0.19848677798E+04  0.80746507681E+02 0.  0.
         -6    2    1    2    0  501  0.28461007985E+02 -0.12062375230E+03  0.12920048579E+04  0.13092081396E+04  0.17143302340E+03 0.  0.
        -24    2    5    5    0    0 -0.12381762036E+02 -0.36981638395E+02  0.28553572434E+03  0.29843302031E+03  0.77528498808E+02 0.  0.
          5    1    3    3  502    0 -0.10032890320E+02  0.38182733623E+02  0.10603843222E+03  0.11324671802E+03  0.47000000000E+01 0. -1.
        -11    1    4    4    0    0 -0.59426428818E+01 -0.16285264660E+02  0.30381702424E+03  0.30431120431E+03  0.00000000000E+00 0.  1.
         12    1    4    4    0    0 -0.12485474784E+02  0.98726283333E+02  0.16776077126E+04  0.16805565755E+04  0.00000000000E+00 0. -1.
         -5    1    5    5    0  501  0.40842770022E+02 -0.83642113901E+02  0.10064691335E+04  0.10107751193E+04  0.47000000000E+01 0.  1.
         11    1    6    6    0    0 -0.30866747124E+02 -0.95439446933E+01  0.23990597168E+03  0.24207172120E+03  0.00000000000E+00 0. -1.
        -12    1    6    6    0    0  0.18484985088E+02 -0.27437693702E+02  0.45629752667E+02  0.56361299114E+02  0.00000000000E+00 0.  1.
</event>
<event>
12    1  0.2576962E-002  0.4427928E+03  0.7818608E-02  0.1029893E+00
          2   -1    0    0  502    0  0.00000000000E+00  0.00000000000E+00  0.10531046898E+03  0.10531046898E+03  0.00000000000E+00 0. -1.
         -2   -1    0    0    0  501 -0.00000000000E+00 -0.00000000000E+00 -0.20768859962E+04  0.20768859962E+04  0.00000000000E+00 0.  1.
          6    2    1    2  502    0 -0.30649081369E+03 -0.26950876902E+03 -0.13377127498E+04  0.14092164047E+04  0.17275380946E+03 0.  0.
         24    2    3    3    0    0 -0.28010210956E+03 -0.21591306386E+03 -0.12594163317E+04  0.13106198408E+04  0.80741733866E+02 0.  0.
         -6    2    1    2    0  501  0.30649081369E+03  0.26950876902E+03 -0.63386277736E+03  0.77298006049E+03  0.17071777274E+03 0.  0.
        -24    2    5    5    0    0  0.90004043166E+02  0.15051963682E+03 -0.32564012441E+03  0.37795065754E+03  0.77770946125E+02 0.  0.
          5    1    3    3  502    0 -0.26388704129E+02 -0.53595705160E+02 -0.78296418116E+02  0.98596563870E+02  0.47000000000E+01 0. -1.
        -13    1    4    4    0    0 -0.90526661067E+02 -0.29072549891E+02 -0.38654952160E+03  0.39807137823E+03  0.00000000000E+00 0.  1.
         14    1    4    4    0    0 -0.18957544849E+03 -0.18684051397E+03 -0.87286681010E+03  0.91254846255E+03  0.00000000000E+00 0. -1.
         -5    1    5    5    0  501  0.21648677052E+03  0.11898913221E+03 -0.30822265295E+03  0.39502940294E+03  0.47000000000E+01 0.  1.
         13    1    6    6    0    0  0.60418093384E+02  0.31441411183E+02 -0.97915099017E+02  0.11927394921E+03  0.00000000000E+00 0. -1.
        -14    1    6    6    0    0  0.29585949782E+02  0.11907822563E+03 -0.22772502539E+03  0.25867670833E+03  0.00000000000E+00 0.  1.
</event>
<event>
12    1  0.2576962E-002  0.1838845E+03  0.7818608E-02  0.1164096E+00
         -2   -1    0    0    0  501 -0.00000000000E+00  0.00000000000E+00  0.12453737654E+03  0.12453737654E+03  0.00000000000E+00 0.  1.
          2   -1    0    0  502    0  0.00000000000E+00 -0.00000000000E+00 -0.38066939815E+03  0.38066939815E+03  0.00000000000E+00 0. -1.
          6    2    1    2  502    0 -0.44366616154E+02  0.50712734201E+02 -0.26311651006E+03  0.32075734530E+03  0.17063059122E+03 0.  0.
         24    2    3    3    0    0 -0.58359946749E+02  0.62440917392E+02 -0.77571588258E+02  0.13425701933E+03  0.68577287668E+02 0.  0.
         -6    2    1    2    0  501  0.44366616154E+02 -0.50712734201E+02  0.69844884510E+01  0.18444942939E+03  0.17155940919E+03 0.  0.
        -24    2    5    5    0    0  0.16195756676E+02 -0.16715555879E+02 -0.62113373636E+02  0.10231533170E+03  0.77901499177E+02 0.  0.
          5    1    3    3  502    0  0.13993330595E+02 -0.11728183192E+02 -0.18554492180E+03  0.18650032597E+03  0.47000000000E+01 0. -1.
        -11    1    4    4    0    0 -0.46426694077E+02  0.70651629941E+02 -0.39091597843E+02  0.93140988604E+02  0.00000000000E+00 0.  1.
         12    1    4    4    0    0 -0.11933252672E+02 -0.82107125489E+01 -0.38479990415E+02  0.41116030721E+02  0.00000000000E+00 0. -1.
         -5    1    5    5    0  501  0.28170859478E+02 -0.33997178322E+02  0.69097862087E+02  0.82134097685E+02  0.47000000000E+01 0.  1.
         13    1    6    6    0    0 -0.13897813517E+02 -0.35888066081E+01  0.13610245967E+02  0.19780484036E+02  0.00000000000E+00 0. -1.
        -14    1    6    6    0    0  0.30093570193E+02 -0.13126749271E+02 -0.75723619603E+02  0.82534847665E+02  0.00000000000E+00 0.  1.
</event>
<event>
12    1  0.2576962E-002  0.1810531E+03  0.7818608E-02  0.1166788E+00
          2   -1    0    0  502    0  0.00000000000E+00  0.00000000000E+00  0.27084324397E+03  0.27084324397E+03  0.00000000000E+00 0. -1.
         -2   -1    0    0    0  501 -0.00000000000E+00 -0.00000000000E+00 -0.12304110936E+03  0.12304110936E+03  0.00000000000E+00 0.  1.
          6    2    1    2  502    0 -0.14792235851E+02 -0.50126550874E+02  0.49176579212E+02  0.18864057024E+03  0.17445758067E+03 0.  0.
         24    2    3    3    0    0 -0.25740231338E+02 -0.55021371354E+02  0.96536225864E+02  0.13956059465E+03  0.80423913489E+02 0.  0.
         -6    2    1    2    0  501  0.14792235851E+02  0.50126550874E+02  0.98625555395E+02  0.20524378309E+03  0.17223974273E+03 0.  0.
        -24    2    5    5    0    0 -0.33205188914E+02  0.84119231229E+02  0.47353758958E+02  0.12707638444E+03  0.75679583521E+02 0.  0.
          5    1    3    3  502    0  0.10947995487E+02  0.48948204801E+01 -0.47359646652E+02  0.49079975588E+02  0.47000000000E+01 0. -1.
        -11    1    4    4    0    0 -0.40159346844E+02 -0.43756986101E+02  0.22849436146E+02  0.63636025204E+02  0.00000000000E+00 0.  1.
         12    1    4    4    0    0  0.14419115506E+02 -0.11264385253E+02  0.73686789718E+02  0.75924569449E+02  0.00000000000E+00 0. -1.
         -5    1    5    5    0  501  0.47997424765E+02 -0.33992680355E+02  0.51271796437E+02  0.78167398650E+02  0.47000000000E+01 0.  1.
         11    1    6    6    0    0 -0.40487503912E+02  0.57078363392E+02  0.63717242608E+02  0.94641769563E+02  0.00000000000E+00 0. -1.
        -12    1    6    6    0    0  0.72823149981E+01  0.27040867838E+02 -0.16363483650E+02  0.32434614878E+02  0.00000000000E+00 0.  1.
</event>
<event>
12    1  0.2576962E-002  0.2492336E+03  0.7818608E-02  0.1113790E+00
         -1   -1    0    0    0  501 -0.00000000000E+00  0.00000000000E+00  0.14796034993E+03  0.14796034993E+03  0.00000000000E+00 0. -1.
          1   -1    0    0  502    0  0.00000000000E+00 -0.00000000000E+00 -0.42144804911E+03  0.42144804911E+03  0.00000000000E+00 0.  1.
          6    2    1    2  502    0 -0.30024681370E+02 -0.18034627610E+03 -0.11996563107E+03  0.27794450539E+03  0.17156670610E+03 0.  0.
         24    2    3    3    0    0 -0.60929522221E+02 -0.53341000921E+02 -0.80495773191E+02  0.14132309860E+03  0.83276525136E+02 0.  0.
         -6    2    1    2    0  501  0.30024681370E+02  0.18034627610E+03 -0.15352206811E+03  0.29146389365E+03  0.16720022462E+03 0.  0.
        -24    2    5    5    0    0 -0.41765796427E+02  0.96789536786E+02 -0.11400361200E+03  0.17433405219E+03  0.79265011339E+02 0.  0.
          5    1    3    3  502    0  0.30904840852E+02 -0.12700527518E+03 -0.39469857881E+02  0.13662140679E+03  0.47000000000E+01 0. -1.
        -13    1    4    4    0    0  0.16276835672E+02 -0.57036015002E+01  0.36021962670E+01  0.17619371939E+02  0.00000000000E+00 0.  1.
         14    1    4    4    0    0 -0.77206357893E+02 -0.47637399421E+02 -0.84097969458E+02  0.12370372666E+03  0.00000000000E+00 0. -1.
         -5    1    5    5    0  501  0.71790477797E+02  0.83556739315E+02 -0.39518456116E+02  0.11712984146E+03  0.47000000000E+01 0.  1.
         11    1    6    6    0    0  0.17357248374E+02  0.44186672160E+01 -0.27653130766E+01  0.18123069484E+02  0.00000000000E+00 0. -1.
        -12    1    6    6    0    0 -0.59123044802E+02  0.92370869570E+02 -0.11123829892E+03  0.15621098271E+03  0.00000000000E+00 0.  1.
</event>
<event>
12    1  0.2576962E-002  0.2020683E+03  0.7818608E-02  0.1148006E+00
          1   -1    0    0  502    0  0.00000000000E+00  0.00000000000E+00  0.12045729442E+04  0.12045729442E+04  0.00000000000E+00 0. -1.
         -1   -1    0    0    0  501 -0.00000000000E+00 -0.00000000000E+00 -0.36114585979E+02  0.36114585979E+02  0.00000000000E+00 0.  1.
          6    2    1    2  502    0 -0.63400335507E+02  0.83022958802E+02  0.73526946082E+03  0.76227330824E+03  0.17183422885E+03 0.  0.
         24    2    3    3    0    0 -0.10665990692E+03  0.80021772168E+02  0.60933668993E+03  0.62900084137E+03  0.81061933032E+02 0.  0.
         -6    2    1    2    0  501  0.63400335507E+02 -0.83022958802E+02  0.43318889738E+03  0.47841422192E+03  0.17411241395E+03 0.  0.
        -24    2    5    5    0    0 -0.16779501070E+02  0.61640625848E+01  0.19825451486E+03  0.21459726820E+03  0.80172236686E+02 0.  0.
          5    1    3    3  502    0  0.43259571414E+02  0.30011866338E+01  0.12593277089E+03  0.13327246686E+03  0.47000000000E+01 0. -1.
        -13    1    4    4    0    0 -0.91454273182E+02  0.35482327585E+02  0.28828316973E+03  0.30451611715E+03  0.00000000000E+00 0.  1.
         14    1    4    4    0    0 -0.15205633739E+02  0.44539444583E+02  0.32105352021E+03  0.32448472423E+03  0.00000000000E+00 0. -1.
         -5    1    5    5    0  501  0.80179836577E+02 -0.89187021387E+02  0.23493438252E+03  0.26381695372E+03  0.47000000000E+01 0.  1.
         11    1    6    6    0    0 -0.14198759346E+02 -0.27845895370E+02  0.31447806495E+02  0.44339183453E+02  0.00000000000E+00 0. -1.
        -12    1    6    6    0    0 -0.25807417233E+01  0.34009957955E+02  0.16680670836E+03  0.17025808475E+03  0.00000000000E+00 0.  1.
</event>
<event>
12    1  0.2576962E-002  0.1897041E+03  0.7818608E-02  0.1158729E+00
          4   -1    0    0  502    0  0.00000000000E+00  0.00000000000E+00  0.17243337433E+04  0.17243337433E+04  0.00000000000E+00 0.  1.
         -4   -1    0    0    0  501 -0.00000000000E+00 -0.00000000000E+00 -0.21457323066E+02  0.21457323066E+02  0.00000000000E+00 0. -1.
          6    2    1    2  502    0 -0.53666500960E+02  0.29319819116E+02  0.74080315919E+03  0.76648285600E+03  0.18699439233E+03 0.  0.
         24    2    3    3    0    0 -0.84295277017E+02 -0.30076740092E+02  0.57691451331E+03  0.58943017622E+03  0.81162016692E+02 0.  0.
         -6    2    1    2    0  501  0.53666500960E+02 -0.29319819116E+02  0.96207326110E+03  0.97930821042E+03  0.17239450731E+03 0.  0.
        -24    2    5    5    0    0  0.20116241440E+02 -0.34653652352E+02  0.23343742163E+03  0.24986572039E+03  0.79588376165E+02 0.  0.
          5    1    3    3  502    0  0.30628776057E+02  0.59396559208E+02  0.16388864588E+03  0.17705267978E+03  0.47000000000E+01 0. -1.
        -11    1    4    4    0    0 -0.60191057608E+02 -0.57443265704E+02  0.43637153279E+03  0.44423282952E+03  0.00000000000E+00 0.  1.
         12    1    4    4    0    0 -0.24104219408E+02  0.27366525612E+02  0.14054298051E+03  0.14519734670E+03  0.00000000000E+00 0. -1.
         -5    1    5    5    0  501  0.33550259520E+02  0.53338332354E+01  0.72863583947E+03  0.72944249002E+03  0.47000000000E+01 0.  1.
         13    1    6    6    0    0  0.13005882403E+02 -0.36679945969E+02  0.23801117591E+03  0.24117191227E+03  0.00000000000E+00 0. -1.
        -14    1    6    6    0    0  0.71103590362E+01  0.20262936170E+01 -0.45737542778E+01  0.86938081207E+01  0.00000000000E+00 0.  1.
</event>
<event>
12    1  0.2576962E-002  0.1767167E+03  0.7818608E-02  0.1171019E+00
          1   -1    0    0  502    0  0.00000000000E+00  0.00000000000E+00  0.69906829601E+03  0.69906829601E+03  0.00000000000E+00 0. -1.
         -1   -1    0    0    0  501 -0.00000000000E+00 -0.00000000000E+00 -0.45998742638E+02  0.45998742638E+02  0.00000000000E+00 0.  1.
          6    2    1    2  502    0  0.57601374377E+02 -0.21202385451E+02  0.25391461530E+03  0.30608268364E+03  0.15951964733E+03 0.  0.
         24    2    3    3    0    0  0.54955746394E+02  0.11218471197E+02  0.25731937311E+03  0.27304038244E+03  0.72054163690E+02 0.  0.
         -6    2    1    2    0  501 -0.57601374377E+02  0.21202385451E+02  0.39915493807E+03  0.43898435501E+03  0.17209049908E+03 0.  0.
        -24    2    5    5    0    0 -0.92323476259E+02  0.35508242529E+01  0.18443861779E+03  0.22071298683E+03  0.78488127760E+02 0.  0.
          5    1    3    3  502    0  0.26456279826E+01 -0.32420856648E+02 -0.34047578125E+01  0.33042301206E+02  0.47000000000E+01 0. -1.
        -11    1    4    4    0    0  0.65873285061E+02  0.19697927434E+02  0.15211802711E+03  0.16693469442E+03  0.00000000000E+00 0.  1.
         12    1    4    4    0    0 -0.10917538667E+02 -0.84794562364E+01  0.10520134600E+03  0.10610568802E+03  0.00000000000E+00 0. -1.
         -5    1    5    5    0  501  0.34722101883E+02  0.17651561198E+02  0.21471632028E+03  0.21827136818E+03  0.47000000000E+01 0.  1.
         11    1    6    6    0    0 -0.97303510033E+01 -0.24373898357E+02  0.82508396628E+02  0.86581765782E+02  0.00000000000E+00 0. -1.
        -12    1    6    6    0    0 -0.82593125256E+02  0.27924722610E+02  0.10193022116E+03  0.13413122105E+03  0.00000000000E+00 0.  1.
</event>
<event>
12    1  0.2576962E-002  0.1808913E+03  0.7818608E-02  0.1166943E+00
          1   -1    0    0  502    0  0.00000000000E+00  0.00000000000E+00  0.30650908076E+03  0.30650908076E+03  0.00000000000E+00 0. -1.
         -1   -1    0    0    0  501 -0.00000000000E+00 -0.00000000000E+00 -0.17769097953E+03  0.17769097953E+03  0.00000000000E+00 0.  1.
          6    2    1    2  502    0  0.23950493166E+02  0.50089451475E+02  0.21725839382E+03  0.28236483601E+03  0.17159869363E+03 0.  0.
         24    2    3    3    0    0 -0.26954095520E+02  0.58015384059E+02  0.64440828829E+02  0.12102855451E+03  0.80018638662E+02 0.  0.
         -6    2    1    2    0  501 -0.23950493166E+02 -0.50089451475E+02 -0.88440292589E+02  0.20183522428E+03  0.17272287960E+03 0.  0.
        -24    2    5    5    0    0 -0.53780460635E+02 -0.75326926998E+02 -0.21173542004E+02  0.12390151615E+03  0.79603912876E+02 0.  0.
          5    1    3    3  502    0  0.50904588686E+02 -0.79259325844E+01  0.15281756500E+03  0.16133628150E+03  0.47000000000E+01 0. -1.
        -11    1    4    4    0    0 -0.51524014311E+02  0.50471205941E+02  0.62178250716E+02  0.95227105080E+02  0.00000000000E+00 0.  1.
         12    1    4    4    0    0  0.24569918791E+02  0.75441781184E+01  0.22625781128E+01  0.25801449428E+02  0.00000000000E+00 0. -1.
         -5    1    5    5    0  501  0.29829967468E+02  0.25237475523E+02 -0.67266750586E+02  0.77933708139E+02  0.47000000000E+01 0.  1.
         13    1    6    6    0    0 -0.20138805405E+02 -0.69287405527E+02  0.15467043094E+02  0.73793939249E+02  0.00000000000E+00 0. -1.
        -14    1    6    6    0    0 -0.33641655230E+02 -0.60395214715E+01 -0.36640585097E+02  0.50107576897E+02  0.00000000000E+00 0.  1.
</event>
<event>
12    1  0.2576962E-002  0.1731044E+03  0.7818608E-02  0.1174649E+00
         -1   -1    0    0    0  501 -0.00000000000E+00  0.00000000000E+00  0.26351083054E+04  0.26351083054E+04  0.00000000000E+00 0. -1.
          1   -1    0    0  502    0  0.00000000000E+00 -0.00000000000E+00 -0.11705952410E+02  0.11705952410E+02  0.00000000000E+00 0.  1.
          6    2    1    2  502    0 -0.77147302980E+01  0.49744740710E+01  0.15379090501E+04  0.15476590285E+04  0.17320496384E+03 0.  0.
         24    2    3    3    0    0 -0.48628449992E+02 -0.31959044126E+02  0.12823770295E+04  0.12862078461E+04  0.80334742167E+02 0.  0.
         -6    2    1    2    0  501  0.77147302980E+01 -0.49744740710E+01  0.10854933029E+04  0.10991552294E+04  0.17251737640E+03 0.  0.
        -24    2    5    5    0    0 -0.11435447315E+02  0.40458111717E+02  0.97071465743E+03  0.97414692321E+03  0.70054647192E+02 0.  0.
          5    1    3    3  502    0  0.40913719694E+02  0.36933518197E+02  0.25553202061E+03  0.26145118241E+03  0.47000000000E+01 0. -1.
        -11    1    4    4    0    0  0.91740004180E+01 -0.35154336414E+02  0.31255133647E+03  0.31465588757E+03  0.00000000000E+00 0.  1.
         12    1    4    4    0    0 -0.57802450410E+02  0.31952922880E+01  0.96982569303E+03  0.97155195848E+03  0.00000000000E+00 0. -1.
         -5    1    5    5    0  501  0.19150177613E+02 -0.45432585788E+02  0.11477864550E+03  0.12500830619E+03  0.47000000000E+01 0.  1.
         13    1    6    6    0    0 -0.40006406432E+02  0.13197852959E+02  0.52330780251E+03  0.52500071624E+03  0.00000000000E+00 0. -1.
        -14    1    6    6    0    0  0.28570959118E+02  0.27260258758E+02  0.44740685492E+03  0.44914620697E+03  0.00000000000E+00 0.  1.
</event>
<event>
12    1  0.2576962E-002  0.2076691E+03  0.7818608E-02  0.1143425E+00
         -2   -1    0    0    0  501 -0.00000000000E+00  0.00000000000E+00  0.16608963828E+03  0.16608963828E+03  0.00000000000E+00 0. -1.
          2   -1    0    0  502    0  0.00000000000E+00 -0.00000000000E+00 -0.31122800643E+03  0.31122800643E+03  0.00000000000E+00 0.  1.
          6    2    1    2  502    0 -0.10590181674E+03  0.89347022580E+01 -0.17011486782E+03  0.26954280547E+03  0.18005341440E+03 0.  0.
         24    2    3    3    0    0 -0.12327995413E+02  0.51744504433E+02 -0.12119993934E+03  0.15550991799E+03  0.81635997486E+02 0.  0.
         -6    2    1    2    0  501  0.10590181674E+03 -0.89347022580E+01  0.24976499670E+02  0.20777483924E+03  0.17678103572E+03 0.  0.
        -24    2    5    5    0    0  0.83238326841E+02  0.34960803993E+02  0.72225398473E+02  0.13925478610E+03  0.77617719599E+02 0.  0.
          5    1    3    3  502    0 -0.93573821332E+02 -0.42809802175E+02 -0.48914928474E+02  0.11403288749E+03  0.47000000000E+01 0. -1.
        -11    1    4    4    0    0 -0.20419250965E+02 -0.61920001942E+01 -0.82868185580E+02  0.85571156693E+02  0.00000000000E+00 0.  1.
         12    1    4    4    0    0  0.80912555519E+01  0.57936504627E+02 -0.38331753764E+02  0.69938761295E+02  0.00000000000E+00 0. -1.
         -5    1    5    5    0  501  0.22663489904E+02 -0.43895506251E+02 -0.47248898803E+02  0.68520053136E+02  0.47000000000E+01 0.  1.
         13    1    6    6    0    0 -0.41213160104E+01 -0.10539419587E+02  0.30043229097E+02  0.32103897357E+02  0.00000000000E+00 0. -1.
        -14    1    6    6    0    0  0.87359642852E+02  0.45500223581E+02  0.42182169376E+02  0.10715088874E+03  0.00000000000E+00 0.  1.
</event>
<event>
12    1  0.2576962E-002  0.1804595E+03  0.7818608E-02  0.1167359E+00
         -2   -1    0    0    0  501 -0.00000000000E+00  0.00000000000E+00  0.41546259704E+02  0.41546259704E+02  0.00000000000E+00 0.  1.
          2   -1    0    0  502    0  0.00000000000E+00 -0.00000000000E+00 -0.10076289752E+04  0.10076289752E+04  0.00000000000E+00 0. -1.
          6    2    1    2  502    0 -0.39488273450E+02 -0.35187434955E+02 -0.23698345753E+03  0.29820846665E+03  0.17311744892E+03 0.  0.
         24    2    3    3    0    0 -0.50981202317E+02  0.39366146731E+02 -0.16414353363E+03  0.19324147913E+03  0.79059427808E+02 0.  0.
         -6    2    1    2    0  501  0.39488273450E+02  0.35187434955E+02 -0.72909925792E+03  0.75096676820E+03  0.17195313237E+03 0.  0.
        -24    2    5    5    0    0  0.87392682696E+02  0.31999531141E+02 -0.61330059003E+03  0.62552189329E+03  0.80489591128E+02 0.  0.
          5    1    3    3  502    0  0.11492928867E+02 -0.74553581685E+02 -0.72839923898E+02  0.10496698752E+03  0.47000000000E+01 0. -1.
        -13    1    4    4    0    0 -0.61369746242E+02  0.12835845401E+02 -0.14743323338E+03  0.16021099521E+03  0.00000000000E+00 0.  1.
         14    1    4    4    0    0  0.10388543926E+02  0.26530301329E+02 -0.16710300250E+02  0.33030483920E+02  0.00000000000E+00 0. -1.
         -5    1    5    5    0  501 -0.47904409246E+02  0.31879038133E+01 -0.11579866789E+03  0.12544487491E+03  0.47000000000E+01 0.  1.
         13    1    6    6    0    0  0.21663984708E+02  0.21154373520E+02 -0.41949899484E+03  0.42059034989E+03  0.00000000000E+00 0. -1.
        -14    1    6    6    0    0  0.65728697988E+02  0.10845157622E+02 -0.19380159519E+03  0.20493154340E+03  0.00000000000E+00 0.  1.
</event>
<event>
12    1  0.2576962E-002  0.1907149E+03  0.7818608E-02  0.1157818E+00
         -2   -1    0    0    0  501 -0.00000000000E+00  0.00000000000E+00  0.68906378748E+02  0.68906378748E+02  0.00000000000E+00 0.  1.
          2   -1    0    0  502    0  0.00000000000E+00 -0.00000000000E+00 -0.55506000559E+03  0.55506000559E+03  0.00000000000E+00 0. -1.
          6    2    1    2  502    0  0.75795764928E+02  0.26233550087E+02 -0.31188638834E+03  0.36546077295E+03  0.17278674776E+03 0.  0.
         24    2    3    3    0    0  0.40677671342E+02 -0.41018743086E+02 -0.10279741584E+03  0.14298281931E+03  0.80867593539E+02 0.  0.
         -6    2    1    2    0  501 -0.75795764928E+02 -0.26233550087E+02 -0.17426723849E+03  0.25850561138E+03  0.17327112735E+03 0.  0.
        -24    2    5    5    0    0 -0.24505093702E+02 -0.36409992638E+02 -0.14485063511E+02  0.90319029335E+02  0.77598471723E+02 0.  0.
          5    1    3    3  502    0  0.35118093586E+02  0.67252293174E+02 -0.20908897251E+03  0.22247795364E+03  0.47000000000E+01 0. -1.
        -13    1    4    4    0    0  0.62211130177E+02 -0.12611654375E+02 -0.70707821102E+02  0.95020389964E+02  0.00000000000E+00 0.  1.
         14    1    4    4    0    0 -0.21533458835E+02 -0.28407088712E+02 -0.32089594737E+02  0.47962429347E+02  0.00000000000E+00 0. -1.
         -5    1    5    5    0  501 -0.51290671226E+02  0.10176442551E+02 -0.15978217498E+03  0.16818658204E+03  0.47000000000E+01 0.  1.
         11    1    6    6    0    0  0.46948708784E+01 -0.13058131196E+02 -0.41781795244E+02  0.44025844873E+02  0.00000000000E+00 0. -1.
        -12    1    6    6    0    0 -0.29199964580E+02 -0.23351861442E+02  0.27296731734E+02  0.46293184462E+02  0.00000000000E+00 0.  1.
</event>
<event>
12    1  0.2576962E-002  0.1798335E+03  0.7818608E-02  0.1167964E+00
         -1   -1    0    0    0  501 -0.00000000000E+00  0.00000000000E+00  0.12919999350E+03  0.12919999350E+03  0.00000000000E+00 0.  1.
          1   -1    0    0  502    0  0.00000000000E+00 -0.00000000000E+00 -0.61808373187E+03  0.61808373187E+03  0.00000000000E+00 0. -1.
          6    2    1    2  502    0 -0.31368631670E+02  0.49861590803E+02  0.44687271272E+02  0.18368144463E+03  0.16814205779E+03 0.  0.
         24    2    3    3    0    0  0.95400160951E+01 -0.94822980586E+01  0.71415678126E+02  0.10666383405E+03  0.78077195957E+02 0.  0.
         -6    2    1    2    0  501  0.31368631670E+02 -0.49861590803E+02 -0.53357100964E+03  0.56360228074E+03  0.17169548402E+03 0.  0.
        -24    2    5    5    0    0  0.75895820349E+02 -0.27176988672E+02 -0.23752932050E+03  0.26333567685E+03  0.80166927979E+02 0.  0.
          5    1    3    3  502    0 -0.40908647765E+02  0.59343888862E+02 -0.26728406854E+02  0.77017610584E+02  0.47000000000E+01 0. -1.
        -13    1    4    4    0    0 -0.25438771540E+02 -0.26563797842E+02  0.19067509157E+02  0.41428690043E+02  0.00000000000E+00 0.  1.
         14    1    4    4    0    0  0.34978787635E+02  0.17081499783E+02  0.52348168970E+02  0.65235144008E+02  0.00000000000E+00 0. -1.
         -5    1    5    5    0  501 -0.44527188680E+02 -0.22684602132E+02 -0.29604168914E+03  0.30026660389E+03  0.47000000000E+01 0.  1.
         11    1    6    6    0    0  0.80973649795E+02 -0.42832408615E+02 -0.22408016309E+03  0.24208111591E+03  0.00000000000E+00 0. -1.
        -12    1    6    6    0    0 -0.50778294460E+01  0.15655419943E+02 -0.13449157409E+02  0.21254560934E+02  0.00000000000E+00 0.  1.
</event>
<event>
12    1  0.2576962E-002  0.2221218E+03  0.7818608E-02  0.1132311E+00
         -1   -1    0    0    0  501 -0.00000000000E+00  0.00000000000E+00  0.13026617647E+03  0.13026617647E+03  0.00000000000E+00 0.  1.
          1   -1    0    0  502    0  0.00000000000E+00 -0.00000000000E+00 -0.37881065434E+03  0.37881065434E+03  0.00000000000E+00 0. -1.
          6    2    1    2  502    0 -0.11467414757E+03  0.82819298202E+02 -0.12789740086E+03  0.25755642286E+03  0.17311374738E+03 0.  0.
         24    2    3    3    0    0 -0.55342231631E+02 -0.11331568040E+02 -0.15849051462E+02  0.99564067135E+02  0.80440313252E+02 0.  0.
         -6    2    1    2    0  501  0.11467414757E+03 -0.82819298202E+02 -0.12064707701E+03  0.25152040795E+03  0.16940366628E+03 0.  0.
        -24    2    5    5    0    0  0.11013007020E+03 -0.79494488361E+02 -0.15224892337E+03  0.21907861865E+03  0.79797872431E+02 0.  0.
          5    1    3    3  502    0 -0.59331915942E+02  0.94150866242E+02 -0.11204834940E+03  0.15799235572E+03  0.47000000000E+01 0. -1.
        -13    1    4    4    0    0 -0.72656652412E+02 -0.79922546023E+01  0.37613027134E+01  0.73191616128E+02  0.00000000000E+00 0.  1.
         14    1    4    4    0    0  0.17314420781E+02 -0.33393134379E+01 -0.19610354175E+02  0.26372451007E+02  0.00000000000E+00 0. -1.
         -5    1    5    5    0  501  0.45440773771E+01 -0.33248098404E+01  0.31601846355E+02  0.32441789296E+02  0.47000000000E+01 0.  1.
         13    1    6    6    0    0 -0.92756878366E+01  0.50802315378E+01 -0.15756254455E+02  0.18976477327E+02  0.00000000000E+00 0. -1.
        -14    1    6    6    0    0  0.11940575803E+03 -0.84574719899E+02 -0.13649266891E+03  0.20010214133E+03  0.00000000000E+00 0.  1.
</event>
<event>
12    1  0.2576962E-002  0.2101340E+03  0.7818608E-02  0.1141460E+00
          2   -1    0    0  502    0  0.00000000000E+00  0.00000000000E+00  0.20421392210E+04  0.20421392210E+04  0.00000000000E+00 0. -1.
         -2   -1    0    0    0  501 -0.00000000000E+00 -0.00000000000E+00 -0.21733410341E+02  0.21733410341E+02  0.00000000000E+00 0.  1.
          6    2    1    2  502    0  0.10043331775E+03 -0.74761116805E+02  0.10959187183E+04  0.11164131185E+04  0.17223338252E+03 0.  0.
         24    2    3    3    0    0  0.72186076381E+02 -0.62389628435E+02  0.38211948649E+03  0.40193261229E+03  0.80194934415E+02 0.  0.
         -6    2    1    2    0  501 -0.10043331775E+03  0.74761116805E+02  0.92448709237E+03  0.94745951289E+03  0.16530900977E+03 0.  0.
        -24    2    5    5    0    0 -0.11531869973E+03  0.91974943650E+02  0.62373937338E+03  0.64581539989E+03  0.79176587837E+02 0.  0.
          5    1    3    3  502    0  0.28247241364E+02 -0.12371488370E+02  0.71379923181E+03  0.71448050617E+03  0.47000000000E+01 0. -1.
        -11    1    4    4    0    0  0.66995912048E+02 -0.22378329590E+02  0.14367981090E+03  0.16010349754E+03  0.00000000000E+00 0.  1.
         12    1    4    4    0    0  0.51901643336E+01 -0.40011298844E+02  0.23843967560E+03  0.24182911475E+03  0.00000000000E+00 0. -1.
         -5    1    5    5    0  501  0.14885381985E+02 -0.17213826845E+02  0.30074771899E+03  0.30164411300E+03  0.47000000000E+01 0.  1.
         11    1    6    6    0    0 -0.30596385513E+02  0.52411828783E+02  0.37888481127E+03  0.38371452776E+03  0.00000000000E+00 0. -1.
        -12    1    6    6    0    0 -0.84722314218E+02  0.39563114867E+02  0.24485456211E+03  0.26210087212E+03  0.00000000000E+00 0.  1.
</event>
<event>
12    1  0.2576962E-002  0.1727607E+03  0.7818608E-02  0.1174999E+00
          2   -1    0    0  502    0  0.00000000000E+00  0.00000000000E+00  0.34356920841E+03  0.34356920841E+03  0.00000000000E+00 0. -1.
         -2   -1    0    0    0  501 -0.00000000000E+00 -0.00000000000E+00 -0.30830916540E+03  0.30830916540E+03  0.00000000000E+00 0.  1.
          6    2    1    2  502    0  0.37279355935E+02 -0.16958897074E+02  0.29367261326E+03  0.33854136548E+03  0.16336859488E+03 0.  0.
         24    2    3    3    0    0  0.66049900328E+02 -0.45299878277E+02  0.26717546231E+03  0.29001153498E+03  0.79431067292E+02 0.  0.
         -6    2    1    2    0  501 -0.37279355935E+02  0.16958897074E+02 -0.25841257024E+03  0.31333700834E+03  0.17241133885E+03 0.  0.
        -24    2    5    5    0    0  0.11588287805E+02 -0.43838939510E+02 -0.18066299445E+03  0.20310312029E+03  0.80966776375E+02 0.  0.
          5    1    3    3  502    0 -0.28770544394E+02  0.28340981203E+02  0.26497150942E+02  0.48529830499E+02  0.47000000000E+01 0. -1.
        -11    1    4    4    0    0  0.38454591756E+02 -0.37036224922E+02  0.57881654526E+02  0.78744672926E+02  0.00000000000E+00 0.  1.
         12    1    4    4    0    0  0.27595308572E+02 -0.82636533554E+01  0.20929380779E+03  0.21126686205E+03  0.00000000000E+00 0. -1.
         -5    1    5    5    0  501 -0.48867643740E+02  0.60797836584E+02 -0.77749575797E+02  0.11023388805E+03  0.47000000000E+01 0.  1.
         11    1    6    6    0    0  0.29751804205E+02  0.13262846162E+02 -0.55945077755E+02  0.64737351404E+02  0.00000000000E+00 0. -1.
        -12    1    6    6    0    0 -0.18163516400E+02 -0.57101785672E+02 -0.12471791669E+03  0.13836576888E+03  0.00000000000E+00 0.  1.
</event>
<event>
12    1  0.2576962E-002  0.1775128E+03  0.7818608E-02  0.1170232E+00
          2   -1    0    0  502    0  0.00000000000E+00  0.00000000000E+00  0.52544277285E+03  0.52544277285E+03  0.00000000000E+00 0. -1.
         -2   -1    0    0    0  501 -0.00000000000E+00 -0.00000000000E+00 -0.61621182312E+02  0.61621182312E+02  0.00000000000E+00 0.  1.
          6    2    1    2  502    0 -0.28868167688E+02 -0.28768602154E+02  0.18323205342E+03  0.25476957508E+03  0.17225721295E+03 0.  0.
         24    2    3    3    0    0 -0.57388248550E+02 -0.34893608814E+01  0.19130734980E+03  0.21553011200E+03  0.80926759363E+02 0.  0.
         -6    2    1    2    0  501  0.28868167688E+02  0.28768602154E+02  0.28058953712E+03  0.33229438008E+03  0.17328607305E+03 0.  0.
        -24    2    5    5    0    0 -0.10346208441E+02  0.74735054806E+02  0.22353283473E+03  0.24905833408E+03  0.79816997746E+02 0.  0.
          5    1    3    3  502    0  0.28520080862E+02 -0.25279241273E+02 -0.80752963798E+01  0.39239463087E+02  0.47000000000E+01 0. -1.
        -11    1    4    4    0    0  0.75251899210E+01  0.10306332841E+02 -0.29067136433E+00  0.12764539546E+02  0.00000000000E+00 0.  1.
         12    1    4    4    0    0 -0.64913438471E+02 -0.13795693722E+02  0.19159802116E+03  0.20276557245E+03  0.00000000000E+00 0. -1.
         -5    1    5    5    0  501  0.39214376128E+02 -0.45966452652E+02  0.57056702393E+02  0.83236045993E+02  0.47000000000E+01 0.  1.
         11    1    6    6    0    0 -0.43466287692E+02  0.31512965568E+02  0.89227864245E+02  0.10413451360E+03  0.00000000000E+00 0. -1.
        -12    1    6    6    0    0  0.33120079252E+02  0.43222089238E+02  0.13430497048E+03  0.14492382049E+03  0.00000000000E+00 0.  1.
</event>
<event>
12    1  0.2576962E-002  0.1723749E+03  0.7818608E-02  0.1175394E+00
         -1   -1    0    0    0  501 -0.00000000000E+00  0.00000000000E+00  0.25436124492E+02  0.25436124492E+02  0.00000000000E+00 0. -1.
          1   -1    0    0  502    0  0.00000000000E+00 -0.00000000000E+00 -0.22384963462E+04  0.22384963462E+04  0.00000000000E+00 0.  1.
          6    2    1    2  502    0  0.52832235425E+01  0.12777797923E+02 -0.18891151235E+04  0.18969588796E+04  0.17177268836E+03 0.  0.
         24    2    3    3    0    0  0.32748938040E+02  0.45546247872E+02 -0.17076184688E+04  0.17104347191E+04  0.80493103044E+02 0.  0.
         -6    2    1    2    0  501 -0.52832235425E+01 -0.12777797923E+02 -0.32394509821E+03  0.36697359110E+03  0.17186624258E+03 0.  0.
        -24    2    5    5    0    0 -0.61310605856E+02 -0.23979143247E+01 -0.12947518132E+03  0.16427320105E+03  0.80356217065E+02 0.  0.
          5    1    3    3  502    0 -0.27465714497E+02 -0.32768449949E+02 -0.18149665466E+03  0.18652416047E+03  0.47000000000E+01 0. -1.
        -13    1    4    4    0    0  0.61299534129E+01  0.36632908215E+02 -0.27005870028E+03  0.27260089488E+03  0.00000000000E+00 0.  1.
         14    1    4    4    0    0  0.26618984627E+02  0.89133396570E+01 -0.14375597685E+04  0.14378338242E+04  0.00000000000E+00 0. -1.
         -5    1    5    5    0  501  0.56027382314E+02 -0.10379883598E+02 -0.19446991689E+03  0.20270039005E+03  0.47000000000E+01 0.  1.
         11    1    6    6    0    0 -0.40745178501E+02 -0.30905007308E+02 -0.31212414180E+02  0.59912468208E+02  0.00000000000E+00 0. -1.
        -12    1    6    6    0    0 -0.20565427355E+02  0.28507092984E+02 -0.98262767144E+02  0.10436073284E+03  0.00000000000E+00 0.  1.
</event>
<event>
12    1  0.2576962E-002  0.4596850E+03  0.7818608E-02  0.1024873E+00
         -2   -1    0    0    0  501 -0.00000000000E+00  0.00000000000E+00  0.99652345878E+02  0.99652345878E+02  0.00000000000E+00 0.  1.
          2   -1    0    0  502    0  0.00000000000E+00 -0.00000000000E+00 -0.24428064367E+04  0.24428064367E+04  0.00000000000E+00 0. -1.
          6    2    1    2  502    0 -0.25021413997E+03  0.34363204566E+03 -0.16321833821E+04  0.16955378198E+04  0.17359667929E+03 0.  0.
         24    2    3    3    0    0 -0.11115872440E+03  0.15836124487E+03 -0.54291031314E+03  0.58189533367E+03  0.80100095852E+02 0.  0.
         -6    2    1    2    0  501  0.25021413997E+03 -0.34363204566E+03 -0.71097070875E+03  0.84692096276E+03  0.17636799548E+03 0.  0.
        -24    2    5    5    0    0  0.23590839989E+03 -0.22390656094E+03 -0.57274752800E+03  0.66343640323E+03  0.79506032047E+02 0.  0.
          5    1    3    3  502    0 -0.13905541556E+03  0.18527080079E+03 -0.10892730690E+04  0.11136424862E+04  0.47000000000E+01 0. -1.
        -11    1    4    4    0    0 -0.11020723723E+03  0.13381451515E+03 -0.52062465531E+03  0.54872761123E+03  0.00000000000E+00 0.  1.
         12    1    4    4    0    0 -0.95148716823E+00  0.24546729718E+02 -0.22285657823E+02  0.33167722447E+02  0.00000000000E+00 0. -1.
         -5    1    5    5    0  501  0.14305740071E+02 -0.11972548472E+03 -0.13822318075E+03  0.18348455954E+03  0.47000000000E+01 0.  1.
         11    1    6    6    0    0  0.34435650401E+02 -0.19507924032E+02 -0.12926078862E+03  0.13518403971E+03  0.00000000000E+00 0. -1.
        -12    1    6    6    0    0  0.20147274949E+03 -0.20439863690E+03 -0.44348673938E+03  0.52825236352E+03  0.00000000000E+00 0.  1.
</event>
<event>
12    1  0.2576962E-002  0.1839284E+03  0.7818608E-02  0.1164054E+00
         -2   -1    0    0    0  501 -0.00000000000E+00  0.00000000000E+00  0.56859884932E+02  0.56859884932E+02  0.00000000000E+00 0.  1.
          2   -1    0    0  502    0  0.00000000000E+00 -0.00000000000E+00 -0.65703638131E+03  0.65703638131E+03  0.00000000000E+00 0. -1.
          6    2    1    2  502    0 -0.71730318171E+02 -0.35906625774E+02 -0.41783597046E+03  0.45894373953E+03  0.17206956014E+03 0.  0.
         24    2    3    3    0    0 -0.11029748237E+03 -0.41323119482E+02 -0.37323913840E+03  0.39954902607E+03  0.80366877351E+02 0.  0.
         -6    2    1    2    0  501  0.71730318171E+02  0.35906625774E+02 -0.18234052592E+03  0.25495252671E+03  0.15911693550E+03 0.  0.
        -24    2    5    5    0    0  0.90805288042E+02  0.72721548593E+01 -0.18225154316E+03  0.22022666721E+03  0.83580352926E+02 0.  0.
          5    1    3    3  502    0  0.38567164194E+02  0.54164937088E+01 -0.44596832052E+02  0.59394713461E+02  0.47000000000E+01 0. -1.
        -13    1    4    4    0    0 -0.46745917792E+02 -0.13512365113E+02 -0.53280348559E+02  0.72156499248E+02  0.00000000000E+00 0.  1.
         14    1    4    4    0    0 -0.63551564573E+02 -0.27810754369E+02 -0.31995878984E+03  0.32739252682E+03  0.00000000000E+00 0. -1.
         -5    1    5    5    0  501 -0.19074969871E+02  0.28634470914E+02 -0.88982763655E-01  0.34725859501E+02  0.47000000000E+01 0.  1.
         11    1    6    6    0    0  0.18525197846E+02 -0.10926098443E+02 -0.12339328907E+03  0.12525360821E+03  0.00000000000E+00 0. -1.
        -12    1    6    6    0    0  0.72280090196E+02  0.18198253302E+02 -0.58858254091E+02  0.94973059004E+02  0.00000000000E+00 0.  1.
</event>
<event>
12    1  0.2576962E-002  0.2308801E+03  0.7818608E-02  0.1126022E+00
          1   -1    0    0  502    0  0.00000000000E+00  0.00000000000E+00  0.90767584092E+03  0.90767584092E+03  0.00000000000E+00 0.  1.
         -1   -1    0    0    0  501 -0.00000000000E+00 -0.00000000000E+00 -0.15664764712E+03  0.15664764712E+03  0.00000000000E+00 0. -1.
          6    2    1    2  502    0 -0.14052089538E+01  0.15417644405E+03  0.79590408194E+03  0.82855460356E+03  0.17107621963E+03 0.  0.
         24    2    3    3    0    0  0.36843713802E+02  0.13923212631E+03  0.43145096637E+03  0.46176518690E+03  0.79587104545E+02 0.  0.
         -6    2    1    2    0  501  0.14052089538E+01 -0.15417644405E+03 -0.44875888141E+02  0.23576888448E+03  0.17262899827E+03 0.  0.
        -24    2    5    5    0    0  0.66150560170E+02 -0.69305604114E+02 -0.20974242366E+02  0.12627733848E+03  0.79541712317E+02 0.  0.
          5    1    3    3  502    0 -0.38248922756E+02  0.14944317738E+02  0.36445311557E+03  0.36678941666E+03  0.47000000000E+01 0. -1.
        -13    1    4    4    0    0 -0.12551993227E+01  0.72975590750E+02  0.30832900478E+03  0.31684978706E+03  0.00000000000E+00 0.  1.
         14    1    4    4    0    0  0.38098913125E+02  0.66256535564E+02  0.12312196158E+03  0.14491539984E+03  0.00000000000E+00 0. -1.
         -5    1    5    5    0  501 -0.64745351216E+02 -0.84870839937E+02 -0.23901645775E+02  0.10949154600E+03  0.47000000000E+01 0.  1.
         13    1    6    6    0    0  0.93439712295E+01 -0.66824343258E+02 -0.79234627394E+01  0.67938088816E+02  0.00000000000E+00 0. -1.
        -14    1    6    6    0    0  0.56806588940E+02 -0.24812608565E+01 -0.13050779627E+02  0.58339249664E+02  0.00000000000E+00 0.  1.
</event>
<event>
12    1  0.2576962E-002  0.1976384E+03  0.7818608E-02  0.1151747E+00
         -3   -1    0    0    0  501 -0.00000000000E+00  0.00000000000E+00  0.54015782780E+03  0.54015782780E+03  0.00000000000E+00 0. -1.
          3   -1    0    0  502    0  0.00000000000E+00 -0.00000000000E+00 -0.14323005471E+03  0.14323005471E+03  0.00000000000E+00 0.  1.
          6    2    1    2  502    0 -0.10014633427E+02  0.98194421677E+02 -0.41801714186E+02  0.20233153334E+03  0.17160486224E+03 0.  0.
         24    2    3    3    0    0  0.22992362844E+02  0.10110308521E+03 -0.78718888440E+02  0.15250292829E+03  0.79435490501E+02 0.  0.
         -6    2    1    2    0  501  0.10014633427E+02 -0.98194421677E+02  0.43872948728E+03  0.48105634918E+03  0.17084850232E+03 0.  0.
        -24    2    5    5    0    0  0.50281245762E+02 -0.44114965045E+01  0.18925088103E+03  0.21146721346E+03  0.79717133791E+02 0.  0.
          5    1    3    3  502    0 -0.33006996271E+02 -0.29086635357E+01  0.36917174255E+02  0.49828605051E+02  0.47000000000E+01 0. -1.
        -11    1    4    4    0    0 -0.69070858614E+01  0.83575317341E+02 -0.23124630106E+02  0.86990171981E+02  0.00000000000E+00 0.  1.
         12    1    4    4    0    0  0.29899448705E+02  0.17527767871E+02 -0.55594258334E+02  0.65512756309E+02  0.00000000000E+00 0. -1.
         -5    1    5    5    0  501 -0.40266612335E+02 -0.93782925172E+02  0.24947860625E+03  0.26958913572E+03  0.47000000000E+01 0.  1.
         11    1    6    6    0    0 -0.13619258155E+02 -0.95975898895E+01  0.10112628943E+03  0.10248963040E+03  0.00000000000E+00 0. -1.
        -12    1    6    6    0    0  0.63900503917E+02  0.51860933851E+01  0.88124591595E+02  0.10897758306E+03  0.00000000000E+00 0.  1.
</event>
<event>
12    1  0.2576962E-002  0.1761814E+03  0.7818608E-02  0.1171551E+00
          2   -1    0    0  502    0  0.00000000000E+00  0.00000000000E+00  0.25721112494E+04  0.25721112494E+04  0.00000000000E+00 0.  1.
         -2   -1    0    0    0  501 -0.00000000000E+00 -0.00000000000E+00 -0.12462447414E+02  0.12462447414E+02  0.00000000000E+00 0. -1.
          6    2    1    2  502    0  0.25017054259E+02 -0.14959034019E+02  0.10312136034E+04  0.10456942999E+04  0.17095451817E+03 0.  0.
         24    2    3    3    0    0  0.26670907323E+02 -0.62839457887E+02  0.90692098382E+03  0.91240508239E+03  0.72919330181E+02 0.  0.
         -6    2    1    2    0  501 -0.25017054259E+02  0.14959034019E+02  0.15284351985E+04  0.15388793969E+04  0.17659562933E+03 0.  0.
        -24    2    5    5    0    0 -0.85643190859E+02  0.60103647993E+01  0.10493265943E+04  0.10558444584E+04  0.79689009488E+02 0.  0.
          5    1    3    3  502    0 -0.16538530640E+01  0.47880423868E+02  0.12429261958E+03  0.13328921750E+03  0.47000000000E+01 0. -1.
        -13    1    4    4    0    0 -0.23205209084E+02 -0.37055515001E+02  0.38837642543E+03  0.39082968253E+03  0.00000000000E+00 0.  1.
         14    1    4    4    0    0  0.49876116407E+02 -0.25783942886E+02  0.51854455840E+03  0.52157539986E+03  0.00000000000E+00 0. -1.
         -5    1    5    5    0  501  0.60626136600E+02  0.89486692200E+01  0.47910860423E+03  0.48303493845E+03  0.47000000000E+01 0.  1.
         13    1    6    6    0    0  0.15341467571E+02  0.99780134160E+00  0.10481878150E+03  0.10594023405E+03  0.00000000000E+00 0. -1.
        -14    1    6    6    0    0 -0.10098465843E+03  0.50125634577E+01  0.94450781281E+03  0.94990422438E+03  0.00000000000E+00 0.  1.
</event>
<event>
12    1  0.2576962E-002  0.5413479E+03  0.7818608E-02  0.1003517E+00
         -2   -1    0    0    0  501 -0.00000000000E+00  0.00000000000E+00  0.13233802240E+03  0.13233802240E+03  0.00000000000E+00 0.  1.
          2   -1    0    0  502    0  0.00000000000E+00 -0.00000000000E+00 -0.23877599301E+04  0.23877599301E+04  0.00000000000E+00 0. -1.
          6    2    1    2  502    0  0.27661502608E+03  0.43084601416E+03 -0.14643822857E+04  0.15607444789E+04  0.17135836476E+03 0.  0.
         24    2    3    3    0    0  0.97123346179E+02  0.16875840248E+03 -0.77482874820E+03  0.80152557080E+03  0.64585670361E+02 0.  0.
         -6    2    1    2    0  501 -0.27661502608E+03 -0.43084601416E+03 -0.79103962200E+03  0.95935347360E+03  0.18019778900E+03 0.  0.
        -24    2    5    5    0    0 -0.12680512871E+03 -0.16975721392E+03 -0.22778625265E+03  0.32069330180E+03  0.77849627982E+02 0.  0.
          5    1    3    3  502    0  0.17949167990E+03  0.26208761168E+03 -0.68955353750E+03  0.75921890811E+03  0.47000000000E+01 0. -1.
        -11    1    4    4    0    0 -0.63432206716E+01  0.22217878499E+02 -0.54489084502E+02  0.59185563301E+02  0.00000000000E+00 0.  1.
         12    1    4    4    0    0  0.10346656685E+03  0.14654052398E+03 -0.72033966370E+03  0.74234000749E+03  0.00000000000E+00 0. -1.
         -5    1    5    5    0  501 -0.14980989737E+03 -0.26108880025E+03 -0.56325336935E+03  0.63866017180E+03  0.47000000000E+01 0.  1.
         11    1    6    6    0    0 -0.32483461490E+01 -0.22747132398E+02 -0.65007832669E+02  0.68949271884E+02  0.00000000000E+00 0. -1.
        -12    1    6    6    0    0 -0.12355678256E+03 -0.14701008152E+03 -0.16277841998E+03  0.25174402991E+03  0.00000000000E+00 0.  1.
</event>
<event>
12    1  0.2576962E-002  0.1828475E+03  0.7818608E-02  0.1165075E+00
         -2   -1    0    0    0  501 -0.00000000000E+00  0.00000000000E+00  0.15760881321E+04  0.15760881321E+04  0.00000000000E+00 0.  1.
          2   -1    0    0  502    0  0.00000000000E+00 -0.00000000000E+00 -0.59381130751E+02  0.59381130751E+02  0.00000000000E+00 0. -1.
          6    2    1    2  502    0 -0.61497490909E+02  0.47837413553E+01  0.10298386836E+03  0.20999066386E+03  0.17229502661E+03 0.  0.
         24    2    3    3    0    0 -0.93600809546E+02 -0.41699803518E+02  0.72901204035E+02  0.14581590477E+03  0.73808586034E+02 0.  0.
         -6    2    1    2    0  501  0.61497490909E+02 -0.47837413553E+01  0.14137231330E+04  0.14254785990E+04  0.17196311775E+03 0.  0.
        -24    2    5    5    0    0 -0.10298329877E+02  0.93751862484E+01  0.42473005984E+03  0.43377072676E+03  0.86991206140E+02 0.  0.
          5    1    3    3  502    0  0.32103318637E+02  0.46483544874E+02  0.30082664324E+02  0.64174759091E+02  0.47000000000E+01 0. -1.
        -11    1    4    4    0    0  0.11068650184E+02 -0.12117843416E+02  0.16581892080E+02  0.23330587024E+02  0.00000000000E+00 0.  1.
         12    1    4    4    0    0 -0.10466945973E+03 -0.29581960103E+02  0.56319311955E+02  0.12248531774E+03  0.00000000000E+00 0. -1.
         -5    1    5    5    0  501  0.71795820786E+02 -0.14158927604E+02  0.98899307315E+03  0.99170787224E+03  0.47000000000E+01 0.  1.
         11    1    6    6    0    0  0.32125046132E+02  0.12890997811E+02  0.91429183482E+02  0.97762426349E+02  0.00000000000E+00 0. -1.
        -12    1    6    6    0    0 -0.42423376009E+02 -0.35158115627E+01  0.33330087636E+03  0.33600830041E+03  0.00000000000E+00 0.  1.
</event>
<event>
12    1  0.2576962E-002  0.2854694E+03  0.7818608E-02  0.1092739E+00
         -2   -1    0    0    0  501 -0.00000000000E+00  0.00000000000E+00  0.89637021573E+02  0.89637021573E+02  0.00000000000E+00 0. -1.
          2   -1    0    0  502    0  0.00000000000E+00 -0.00000000000E+00 -0.94185716639E+03  0.94185716639E+03  0.00000000000E+00 0.  1.
          6    2    1    2  502    0 -0.55934559918E+02 -0.22083938029E+03 -0.33026284464E+03  0.43666303604E+03  0.17234370778E+03 0.  0.
         24    2    3    3    0    0  0.20733141034E+01 -0.13941905184E+03 -0.10789410092E+03  0.19281035199E+03  0.78055904159E+02 0.  0.
         -6    2    1    2    0  501  0.55934559918E+02  0.22083938029E+03 -0.52195730017E+03  0.59483115192E+03  0.17171479032E+03 0.  0.
        -24    2    5    5    0    0  0.14171719454E+02  0.20569289054E+03 -0.32711597594E+03  0.39493422192E+03  0.80360282965E+02 0.  0.
          5    1    3    3  502    0 -0.58007874022E+02 -0.81420328450E+02 -0.22236874372E+03  0.24385268405E+03  0.47000000000E+01 0. -1.
        -11    1    4    4    0    0  0.53877177946E+01 -0.67348442985E+02 -0.99367718236E+02  0.12016149010E+03  0.00000000000E+00 0.  1.
         12    1    4    4    0    0 -0.33144036911E+01 -0.72070608854E+02 -0.85263826867E+01  0.72648861892E+02  0.00000000000E+00 0. -1.
         -5    1    5    5    0  501  0.41762840465E+02  0.15146489746E+02 -0.19484132423E+03  0.19989693000E+03  0.47000000000E+01 0.  1.
         13    1    6    6    0    0  0.14127481562E+02  0.54210305022E+02 -0.35503402716E+02  0.66323710016E+02  0.00000000000E+00 0. -1.
        -14    1    6    6    0    0  0.44237891913E-01  0.15148258552E+03 -0.29161257322E+03  0.32861051191E+03  0.00000000000E+00 0.  1.
</event>
<event>
12    1  0.2576962E-002  0.2406660E+03  0.7818608E-02  0.1119350E+00
          2   -1    0    0  502    0  0.00000000000E+00  0.00000000000E+00  0.55787414297E+03  0.55787414297E+03  0.00000000000E+00 0. -1.
         -2   -1    0    0    0  501 -0.00000000000E+00 -0.00000000000E+00 -0.10566253676E+03  0.10566253676E+03  0.00000000000E+00 0.  1.
          6    2    1    2  502    0 -0.16624280152E+03 -0.22980930398E+02  0.26944275234E+03  0.36096172303E+03  0.17184055541E+03 0.  0.
         24    2    3    3    0    0 -0.12653926400E+03  0.29106293739E+02  0.24941396336E+03  0.29231267207E+03  0.79874973951E+02 0.  0.
         -6    2    1    2    0  501  0.16624280152E+03  0.22980930398E+02  0.18276885386E+03  0.30257495670E+03  0.17315414595E+03 0.  0.
        -24    2    5    5    0    0  0.73372368477E+02 -0.15443209099E+01  0.17581206896E+03  0.20615456393E+03  0.78765038268E+02 0.  0.
          5    1    3    3  502    0 -0.39703537524E+02 -0.52087224137E+02  0.20028788985E+02  0.68649050965E+02  0.47000000000E+01 0. -1.
        -11    1    4    4    0    0 -0.53840675743E+02  0.50639326440E+02  0.95735881420E+02  0.12094841354E+03  0.00000000000E+00 0.  1.
         12    1    4    4    0    0 -0.72698588257E+02 -0.21533032701E+02  0.15367808194E+03  0.17136425853E+03  0.00000000000E+00 0. -1.
         -5    1    5    5    0  501  0.92870433047E+02  0.24525251308E+02  0.69567848996E+01  0.96420392771E+02  0.47000000000E+01 0.  1.
         11    1    6    6    0    0  0.64637779492E+02  0.32608803937E+02  0.11928275790E+03  0.13953405665E+03  0.00000000000E+00 0. -1.
        -12    1    6    6    0    0  0.87345889848E+01 -0.34153124847E+02  0.56529311056E+02  0.66620507278E+02  0.00000000000E+00 0.  1.
</event>
<event>
12    1  0.2576962E-002  0.2460436E+03  0.7818608E-02  0.1115831E+00
         -1   -1    0    0    0  501 -0.00000000000E+00  0.00000000000E+00  0.65016000532E+02  0.65016000532E+02  0.00000000000E+00 0. -1.
          1   -1    0    0  502    0  0.00000000000E+00 -0.00000000000E+00 -0.13757390875E+04  0.13757390875E+04  0.00000000000E+00 0.  1.
          6    2    1    2  502    0 -0.11485887191E+03  0.13158412899E+03 -0.24545425003E+03  0.34739435995E+03  0.17299742487E+03 0.  0.
         24    2    3    3    0    0 -0.11361239599E+03  0.31482603073E+02 -0.16609775895E+03  0.21956082809E+03  0.81972927747E+02 0.  0.
         -6    2    1    2    0  501  0.11485887191E+03 -0.13158412899E+03 -0.10652688369E+04  0.10933607281E+04  0.17358871878E+03 0.  0.
        -24    2    5    5    0    0  0.92271174695E+02 -0.22432543841E+02 -0.70457624430E+03  0.71580873300E+03  0.83290272514E+02 0.  0.
          5    1    3    3  502    0 -0.12464759218E+01  0.10010152592E+03 -0.79356491075E+02  0.12783353187E+03  0.47000000000E+01 0. -1.
        -13    1    4    4    0    0  0.10919914644E+01  0.44451618674E+00 -0.60737234925E+02  0.60748676910E+02  0.00000000000E+00 0.  1.
         14    1    4    4    0    0 -0.11470438745E+03  0.31038086886E+02 -0.10536052403E+03  0.15881215118E+03  0.00000000000E+00 0. -1.
         -5    1    5    5    0  501  0.22587697216E+02 -0.10915158515E+03 -0.36069259264E+03  0.37755199508E+03  0.47000000000E+01 0.  1.
         13    1    6    6    0    0 -0.27687083177E+01  0.21356955120E+02 -0.10839657295E+03  0.11051516776E+03  0.00000000000E+00 0. -1.
        -14    1    6    6    0    0  0.95039883013E+02 -0.43789498961E+02 -0.59617967136E+03  0.60529356524E+03  0.00000000000E+00 0.  1.
</event>
<event>
12    1  0.2576962E-002  0.2526207E+03  0.7818608E-02  0.1111660E+00
          3   -1    0    0  502    0  0.00000000000E+00  0.00000000000E+00  0.26076916016E+03  0.26076916016E+03  0.00000000000E+00 0. -1.
         -3   -1    0    0    0  501 -0.00000000000E+00 -0.00000000000E+00 -0.26498252543E+03  0.26498252543E+03  0.00000000000E+00 0.  1.
          6    2    1    2  502    0 -0.59001932081E+01  0.18444363565E+03  0.70571188357E+02  0.26250661830E+03  0.17284433752E+03 0.  0.
         24    2    3    3    0    0 -0.59381047791E+02  0.77926659151E+02  0.33288396123E+01  0.12557710522E+03  0.78484744619E+02 0.  0.
         -6    2    1    2    0  501  0.59001932081E+01 -0.18444363565E+03 -0.74784553629E+02  0.26324506729E+03  0.17219456722E+03 0.  0.
        -24    2    5    5    0    0 -0.56107078534E+02 -0.13234540827E+03 -0.78494080785E+02  0.18203559963E+03  0.79450157106E+02 0.  0.
          5    1    3    3  502    0  0.53480854583E+02  0.10651697649E+03  0.67242348744E+02  0.13692951308E+03  0.47000000000E+01 0. -1.
        -13    1    4    4    0    0 -0.35747356627E+02 -0.18129545639E+01  0.19635388283E+02  0.40825344862E+02  0.00000000000E+00 0.  1.
         14    1    4    4    0    0 -0.23633691164E+02  0.79739613715E+02 -0.16306548671E+02  0.84751760353E+02  0.00000000000E+00 0. -1.
         -5    1    5    5    0  501  0.62007271742E+02 -0.52098227378E+02  0.37095271567E+01  0.81209467654E+02  0.47000000000E+01 0.  1.
         13    1    6    6    0    0 -0.31577544595E+02 -0.44305751258E+02  0.94267712304E+01  0.55217795438E+02  0.00000000000E+00 0. -1.
        -14    1    6    6    0    0 -0.24529533939E+02 -0.88039657010E+02 -0.87920852016E+02  0.12681780419E+03  0.00000000000E+00 0.  1.
</event>
<event>
12    1  0.2576962E-002  0.2857716E+03  0.7818608E-02  0.1092578E+00
          2   -1    0    0  502    0  0.00000000000E+00  0.00000000000E+00  0.26247665001E+04  0.26247665001E+04  0.00000000000E+00 0. -1.
         -2   -1    0    0    0  501 -0.00000000000E+00 -0.00000000000E+00 -0.34425549953E+02  0.34425549953E+02  0.00000000000E+00 0.  1.
          6    2    1    2  502    0  0.12567164592E+03 -0.19050048930E+03  0.17071896332E+04  0.17309265733E+04  0.17183294061E+03 0.  0.
         24    2    3    3    0    0 -0.19262194653E+01 -0.98952728795E+02  0.73581684885E+03  0.74692993517E+03  0.81746805070E+02 0.  0.
         -6    2    1    2    0  501 -0.12567164592E+03  0.19050048930E+03  0.88315131698E+03  0.92826547677E+03  0.17215326798E+03 0.  0.
        -24    2    5    5    0    0 -0.85170280871E+02  0.73501928494E+02  0.27419827132E+03  0.30683573367E+03  0.79416403997E+02 0.  0.
          5    1    3    3  502    0  0.12759786538E+03 -0.91547760507E+02  0.97137278435E+03  0.98399663814E+03  0.47000000000E+01 0. -1.
        -13    1    4    4    0    0  0.31586956382E+02 -0.14820085564E+02  0.14068166621E+03  0.14494378896E+03  0.00000000000E+00 0.  1.
         14    1    4    4    0    0 -0.33513175847E+02 -0.84132643230E+02  0.59513518264E+03  0.60198614621E+03  0.00000000000E+00 0. -1.
         -5    1    5    5    0  501 -0.40501365046E+02  0.11699856081E+03  0.60895304566E+03  0.62142974310E+03  0.47000000000E+01 0.  1.
         13    1    6    6    0    0 -0.74141561161E+02  0.77078788211E+02  0.16249332329E+03  0.19453069371E+03  0.00000000000E+00 0. -1.
        -14    1    6    6    0    0 -0.11028719710E+02 -0.35768597173E+01  0.11170494804E+03  0.11230503996E+03  0.00000000000E+00 0.  1.
</event>
<event>
12    1  0.2576962E-002  0.2685015E+03  0.7818608E-02  0.1102140E+00
         -1   -1    0    0    0  501 -0.00000000000E+00  0.00000000000E+00  0.95544242810E+03  0.95544242810E+03  0.00000000000E+00 0. -1.
          1   -1    0    0  502    0  0.00000000000E+00 -0.00000000000E+00 -0.75942330413E+02  0.75942330413E+02  0.00000000000E+00 0.  1.
          6    2    1    2  502    0  0.16983599192E+03  0.11559510964E+03  0.48209044375E+03  0.55213556646E+03  0.17388500299E+03 0.  0.
         24    2    3    3    0    0  0.16830659601E+03  0.10036176050E+03  0.28750709399E+03  0.35689426964E+03  0.79458148587E+02 0.  0.
         -6    2    1    2    0  501 -0.16983599192E+03 -0.11559510964E+03  0.39740965393E+03  0.47924919205E+03  0.17186873339E+03 0.  0.
        -24    2    5    5    0    0 -0.18966495123E+02 -0.11226822971E+02  0.12545588072E+03  0.15117101677E+03  0.81410864230E+02 0.  0.
          5    1    3    3  502    0  0.15293959113E+01  0.15233349140E+02  0.19458334976E+03  0.19524129681E+03  0.47000000000E+01 0. -1.
        -11    1    4    4    0    0  0.98774631859E+02  0.37700686139E+02  0.21099312659E+03  0.23599972267E+03  0.00000000000E+00 0.  1.
         12    1    4    4    0    0  0.69531964152E+02  0.62661074366E+02  0.76513967403E+02  0.12089454697E+03  0.00000000000E+00 0. -1.
         -5    1    5    5    0  501 -0.15086949680E+03 -0.10436828667E+03  0.27195377322E+03  0.32807817528E+03  0.47000000000E+01 0.  1.
         11    1    6    6    0    0  0.99738376302E+01  0.19871553134E+02  0.98228188457E+02  0.10071312262E+03  0.00000000000E+00 0. -1.
        -12    1    6    6    0    0 -0.28940332753E+02 -0.31098376105E+02  0.27227692259E+02  0.50457894149E+02  0.00000000000E+00 0.  1.
</event>
<event>
12    1  0.2576962E-002  0.1929919E+03  0.7818608E-02  0.1155790E+00
          2   -1    0    0  502    0  0.00000000000E+00  0.00000000000E+00  0.71694340729E+02  0.71694340729E+02  0.00000000000E+00 0. -1.
         -2   -1    0    0    0  501 -0.00000000000E+00 -0.00000000000E+00 -0.64887044066E+03  0.64887044066E+03  0.00000000000E+00 0.  1.
          6    2    1    2  502    0 -0.64090499442E+02 -0.61022363617E+02 -0.45117386667E+03  0.49129348413E+03  0.17314764973E+03 0.  0.
         24    2    3    3    0    0 -0.52662426326E+02 -0.67772064256E+02 -0.46009700474E+03  0.47462399983E+03  0.78818167997E+02 0.  0.
         -6    2    1    2    0  501  0.64090499442E+02  0.61022363617E+02 -0.12600223326E+03  0.22927129725E+03  0.16987478912E+03 0.  0.
        -24    2    5    5    0    0  0.20800239071E+02 -0.18687893237E+02 -0.15490714226E+02  0.86223551625E+02  0.80079031765E+02 0.  0.
          5    1    3    3  502    0 -0.11428073116E+02  0.67497006390E+01  0.89231380695E+01  0.16669484301E+02  0.47000000000E+01 0. -1.
        -13    1    4    4    0    0 -0.36919561821E+02 -0.12265276326E+02 -0.68308884482E+02  0.78610398470E+02  0.00000000000E+00 0.  1.
         14    1    4    4    0    0 -0.15742864505E+02 -0.55506787930E+02 -0.39178812026E+03  0.39601360136E+03  0.00000000000E+00 0. -1.
         -5    1    5    5    0  501  0.43290260371E+02  0.79710256854E+02 -0.11051151903E+03  0.14304774563E+03  0.47000000000E+01 0.  1.
         11    1    6    6    0    0  0.48042011130E+02 -0.28468064917E+02 -0.11344818113E+02  0.56983949069E+02  0.00000000000E+00 0. -1.
        -12    1    6    6    0    0 -0.27241772059E+02  0.97801716799E+01 -0.41458961131E+01  0.29239602555E+02  0.00000000000E+00 0.  1.
</event>
<event>
12    1  0.2576962E-002  0.1756771E+03  0.7818608E-02  0.1172054E+00
         -2   -1    0    0    0  501 -0.00000000000E+00  0.00000000000E+00  0.71381297417E+02  0.71381297417E+02  0.00000000000E+00 0.  1.
          2   -1    0    0  502    0  0.00000000000E+00 -0.00000000000E+00 -0.69886827912E+03  0.69886827912E+03  0.00000000000E+00 0. -1.
          6    2    1    2  502    0  0.32521292138E+02  0.14157634683E+02 -0.55228879401E+03  0.57975530490E+03  0.17272877151E+03 0.  0.
         24    2    3    3    0    0  0.57437507517E+02  0.21266836000E+02 -0.17680404524E+03  0.20334828439E+03  0.79621032190E+02 0.  0.
         -6    2    1    2    0  501 -0.32521292138E+02 -0.14157634683E+02 -0.75198187694E+02  0.19049427164E+03  0.17139202733E+03 0.  0.
        -24    2    5    5    0    0  0.14951012452E+02 -0.64363781484E+02 -0.64785070765E+02  0.12045999515E+03  0.77118583339E+02 0.  0.
          5    1    3    3  502    0 -0.24916215379E+02 -0.71092013168E+01 -0.37548474877E+03  0.37640702051E+03  0.47000000000E+01 0. -1.
        -13    1    4    4    0    0  0.47384346812E+01 -0.47291594391E+01  0.74116261174E+01  0.99874878690E+01  0.00000000000E+00 0.  1.
         14    1    4    4    0    0  0.52699072836E+02  0.25995995439E+02 -0.18421567136E+03  0.19336079652E+03  0.00000000000E+00 0. -1.
         -5    1    5    5    0  501 -0.47472304590E+02  0.50206146800E+02 -0.10413116929E+02  0.70034276492E+02  0.47000000000E+01 0.  1.
         13    1    6    6    0    0  0.44193245602E+02 -0.45132800772E+02 -0.55903030068E+02  0.84351416308E+02  0.00000000000E+00 0. -1.
        -14    1    6    6    0    0 -0.29242233150E+02 -0.19230980711E+02 -0.88820406970E+01  0.36108578838E+02  0.00000000000E+00 0.  1.
</event>
<event>
12    1  0.2576962E-002  0.1744759E+03  0.7818608E-02  0.1173259E+00
          1   -1    0    0  502    0  0.00000000000E+00  0.00000000000E+00  0.75383015285E+02  0.75383015285E+02  0.00000000000E+00 0.  1.
         -1   -1    0    0    0  501 -0.00000000000E+00 -0.00000000000E+00 -0.44318031822E+03  0.44318031822E+03  0.00000000000E+00 0. -1.
          6    2    1    2  502    0 -0.48883935353E+02  0.16901092781E+02 -0.10051739928E+03  0.19534978826E+03  0.15931888194E+03 0.  0.
         24    2    3    3    0    0 -0.42441063165E+02 -0.26335062803E+02 -0.92214348368E+01  0.94019048229E+02  0.79118690548E+02 0.  0.
         -6    2    1    2    0  501  0.48883935353E+02 -0.16901092781E+02 -0.26727990365E+03  0.32321354524E+03  0.17422159125E+03 0.  0.
        -24    2    5    5    0    0  0.31167528665E+02 -0.38644440736E+02 -0.53747189722E+02  0.10779545370E+03  0.79159912783E+02 0.  0.
          5    1    3    3  502    0 -0.64428721883E+01  0.43236155584E+02 -0.91295964440E+02  0.10133074003E+03  0.47000000000E+01 0. -1.
        -13    1    4    4    0    0 -0.22620950006E+02 -0.54525314161E+02 -0.76208709957E+01  0.59521382194E+02  0.00000000000E+00 0.  1.
         14    1    4    4    0    0 -0.19820113159E+02  0.28190251358E+02 -0.16005638411E+01  0.34497666035E+02  0.00000000000E+00 0. -1.
         -5    1    5    5    0  501  0.17716406689E+02  0.21743347956E+02 -0.21353271393E+03  0.21541809155E+03  0.47000000000E+01 0.  1.
         13    1    6    6    0    0  0.36313890637E+01 -0.17918752804E+02 -0.68063196600E+02  0.70476005988E+02  0.00000000000E+00 0. -1.
        -14    1    6    6    0    0  0.27536139601E+02 -0.20725687932E+02  0.14316006878E+02  0.37319447709E+02  0.00000000000E+00 0.  1.
</event>
<event>
12    1  0.2576962E-002  0.1847105E+03  0.7818608E-02  0.1163321E+00
          2   -1    0    0  502    0  0.00000000000E+00  0.00000000000E+00  0.22258542796E+04  0.22258542796E+04  0.00000000000E+00 0.  1.
         -2   -1    0    0    0  501 -0.00000000000E+00 -0.00000000000E+00 -0.21989647604E+02  0.21989647604E+02  0.00000000000E+00 0. -1.
          6    2    1    2  502    0 -0.57136438042E+02 -0.36598610107E+02  0.17200598194E+04  0.17299366807E+04  0.17167150619E+03 0.  0.
         24    2    3    3    0    0 -0.26903955940E+02  0.46970590538E+01  0.15479102960E+04  0.15502789960E+04  0.81196032589E+02 0.  0.
         -6    2    1    2    0  501  0.57136438042E+02  0.36598610107E+02  0.48380481259E+03  0.51790724652E+03  0.17192087859E+03 0.  0.
        -24    2    5    5    0    0  0.92749195434E+02  0.57476218450E+02  0.29040765121E+03  0.32009750194E+03  0.78866202689E+02 0.  0.
          5    1    3    3  502    0 -0.30232482102E+02 -0.41295669161E+02  0.17214952345E+03  0.17965768475E+03  0.47000000000E+01 0. -1.
        -13    1    4    4    0    0  0.23128244215E+02  0.18543935799E+02  0.35339548562E+03  0.35463666264E+03  0.00000000000E+00 0.  1.
         14    1    4    4    0    0 -0.50032200156E+02 -0.13846876745E+02  0.11945148104E+04  0.11956423333E+04  0.00000000000E+00 0. -1.
         -5    1    5    5    0  501 -0.35612757392E+02 -0.20877608343E+02  0.19339716139E+03  0.19780974458E+03  0.47000000000E+01 0.  1.
         13    1    6    6    0    0  0.77802817459E+02  0.77018927690E+02  0.22512662376E+03  0.25033415738E+03  0.00000000000E+00 0. -1.
        -14    1    6    6    0    0  0.14946377976E+02 -0.19542709240E+02  0.65281027446E+02  0.69763344554E+02  0.00000000000E+00 0.  1.
</event>
<event>
12    1  0.2576962E-002  0.1921030E+03  0.7818608E-02  0.1156578E+00
         -1   -1    0    0    0  501 -0.00000000000E+00  0.00000000000E+00  0.23901382536E+03  0.23901382536E+03  0.00000000000E+00 0.  1.
          1   -1    0    0  502    0  0.00000000000E+00 -0.00000000000E+00 -0.28267223730E+03  0.28267223730E+03  0.00000000000E+00 0. -1.
          6    2    1    2  502    0 -0.93635842431E+00  0.85485580442E+02  0.15388961632E+03  0.24607465339E+03  0.17193620851E+03 0.  0.
         24    2    3    3    0    0  0.12979503124E+02  0.59867068303E+02  0.13880132811E+02  0.10298480455E+03  0.81612980055E+02 0.  0.
         -6    2    1    2    0  501  0.93635842431E+00 -0.85485580442E+02 -0.19754802826E+03  0.27561140928E+03  0.17212717456E+03 0.  0.
        -24    2    5    5    0    0 -0.53560082354E+02 -0.56207085577E+02 -0.71048284992E+02  0.13471652872E+03  0.84099734958E+02 0.  0.
          5    1    3    3  502    0 -0.13915861549E+02  0.25618512138E+02  0.14000948351E+03  0.14308984883E+03  0.47000000000E+01 0. -1.
        -11    1    4    4    0    0 -0.13124559233E+01  0.53603563899E+02  0.43803411467E+02  0.69237298181E+02  0.00000000000E+00 0.  1.
         12    1    4    4    0    0  0.14291959047E+02  0.62635044039E+01 -0.29923278656E+02  0.33747506373E+02  0.00000000000E+00 0. -1.
         -5    1    5    5    0  501  0.54496440778E+02 -0.29278494864E+02 -0.12649974327E+03  0.14089488055E+03  0.47000000000E+01 0.  1.
         13    1    6    6    0    0 -0.95715646485E+01 -0.68137433536E+02 -0.40355446242E+02  0.79767704869E+02  0.00000000000E+00 0. -1.
        -14    1    6    6    0    0 -0.43988517706E+02  0.11930347959E+02 -0.30692838749E+02  0.54948823853E+02  0.00000000000E+00 0.  1.
</event>
<event>
12    1  0.2576962E-002  0.1878204E+03  0.7818608E-02  0.1160442E+00
         -2   -1    0    0    0  501 -0.00000000000E+00  0.00000000000E+00  0.53163561042E+02  0.53163561042E+02  0.00000000000E+00 0. -1.
          2   -1    0    0  502    0  0.00000000000E+00 -0.00000000000E+00 -0.71184600401E+03  0.71184600401E+03  0.00000000000E+00 0.  1.
          6    2    1    2  502    0 -0.49880500776E+02  0.55713308615E+02 -0.42999555896E+03  0.46947784484E+03  0.17297753888E+03 0.  0.
         24    2    3    3    0    0 -0.13455574833E+02  0.10054160897E+03 -0.26284574914E+03  0.29256684839E+03  0.78853061493E+02 0.  0.
         -6    2    1    2    0  501  0.49880500776E+02 -0.55713308615E+02 -0.22868688401E+03  0.29553172021E+03  0.17160789498E+03 0.  0.
        -24    2    5    5    0    0  0.47665862043E+02  0.22980180322E+02 -0.17801936703E+03  0.20179348307E+03  0.78927762419E+02 0.  0.
          5    1    3    3  502    0 -0.36424925943E+02 -0.44828300354E+02 -0.16714980982E+03  0.17691099645E+03  0.47000000000E+01 0. -1.
        -13    1    4    4    0    0  0.27006595876E+02  0.51129274384E+02 -0.78686911230E+02  0.97648291940E+02  0.00000000000E+00 0.  1.
         14    1    4    4    0    0 -0.40462170709E+02  0.49412334585E+02 -0.18415883791E+03  0.19491855645E+03  0.00000000000E+00 0. -1.
         -5    1    5    5    0  501  0.22146387331E+01 -0.78693488937E+02 -0.50667516984E+02  0.93738237145E+02  0.47000000000E+01 0.  1.
         11    1    6    6    0    0  0.51265139543E+01  0.14883122301E+02  0.26888750309E+01  0.15969299411E+02  0.00000000000E+00 0. -1.
        -12    1    6    6    0    0  0.42539348089E+02  0.80970580208E+01 -0.18070824206E+03  0.18582418366E+03  0.00000000000E+00 0.  1.
</event>
<event>
12    1  0.2576962E-002  0.1862360E+03  0.7818608E-02  0.1161901E+00
         -2   -1    0    0    0  501 -0.00000000000E+00  0.00000000000E+00  0.23406069563E+02  0.23406069563E+02  0.00000000000E+00 0.  1.
          2   -1    0    0  502    0  0.00000000000E+00 -0.00000000000E+00 -0.15186158225E+04  0.15186158225E+04  0.00000000000E+00 0. -1.
          6    2    1    2  502    0  0.37642240227E+02 -0.27223639566E+02 -0.60279255924E+03  0.62882501390E+03  0.17292762601E+03 0.  0.
         24    2    3    3    0    0  0.51201405477E+02 -0.32482735120E+02 -0.17606175288E+03  0.20182058753E+03  0.77827352005E+02 0.  0.
         -6    2    1    2    0  501 -0.37642240227E+02  0.27223639566E+02 -0.89241719372E+03  0.91319687818E+03  0.18804793503E+03 0.  0.
        -24    2    5    5    0    0 -0.24490990293E+02  0.65481901674E+02 -0.83899901849E+03  0.84602365852E+03  0.83360600398E+02 0.  0.
          5    1    3    3  502    0 -0.13559165250E+02  0.52590955535E+01 -0.42673080636E+03  0.42700442637E+03  0.47000000000E+01 0. -1.
        -13    1    4    4    0    0  0.52957089019E+02  0.96126416092E+01 -0.74870958693E+02  0.92209091806E+02  0.00000000000E+00 0.  1.
         14    1    4    4    0    0 -0.17556835420E+01 -0.42095376729E+02 -0.10119079419E+03  0.10961149572E+03  0.00000000000E+00 0. -1.
         -5    1    5    5    0  501 -0.13151249934E+02 -0.38258262108E+02 -0.53418175230E+02  0.67173219658E+02  0.47000000000E+01 0.  1.
         11    1    6    6    0    0  0.11323320851E+02  0.56892761892E+02 -0.69400744076E+03  0.69642754955E+03  0.00000000000E+00 0. -1.
        -12    1    6    6    0    0 -0.35814311144E+02  0.85891397821E+01 -0.14499157773E+03  0.14959610897E+03  0.00000000000E+00 0.  1.
</event>
<event>
12    1  0.2576962E-002  0.2586323E+03  0.7818608E-02  0.1107968E+00
          3   -1    0    0  502    0  0.00000000000E+00  0.00000000000E+00  0.43952733011E+03  0.43952733011E+03  0.00000000000E+00 0. -1.
         -3   -1    0    0    0  501 -0.00000000000E+00 -0.00000000000E+00 -0.16676044968E+03  0.16676044968E+03  0.00000000000E+00 0.  1.
          6    2    1    2  502    0  0.16700702894E+03 -0.95548583825E+02  0.22602960105E+03  0.34353352592E+03  0.17293068928E+03 0.  0.
         24    2    3    3    0    0  0.10562303427E+03 -0.62923707091E+02  0.49696280803E+02  0.15393419256E+03  0.78169028586E+02 0.  0.
         -6    2    1    2    0  501 -0.16700702894E+03  0.95548583825E+02  0.46737279377E+02  0.26275425386E+03  0.17272679310E+03 0.  0.
        -24    2    5    5    0    0 -0.56358017435E+02  0.12912373463E+02  0.67286666209E+02  0.12305345104E+03  0.85274268369E+02 0.  0.
          5    1    3    3  502    0  0.61383994669E+02 -0.32624876735E+02  0.17633332025E+03  0.18959933337E+03  0.47000000000E+01 0. -1.
        -13    1    4    4    0    0 -0.70037265144E+01 -0.25989551811E+02  0.57689299613E+01  0.27527977429E+02  0.00000000000E+00 0.  1.
         14    1    4    4    0    0  0.11262676079E+03 -0.36934155280E+02  0.43927350842E+02  0.12640621513E+03  0.00000000000E+00 0. -1.
         -5    1    5    5    0  501 -0.11064901150E+03  0.82636210362E+02 -0.20549386831E+02  0.13970080282E+03  0.47000000000E+01 0.  1.
         11    1    6    6    0    0 -0.28570838151E+02  0.48271693242E+02  0.49089444038E+02  0.74540074303E+02  0.00000000000E+00 0. -1.
        -12    1    6    6    0    0 -0.27787179284E+02 -0.35359319779E+02  0.18197222171E+02  0.48513376738E+02  0.00000000000E+00 0.  1.
</event>
<event>
12    1  0.2576962E-002  0.2119623E+03  0.7818608E-02  0.1140021E+00
          1   -1    0    0  502    0  0.00000000000E+00  0.00000000000E+00  0.24832621900E+03  0.24832621900E+03  0.00000000000E+00 0. -1.
         -1   -1    0    0    0  501 -0.00000000000E+00 -0.00000000000E+00 -0.18184688636E+03  0.18184688636E+03  0.00000000000E+00 0.  1.
          6    2    1    2  502    0  0.10211829090E+03  0.63904137332E+02  0.48739275823E+02  0.21925703908E+03  0.17659628557E+03 0.  0.
         24    2    3    3    0    0  0.67215925243E+02 -0.24105300690E+02 -0.62510937030E+01  0.10966750012E+03  0.82999025795E+02 0.  0.
         -6    2    1    2    0  501 -0.10211829090E+03 -0.63904137332E+02  0.17740056812E+02  0.21091606627E+03  0.17221786578E+03 0.  0.
        -24    2    5    5    0    0 -0.23195562847E+02  0.10399254698E+02  0.49964293122E+02  0.97733547853E+02  0.80057711401E+02 0.  0.
          5    1    3    3  502    0  0.34902365654E+02  0.88009438022E+02  0.54990369526E+02  0.10958953896E+03  0.47000000000E+01 0. -1.
        -13    1    4    4    0    0 -0.15540738611E+02  0.10012902414E+02 -0.79827793111E+01  0.20136969406E+02  0.00000000000E+00 0.  1.
         14    1    4    4    0    0  0.82756663854E+02 -0.34118203104E+02  0.17316856082E+01  0.89530530717E+02  0.00000000000E+00 0. -1.
         -5    1    5    5    0  501 -0.78922728050E+02 -0.74303392030E+02 -0.32224236310E+02  0.11318251842E+03  0.47000000000E+01 0. -1.
         13    1    6    6    0    0 -0.20224052090E+02  0.40222234683E+02  0.50635473664E+02  0.67755380886E+02  0.00000000000E+00 0. -1.
        -14    1    6    6    0    0 -0.29715107571E+01 -0.29822979985E+02 -0.67118054196E+00  0.29978166967E+02  0.00000000000E+00 0.  1.
</event>
<event>
12    1  0.2576962E-002  0.1785984E+03  0.7818608E-02  0.1169166E+00
         -1   -1    0    0    0  501 -0.00000000000E+00  0.00000000000E+00  0.35426461570E+02  0.35426461570E+02  0.00000000000E+00 0. -1.
          1   -1    0    0  502    0  0.00000000000E+00 -0.00000000000E+00 -0.98486614962E+03  0.98486614962E+03  0.00000000000E+00 0.  1.
          6    2    1    2  502    0  0.23546066327E+01  0.53538890956E+02 -0.32806525080E+03  0.37406858369E+03  0.17154748469E+03 0.  0.
         24    2    3    3    0    0 -0.18314062466E+02  0.60818775406E+01 -0.30757319256E+03  0.31819930362E+03  0.79228365645E+02 0.  0.
         -6    2    1    2    0  501 -0.23546066327E+01 -0.53538890956E+02 -0.62137443725E+03  0.64622402750E+03  0.16919617440E+03 0.  0.
        -24    2    5    5    0    0  0.48903479491E+02 -0.54748151047E+02 -0.30286025714E+03  0.32357526083E+03  0.87107426293E+02 0.  0.
          5    1    3    3  502    0  0.20668669099E+02  0.47457013415E+02 -0.20492058235E+02  0.55869280068E+02  0.47000000000E+01 0. -1.
        -13    1    4    4    0    0 -0.31568985386E+01 -0.33711929405E+02 -0.19344246145E+03  0.19638341601E+03  0.00000000000E+00 0.  1.
         14    1    4    4    0    0 -0.15157163928E+02  0.39793806945E+02 -0.11413073111E+03  0.12181588761E+03  0.00000000000E+00 0. -1.
         -5    1    5    5    0  501 -0.51258086123E+02  0.12092600910E+01 -0.31851418011E+03  0.32264876667E+03  0.47000000000E+01 0.  1.
         11    1    6    6    0    0  0.18783768771E+02  0.23248962226E+02 -0.68104189765E+02  0.74374221860E+02  0.00000000000E+00 0. -1.
        -12    1    6    6    0    0  0.30119710720E+02 -0.77997113273E+02 -0.23475606738E+03  0.24920103897E+03  0.00000000000E+00 0.  1.
</event>
<event>
12    1  0.2576962E-002  0.2130126E+03  0.7818608E-02  0.1139202E+00
         -1   -1    0    0    0  501 -0.00000000000E+00  0.00000000000E+00  0.16232065391E+03  0.16232065391E+03  0.00000000000E+00 0. -1.
          1   -1    0    0  502    0  0.00000000000E+00 -0.00000000000E+00 -0.35449510144E+03  0.35449510144E+03  0.00000000000E+00 0.  1.
          6    2    1    2  502    0 -0.12340393564E+03  0.26072434744E+02  0.22690376066E+02  0.21435525952E+03  0.17182846369E+03 0.  0.
         24    2    3    3    0    0  0.99536579444E+01  0.29170347472E+01  0.58716465567E+01  0.77880426760E+02  0.76962979678E+02 0.  0.
         -6    2    1    2    0  501  0.12340393564E+03 -0.26072434744E+02 -0.21486482359E+03  0.30246049583E+03  0.17148514786E+03 0.  0.
        -24    2    5    5    0    0  0.16585477998E+02 -0.67571334901E+01 -0.16214561932E+03  0.18169349597E+03  0.80003672930E+02 0.  0.
          5    1    3    3  502    0 -0.13335759358E+03  0.23155399996E+02  0.16818729510E+02  0.13647483276E+03  0.47000000000E+01 0. -1.
        -11    1    4    4    0    0  0.29974453093E+02  0.20097267533E+02 -0.19720619754E+02  0.41125063453E+02  0.00000000000E+00 0.  1.
         12    1    4    4    0    0 -0.20020795148E+02 -0.17180232786E+02  0.25592266311E+02  0.36755363308E+02  0.00000000000E+00 0. -1.
         -5    1    5    5    0  501  0.10681845764E+03 -0.19315301254E+02 -0.52719204277E+02  0.12076699986E+03  0.47000000000E+01 0.  1.
         13    1    6    6    0    0 -0.19967699076E+02 -0.31135219319E+02 -0.59787260768E+02  0.70303822361E+02  0.00000000000E+00 0. -1.
        -14    1    6    6    0    0  0.36553177074E+02  0.24378085829E+02 -0.10235835855E+03  0.11138967361E+03  0.00000000000E+00 0.  1.
</event>
<event>
12    1  0.2576962E-002  0.2475103E+03  0.7818608E-02  0.1114888E+00
          2   -1    0    0  502    0  0.00000000000E+00  0.00000000000E+00  0.62841578244E+03  0.62841578244E+03  0.00000000000E+00 0.  1.
         -2   -1    0    0    0  501 -0.00000000000E+00 -0.00000000000E+00 -0.97582883921E+02  0.97582883921E+02  0.00000000000E+00 0. -1.
          6    2    1    2  502    0  0.72919913673E+02  0.15964613922E+03  0.27555184498E+03  0.36963618746E+03  0.17291005820E+03 0.  0.
         24    2    3    3    0    0  0.64976124779E+02  0.14476588198E+03  0.29570598373E+03  0.34293777653E+03  0.70606178084E+02 0.  0.
         -6    2    1    2    0  501 -0.72919913673E+02 -0.15964613922E+03  0.25528105354E+03  0.35636247890E+03  0.17612948787E+03 0.  0.
        -24    2    5    5    0    0 -0.10722127221E+03 -0.64445896316E+02  0.17044416553E+03  0.22422975392E+03  0.74686640112E+02 0.  0.
          5    1    3    3  502    0  0.79437888940E+01  0.14880257238E+02 -0.20154138743E+02  0.26698410925E+02  0.47000000000E+01 0. -1.
        -13    1    4    4    0    0  0.31371512323E+02  0.84524029825E+02  0.23253807990E+03  0.24940417399E+03  0.00000000000E+00 0.  1.
         14    1    4    4    0    0  0.33604612455E+02  0.60241852157E+02  0.63167903831E+02  0.93533602539E+02  0.00000000000E+00 0. -1.
         -5    1    5    5    0  501  0.34301358538E+02 -0.95200242905E+02  0.84836888001E+02  0.13213272499E+03  0.47000000000E+01 0.  1.
         11    1    6    6    0    0 -0.23131881609E+02 -0.27722405663E+02  0.69821904940E+01  0.36774538836E+02  0.00000000000E+00 0. -1.
        -12    1    6    6    0    0 -0.84089390601E+02 -0.36723490653E+02  0.16346197504E+03  0.18745521508E+03  0.00000000000E+00 0.  1.
</event>
<event>
12    1  0.2576962E-002  0.1984517E+03  0.7818608E-02  0.1151052E+00
          1   -1    0    0  502    0  0.00000000000E+00  0.00000000000E+00  0.60550987980E+03  0.60550987980E+03  0.00000000000E+00 0.  1.
         -1   -1    0    0    0  501 -0.00000000000E+00 -0.00000000000E+00 -0.10177561708E+03  0.10177561708E+03  0.00000000000E+00 0. -1.
          6    2    1    2  502    0 -0.63230900178E+02  0.62980150706E+02  0.46614016007E+03  0.50752651394E+03  0.17981064319E+03 0.  0.
         24    2    3    3    0    0 -0.34031965812E+02  0.86710479573E+02  0.45017170609E+03  0.46638301144E+03  0.78623574215E+02 0.  0.
         -6    2    1    2    0  501  0.63230900178E+02 -0.62980150706E+02  0.37594102643E+02  0.19975898294E+03  0.17471602271E+03 0.  0.
        -24    2    5    5    0    0  0.45133623524E+01 -0.73383231333E+02 -0.37405313914E+02  0.10382684120E+03  0.63050665052E+02 0.  0.
          5    1    3    3  502    0 -0.29198934366E+02 -0.23730328867E+02  0.15968453978E+02  0.41143502509E+02  0.47000000000E+01 0. -1.
        -13    1    4    4    0    0 -0.16373436736E+02  0.17368834147E+02  0.28968947304E+03  0.29067121739E+03  0.00000000000E+00 0.  1.
         14    1    4    4    0    0 -0.17658529075E+02  0.69341645426E+02  0.16048223305E+03  0.17571179404E+03  0.00000000000E+00 0. -1.
         -5    1    5    5    0  501  0.58717537825E+02  0.10403080627E+02  0.74999416557E+02  0.95932141739E+02  0.47000000000E+01 0.  1.
         11    1    6    6    0    0  0.27990964232E+02 -0.53106840308E+02 -0.40853544236E+02  0.72614341853E+02  0.00000000000E+00 0. -1.
        -12    1    6    6    0    0 -0.23477601879E+02 -0.20276391025E+02  0.34482303224E+01  0.31212499345E+02  0.00000000000E+00 0.  1.
</event>
<event>
12    1  0.2576962E-002  0.1789548E+03  0.7818608E-02  0.1168818E+00
         -1   -1    0    0    0  501 -0.00000000000E+00  0.00000000000E+00  0.15120108664E+03  0.15120108664E+03  0.00000000000E+00 0. -1.
          1   -1    0    0  502    0  0.00000000000E+00 -0.00000000000E+00 -0.26604957920E+03  0.26604957920E+03  0.00000000000E+00 0.  1.
          6    2    1    2  502    0 -0.46440786567E+02 -0.23235529947E+02  0.36792201645E+02  0.18265287440E+03  0.17120680453E+03 0.  0.
         24    2    3    3    0    0 -0.86091653659E+02  0.20369436886E+02  0.28389599756E+02  0.12293455132E+03  0.80499985992E+02 0.  0.
         -6    2    1    2    0  501  0.46440786567E+02  0.23235529947E+02 -0.15164069421E+03  0.23459779144E+03  0.17130261848E+03 0.  0.
        -24    2    5    5    0    0  0.46905085769E+01  0.44790079805E+02 -0.24256203571E+02  0.98742784954E+02  0.84460772250E+02 0.  0.
          5    1    3    3  502    0  0.39650867091E+02 -0.43604966833E+02  0.84026018891E+01  0.59718323086E+02  0.47000000000E+01 0. -1.
        -13    1    4    4    0    0  0.19326224780E+01 -0.19383305448E+02 -0.60441938707E+01  0.20395583818E+02  0.00000000000E+00 0.  1.
         14    1    4    4    0    0 -0.88024276137E+02  0.39752742334E+02  0.34433793626E+02  0.10253896750E+03  0.00000000000E+00 0. -1.
         -5    1    5    5    0  501  0.41750277990E+02 -0.21554549858E+02 -0.12738449064E+03  0.13585500648E+03  0.47000000000E+01 0.  1.
         13    1    6    6    0    0  0.79003686577E+01 -0.24718261748E+02 -0.93382772777E+01  0.27579189823E+02  0.00000000000E+00 0. -1.
        -14    1    6    6    0    0 -0.32098600808E+01  0.69508341553E+02 -0.14917926293E+02  0.71163595131E+02  0.00000000000E+00 0.  1.
</event>
<event>
12    1  0.2576962E-002  0.2276461E+03  0.7818608E-02  0.1128308E+00
          2   -1    0    0  502    0  0.00000000000E+00  0.00000000000E+00  0.21894429813E+03  0.21894429813E+03  0.00000000000E+00 0.  1.
         -2   -1    0    0    0  501 -0.00000000000E+00 -0.00000000000E+00 -0.25895196683E+03  0.25895196683E+03  0.00000000000E+00 0. -1.
          6    2    1    2  502    0  0.12400931345E+03 -0.82042278946E+02 -0.89993645984E+02  0.24408722181E+03  0.17137814964E+03 0.  0.
         24    2    3    3    0    0  0.47171242184E+02 -0.11023394771E+03 -0.66212532480E+02  0.15872627790E+03  0.80207746025E+02 0.  0.
         -6    2    1    2    0  501 -0.12400931345E+03  0.82042278946E+02  0.49985977284E+02  0.23380904316E+03  0.17337481184E+03 0.  0.
        -24    2    5    5    0    0 -0.13925053059E+03  0.21543094647E+02  0.38286197166E+02  0.17015827054E+03  0.87368123149E+02 0.  0.
          5    1    3    3  502    0  0.76838071271E+02  0.28191668767E+02 -0.23781113503E+02  0.85360943902E+02  0.47000000000E+01 0. -1.
        -13    1    4    4    0    0  0.24565008483E+01 -0.99091760249E+01  0.17747093802E+02  0.20474020229E+02  0.00000000000E+00 0.  1.
         14    1    4    4    0    0  0.44714741335E+02 -0.10032477169E+03 -0.83959626282E+02  0.13825225768E+03  0.00000000000E+00 0. -1.
         -5    1    5    5    0  501  0.15241217139E+02  0.60499184298E+02  0.11699780118E+02  0.63650772622E+02  0.47000000000E+01 0.  1.
         13    1    6    6    0    0 -0.77078886080E+02  0.42425677383E+01 -0.23624091499E+02  0.80729497456E+02  0.00000000000E+00 0. -1.
        -14    1    6    6    0    0 -0.62171644513E+02  0.17300526909E+02  0.61910288666E+02  0.89428773085E+02  0.00000000000E+00 0.  1.
</event>
<event>
12    1  0.2576962E-002  0.2469816E+03  0.7818608E-02  0.1115227E+00
          4   -1    0    0  502    0  0.00000000000E+00  0.00000000000E+00  0.34649259445E+03  0.34649259445E+03  0.00000000000E+00 0. -1.
         -4   -1    0    0    0  501 -0.00000000000E+00 -0.00000000000E+00 -0.17624657511E+03  0.17624657511E+03  0.00000000000E+00 0.  1.
          6    2    1    2  502    0  0.12984068996E+03  0.12083678192E+03  0.76563823346E+02  0.25902682747E+03  0.17254780691E+03 0.  0.
         24    2    3    3    0    0  0.57641261399E+02 -0.78456109501E+01  0.28998899552E+02  0.10392548094E+03  0.81089461623E+02 0.  0.
         -6    2    1    2    0  501 -0.12984068996E+03 -0.12083678192E+03  0.93682195989E+02  0.26371234209E+03  0.17119495579E+03 0.  0.
        -24    2    5    5    0    0 -0.49438209973E+01 -0.23902342626E+02  0.60463424378E+02  0.10209213857E+03  0.78557085743E+02 0.  0.
          5    1    3    3  502    0  0.72199428565E+02  0.12868239287E+03  0.47564923794E+02  0.15510134653E+03  0.47000000000E+01 0. -1.
        -13    1    4    4    0    0 -0.18831621783E+02 -0.11919796067E+02  0.12620628109E+02  0.25612336308E+02  0.00000000000E+00 0.  1.
         14    1    4    4    0    0  0.76472883183E+02  0.40741851168E+01  0.16378271442E+02  0.78313144632E+02  0.00000000000E+00 0. -1.
         -5    1    5    5    0  501 -0.12489686897E+03 -0.96934439296E+02  0.33218771611E+02  0.16162020352E+03  0.47000000000E+01 0.  1.
         13    1    6    6    0    0 -0.20808412629E+02  0.15948451171E+02  0.52195673112E+02  0.58410028442E+02  0.00000000000E+00 0. -1.
        -14    1    6    6    0    0  0.15864591632E+02 -0.39850793798E+02  0.82677512656E+01  0.43682110125E+02  0.00000000000E+00 0.  1.
</event>
<event>
12    1  0.2576962E-002  0.2151073E+03  0.7818608E-02  0.1137584E+00
         -2   -1    0    0    0  501 -0.00000000000E+00  0.00000000000E+00  0.24417960060E+02  0.24417960060E+02  0.00000000000E+00 0.  1.
          2   -1    0    0  502    0  0.00000000000E+00 -0.00000000000E+00 -0.20149929385E+04  0.20149929385E+04  0.00000000000E+00 0. -1.
          6    2    1    2  502    0  0.74593654403E+02  0.10653098543E+03 -0.74988781108E+03  0.78034926509E+03  0.17233740794E+03 0.  0.
         24    2    3    3    0    0  0.38504744770E+02 -0.89601028018E+01 -0.40931969749E+03  0.41889479927E+03  0.79795609487E+02 0.  0.
         -6    2    1    2    0  501 -0.74593654403E+02 -0.10653098543E+03 -0.12406871674E+04  0.12590616335E+04  0.17034813033E+03 0.  0.
        -24    2    5    5    0    0 -0.11265083685E+02 -0.54118871029E+02 -0.39465099982E+03  0.40902820802E+03  0.92189527529E+02 0.  0.
          5    1    3    3  502    0  0.36088909633E+02  0.11549108823E+03 -0.34056811360E+03  0.36145446582E+03  0.47000000000E+01 0. -1.
        -11    1    4    4    0    0 -0.10545988203E+02 -0.13701448459E+02 -0.19868859074E+02  0.26338548137E+02  0.00000000000E+00 0.  1.
         12    1    4    4    0    0  0.49050732973E+02  0.47413456568E+01 -0.38945083841E+03  0.39255625113E+03  0.00000000000E+00 0. -1.
         -5    1    5    5    0  501 -0.63328570718E+02 -0.52412114404E+02 -0.84603616756E+03  0.85003342547E+03  0.47000000000E+01 0.  1.
         11    1    6    6    0    0 -0.21627426361E+02 -0.76313907599E+02 -0.34014920822E+03  0.34927502332E+03  0.00000000000E+00 0. -1.
        -12    1    6    6    0    0  0.10362342676E+02  0.22195036570E+02 -0.54501791607E+02  0.59753184706E+02  0.00000000000E+00 0.  1.
</event>
<event>
12    1  0.2576962E-002  0.1725167E+03  0.7818608E-02  0.1175248E+00
          2   -1    0    0  502    0  0.00000000000E+00  0.00000000000E+00  0.40039553218E+03  0.40039553218E+03  0.00000000000E+00 0.  1.
         -2   -1    0    0    0  501 -0.00000000000E+00 -0.00000000000E+00 -0.76174280840E+02  0.76174280840E+02  0.00000000000E+00 0. -1.
          6    2    1    2  502    0 -0.16529334240E+02  0.48275869144E+00  0.12507868762E+03  0.21311480098E+03  0.17175502425E+03 0.  0.
         24    2    3    3    0    0 -0.16093997588E+02  0.38936968997E+02  0.82277198285E+01  0.90008527860E+02  0.79112169739E+02 0.  0.
         -6    2    1    2    0  501  0.16529334240E+02 -0.48275869144E+00  0.19914256372E+03  0.26345501204E+03  0.17168963491E+03 0.  0.
        -24    2    5    5    0    0 -0.53518015659E+02 -0.50191014440E+01  0.78459209822E+02  0.12376331028E+03  0.79196843277E+02 0.  0.
          5    1    3    3  502    0 -0.43533665165E+00 -0.38454210306E+02  0.11685096779E+03  0.12310627312E+03  0.47000000000E+01 0. -1.
        -11    1    4    4    0    0 -0.66041618640E+01 -0.13187560462E+02  0.29448474860E+02  0.32935381832E+02  0.00000000000E+00 0.  1.
         12    1    4    4    0    0 -0.94898357239E+01  0.52124529459E+02 -0.21220755031E+02  0.57073146028E+02  0.00000000000E+00 0. -1.
         -5    1    5    5    0  501  0.70047349899E+02  0.45363427526E+01  0.12068335390E+03  0.13969170176E+03  0.47000000000E+01 0.  1.
         11    1    6    6    0    0 -0.45097668084E+02 -0.39644321220E+02  0.47593971874E+02  0.76620219462E+02  0.00000000000E+00 0. -1.
        -12    1    6    6    0    0 -0.84203475755E+01  0.34625219776E+02  0.30865237948E+02  0.47143090814E+02  0.00000000000E+00 0.  1.
</event>
<event>
12    1  0.2576962E-002  0.2396358E+03  0.7818608E-02  0.1120036E+00
          1   -1    0    0  502    0  0.00000000000E+00  0.00000000000E+00  0.52671073598E+03  0.52671073598E+03  0.00000000000E+00 0. -1.
         -1   -1    0    0    0  501 -0.00000000000E+00 -0.00000000000E+00 -0.10998144463E+03  0.10998144463E+03  0.00000000000E+00 0.  1.
          6    2    1    2  502    0  0.13755868416E+03  0.96699013386E+02  0.23693458140E+03  0.33612620489E+03  0.16902585296E+03 0.  0.
         24    2    3    3    0    0  0.14724242059E+03  0.10715814779E+03  0.14529686671E+03  0.24326755425E+03  0.70033737712E+02 0.  0.
         -6    2    1    2    0  501 -0.13755868416E+03 -0.96699013386E+02  0.17979470995E+03  0.30056597572E+03  0.17245485571E+03 0.  0.
        -24    2    5    5    0    0 -0.37474273442E+02 -0.41980675207E+02  0.62455388833E+01  0.92834440850E+02  0.73569887801E+02 0.  0.
          5    1    3    3  502    0 -0.96837364304E+01 -0.10459134402E+02  0.91637714692E+02  0.92858650634E+02  0.47000000000E+01 0. -1.
        -11    1    4    4    0    0  0.12293279122E+03  0.57044391036E+02  0.12382536394E+03  0.18357356689E+03  0.00000000000E+00 0.  1.
         12    1    4    4    0    0  0.24309629370E+02  0.50113756752E+02  0.21471502765E+02  0.59693987360E+02  0.00000000000E+00 0. -1.
         -5    1    5    5    0  501 -0.10008441072E+03 -0.54718338179E+02  0.17354917107E+03  0.20773153487E+03  0.47000000000E+01 0.  1.
         11    1    6    6    0    0  0.64499943505E+01  0.16911796200E+02  0.68783177697E+01  0.19362916443E+02  0.00000000000E+00 0. -1.
        -12    1    6    6    0    0 -0.43924267792E+02 -0.58892471407E+02 -0.63277888643E+00  0.73471524407E+02  0.00000000000E+00 0.  1.
</event>
<event>
12    1  0.2576962E-002  0.2126557E+03  0.7818608E-02  0.1139480E+00
         -2   -1    0    0    0  501 -0.00000000000E+00  0.00000000000E+00  0.44399051547E+03  0.44399051547E+03  0.00000000000E+00 0.  1.
          2   -1    0    0  502    0  0.00000000000E+00 -0.00000000000E+00 -0.21691303708E+03  0.21691303708E+03  0.00000000000E+00 0. -1.
          6    2    1    2  502    0  0.12508527804E+03 -0.77754383821E+00  0.35411342046E+03  0.41286281280E+03  0.17150060142E+03 0.  0.
         24    2    3    3    0    0 -0.46548702539E+01 -0.13930827802E+02  0.15954616742E+03  0.17858942354E+03  0.78888952858E+02 0.  0.
         -6    2    1    2    0  501 -0.12508527804E+03  0.77754383821E+00 -0.12703594207E+03  0.24804073976E+03  0.17245041793E+03 0.  0.
        -24    2    5    5    0    0 -0.10879304025E+03 -0.61565106927E+02 -0.93315962675E+02  0.17516296450E+03  0.79674382607E+02 0.  0.
          5    1    3    3  502    0  0.12974014829E+03  0.13153283963E+02  0.19456725304E+03  0.23427338925E+03  0.47000000000E+01 0. -1.
        -13    1    4    4    0    0  0.47633423515E+01 -0.22804298624E+00  0.16174678793E+03  0.16181707216E+03  0.00000000000E+00 0.  1.
         14    1    4    4    0    0 -0.94182126054E+01 -0.13702784815E+02 -0.22006205163E+01  0.16772351386E+02  0.00000000000E+00 0. -1.
         -5    1    5    5    0  501 -0.16292237791E+02  0.62342650766E+02 -0.33719979391E+02  0.72877775260E+02  0.47000000000E+01 0.  1.
         13    1    6    6    0    0 -0.10633656517E+03 -0.49885838060E+02 -0.10566370475E+03  0.15799012765E+03  0.00000000000E+00 0. -1.
        -14    1    6    6    0    0 -0.24564750736E+01 -0.11679268868E+02  0.12347742077E+02  0.17172836850E+02  0.00000000000E+00 0.  1.
</event>
<event>
12    1  0.2576962E-002  0.2393063E+03  0.7818608E-02  0.1120256E+00
         -2   -1    0    0    0  501 -0.00000000000E+00  0.00000000000E+00  0.50905115119E+02  0.50905115119E+02  0.00000000000E+00 0. -1.
          2   -1    0    0  502    0  0.00000000000E+00 -0.00000000000E+00 -0.14545574596E+04  0.14545574596E+04  0.00000000000E+00 0.  1.
          6    2    1    2  502    0 -0.40406136065E+02 -0.15820591927E+03 -0.10561201904E+04  0.10825091784E+04  0.17255287892E+03 0.  0.
         24    2    3    3    0    0  0.10118178344E+02 -0.46259078789E+02 -0.69432670654E+03  0.70040786147E+03  0.78989347899E+02 0.  0.
         -6    2    1    2    0  501  0.40406136065E+02  0.15820591927E+03 -0.34753215405E+03  0.42295339629E+03  0.17733924723E+03 0.  0.
        -24    2    5    5    0    0 -0.19420514262E+02  0.13881431333E+03 -0.16938049150E+03  0.23396829810E+03  0.80030267108E+02 0.  0.
          5    1    3    3  502    0 -0.50524314409E+02 -0.11194684048E+03 -0.36179348387E+03  0.38210131695E+03  0.47000000000E+01 0. -1.
        -13    1    4    4    0    0  0.10683994866E+02 -0.63438721127E+02 -0.36450190327E+03  0.37013545706E+03  0.00000000000E+00 0.  1.
         14    1    4    4    0    0 -0.56581652190E+00  0.17179642338E+02 -0.32982480327E+03  0.33027240440E+03  0.00000000000E+00 0. -1.
         -5    1    5    5    0  501  0.59826650326E+02  0.19391605941E+02 -0.17815166254E+03  0.18898509819E+03  0.47000000000E+01 0.  1.
         11    1    6    6    0    0  0.12033535008E+02  0.11406499535E+02  0.34745792236E+01  0.16940687625E+02  0.00000000000E+00 0. -1.
        -12    1    6    6    0    0 -0.31454049270E+02  0.12740781380E+03 -0.17285507073E+03  0.21702761047E+03  0.00000000000E+00 0.  1.
</event>
<event>
12    1  0.2576962E-002  0.1965775E+03  0.7818608E-02  0.1152659E+00
         -1   -1    0    0    0  501 -0.00000000000E+00  0.00000000000E+00  0.19535154598E+03  0.19535154598E+03  0.00000000000E+00 0.  1.
          1   -1    0    0  502    0  0.00000000000E+00 -0.00000000000E+00 -0.19828544192E+03  0.19828544192E+03  0.00000000000E+00 0. -1.
          6    2    1    2  502    0  0.93748473424E+02  0.16314431268E+02 -0.94339754839E+01  0.19154377370E+03  0.16596710642E+03 0.  0.
         24    2    3    3    0    0  0.11108879268E+03 -0.14484138969E+02 -0.42856603203E+02  0.14267250766E+03  0.77254422944E+02 0.  0.
         -6    2    1    2    0  501 -0.93748473424E+02 -0.16314431268E+02  0.65000795399E+01  0.20209321420E+03  0.17816980455E+03 0.  0.
        -24    2    5    5    0    0 -0.11257035052E+03  0.23241794221E+02  0.40869445581E+02  0.14621565739E+03  0.80600509121E+02 0.  0.
          5    1    3    3  502    0 -0.17340319253E+02  0.30798570237E+02  0.33422627719E+02  0.48871266037E+02  0.47000000000E+01 0. -1.
        -11    1    4    4    0    0  0.47193421276E+02  0.12930438920E+02  0.16099618836E+02  0.51513231203E+02  0.00000000000E+00 0.  1.
         12    1    4    4    0    0  0.63895371401E+02 -0.27414577889E+02 -0.58956222039E+02  0.91159276458E+02  0.00000000000E+00 0. -1.
         -5    1    5    5    0  501  0.18821877095E+02 -0.39556225489E+02 -0.34369366041E+02  0.55877556804E+02  0.47000000000E+01 0.  1.
         11    1    6    6    0    0 -0.79351016561E+01  0.27691728934E+02 -0.90538372678E+01  0.30195523823E+02  0.00000000000E+00 0. -1.
        -12    1    6    6    0    0 -0.10463524886E+03 -0.44499347134E+01  0.49923282849E+02  0.11602013357E+03  0.00000000000E+00 0.  1.
</event>
<event>
12    1  0.2576962E-002  0.2993413E+03  0.7818608E-02  0.1085570E+00
         -2   -1    0    0    0  501 -0.00000000000E+00  0.00000000000E+00  0.31913801666E+02  0.31913801666E+02  0.00000000000E+00 0. -1.
          2   -1    0    0  502    0  0.00000000000E+00 -0.00000000000E+00 -0.35751425687E+04  0.35751425687E+04  0.00000000000E+00 0.  1.
          6    2    1    2  502    0  0.16130718827E+03 -0.18473693924E+03 -0.93567807529E+03  0.98237145990E+03  0.17150066746E+03 0.  0.
         24    2    3    3    0    0  0.56346471391E+02 -0.15337202275E+03 -0.46728485243E+03  0.50131552625E+03  0.79146834136E+02 0.  0.
         -6    2    1    2    0  501 -0.16130718827E+03  0.18473693924E+03 -0.26075506918E+04  0.26246849105E+04  0.17176298643E+03 0.  0.
        -24    2    5    5    0    0 -0.17826074546E+03  0.19755922095E+03 -0.23802044169E+04  0.23962987185E+04  0.77897000893E+02 0.  0.
          5    1    3    3  502    0  0.10496071688E+03 -0.31364916494E+02 -0.46839322286E+03  0.48105593364E+03  0.47000000000E+01 0. -1.
        -13    1    4    4    0    0  0.21554626618E+02 -0.90427870731E+02 -0.15401055498E+03  0.17989178074E+03  0.00000000000E+00 0.  1.
         14    1    4    4    0    0  0.34791844773E+02 -0.62944152015E+02 -0.31327429745E+03  0.32142374551E+03  0.00000000000E+00 0. -1.
         -5    1    5    5    0  501  0.16953557191E+02 -0.12822281713E+02 -0.22734627491E+03  0.22838619206E+03  0.47000000000E+01 0.  1.
         13    1    6    6    0    0 -0.89729202736E+01  0.13488445601E+02 -0.46662557006E+02  0.49394794152E+02  0.00000000000E+00 0. -1.
        -14    1    6    6    0    0 -0.16928782519E+03  0.18407077535E+03 -0.23335418599E+04  0.23469039243E+04  0.00000000000E+00 0.  1.
</event>
<event>
12    1  0.2576962E-002  0.2059187E+03  0.7818608E-02  0.1144839E+00
          1   -1    0    0  502    0  0.00000000000E+00  0.00000000000E+00  0.16711798930E+04  0.16711798930E+04  0.00000000000E+00 0. -1.
         -1   -1    0    0    0  501 -0.00000000000E+00 -0.00000000000E+00 -0.26398247746E+02  0.26398247746E+02  0.00000000000E+00 0.  1.
          6    2    1    2  502    0  0.72544529508E+02  0.68321501942E+02  0.63030795746E+03  0.66094926206E+03  0.17214897440E+03 0.  0.
         24    2    3    3    0    0 -0.66545991359E+01  0.86535889872E+02  0.38175202197E+03  0.39940307307E+03  0.79091494959E+02 0.  0.
         -6    2    1    2    0  501 -0.72544529508E+02 -0.68321501942E+02  0.10144736878E+04  0.10366288787E+04  0.18844636510E+03 0.  0.
        -24    2    5    5    0    0  0.31848036786E+02 -0.16190835272E+02  0.30478370340E+03  0.31739499583E+03  0.81055764298E+02 0.  0.
          5    1    3    3  502    0  0.79199128644E+02 -0.18214387930E+02  0.24855593549E+03  0.26154618899E+03  0.47000000000E+01 0. -1.
        -13    1    4    4    0    0  0.33582560834E+02  0.44836859333E+02  0.13973846158E+03  0.15054889568E+03  0.00000000000E+00 0.  1.
         14    1    4    4    0    0 -0.40237159969E+02  0.41699030540E+02  0.24201356039E+03  0.24885417739E+03  0.00000000000E+00 0. -1.
         -5    1    5    5    0  501 -0.10439256629E+03 -0.52130666670E+02  0.70968998442E+03  0.71923388288E+03  0.47000000000E+01 0.  1.
         13    1    6    6    0    0  0.11976580039E+02 -0.28482329728E+02  0.28531008047E+03  0.28697826327E+03  0.00000000000E+00 0. -1.
        -14    1    6    6    0    0  0.19871456747E+02  0.12291494455E+02  0.19473622931E+02  0.30416732554E+02  0.00000000000E+00 0.  1.
</event>
<event>
12    1  0.2576962E-002  0.1887000E+03  0.7818608E-02  0.1159639E+00
          2   -1    0    0  502    0  0.00000000000E+00  0.00000000000E+00  0.19989437757E+03  0.19989437757E+03  0.00000000000E+00 0.  1.
         -2   -1    0    0    0  501 -0.00000000000E+00 -0.00000000000E+00 -0.18087273746E+03  0.18087273746E+03  0.00000000000E+00 0. -1.
          6    2    1    2  502    0 -0.46368194329E+02  0.64835010794E+02  0.32943284854E+02  0.19154028617E+03  0.17102290238E+03 0.  0.
         24    2    3    3    0    0  0.40587570094E+02  0.45755925261E+02  0.12351821429E+02  0.10004485001E+03  0.78201336172E+02 0.  0.
         -6    2    1    2    0  501  0.46368194329E+02 -0.64835010794E+02 -0.13921644743E+02  0.18922682887E+03  0.17105377079E+03 0.  0.
        -24    2    5    5    0    0  0.89858496442E+02 -0.73083108853E+02  0.53221510089E+01  0.14073094064E+03  0.79757019633E+02 0.  0.
          5    1    3    3  502    0 -0.86955764423E+02  0.19079085533E+02  0.20591463425E+02  0.91495436155E+02  0.47000000000E+01 0. -1.
        -11    1    4    4    0    0  0.53853002394E+01 -0.13753960886E+02 -0.19050455578E+02  0.24105865603E+02  0.00000000000E+00 0.  1.
         12    1    4    4    0    0  0.35202269855E+02  0.59509886147E+02  0.31402277007E+02  0.75938984411E+02  0.00000000000E+00 0. -1.
         -5    1    5    5    0  501 -0.43490302113E+02  0.82480980592E+01 -0.19243795752E+02  0.48495888222E+02  0.47000000000E+01 0.  1.
         13    1    6    6    0    0  0.97347569227E+01 -0.53567066554E+02 -0.13609174633E+02  0.56119566514E+02  0.00000000000E+00 0. -1.
        -14    1    6    6    0    0  0.80123739519E+02 -0.19516042299E+02  0.18931325642E+02  0.84611374130E+02  0.00000000000E+00 0.  1.
</event>
<event>
12    1  0.2576962E-002  0.1701411E+03  0.7818608E-02  0.1177701E+00
          2   -1    0    0  502    0  0.00000000000E+00  0.00000000000E+00  0.39746758261E+03  0.39746758261E+03  0.00000000000E+00 0.  1.
         -2   -1    0    0    0  501 -0.00000000000E+00 -0.00000000000E+00 -0.82769236019E+02  0.82769236019E+02  0.00000000000E+00 0. -1.
          6    2    1    2  502    0  0.85426995725E+01 -0.10375748904E+02  0.24154769695E+03  0.29617563119E+03  0.17086275406E+03 0.  0.
         24    2    3    3    0    0  0.43635697644E+02 -0.31764334254E+02  0.23567841635E+03  0.25439610807E+03  0.79120268147E+02 0.  0.
         -6    2    1    2    0  501 -0.85426995725E+01  0.10375748904E+02  0.73150649633E+02  0.18406118743E+03  0.16836528531E+03 0.  0.
        -24    2    5    5    0    0  0.38846826545E+02 -0.19051610807E+02  0.87254928895E+02  0.12633114864E+03  0.80461771633E+02 0.  0.
          5    1    3    3  502    0 -0.35092998072E+02  0.21388585350E+02  0.58692806054E+01  0.41779523116E+02  0.47000000000E+01 0. -1.
        -13    1    4    4    0    0  0.27754141796E+02 -0.32397470766E+02  0.41325364321E+02  0.59394227288E+02  0.00000000000E+00 0.  1.
         14    1    4    4    0    0  0.15881555848E+02  0.63313651205E+00  0.19435305203E+03  0.19500188079E+03  0.00000000000E+00 0. -1.
         -5    1    5    5    0  501 -0.47389526117E+02  0.29427359711E+02 -0.14104279262E+02  0.57730038790E+02  0.47000000000E+01 0.  1.
         11    1    6    6    0    0  0.22797998580E+02 -0.47285375494E+02  0.29880296625E+02  0.60402711870E+02  0.00000000000E+00 0. -1.
        -12    1    6    6    0    0  0.16048827965E+02  0.28233764686E+02  0.57374632270E+02  0.65928436775E+02  0.00000000000E+00 0.  1.
</event>
<event>
12    1  0.2576962E-002  0.2053551E+03  0.7818608E-02  0.1145298E+00
          2   -1    0    0  502    0  0.00000000000E+00  0.00000000000E+00  0.24286888985E+04  0.24286888985E+04  0.00000000000E+00 0.  1.
         -2   -1    0    0    0  501 -0.00000000000E+00 -0.00000000000E+00 -0.18817675193E+02  0.18817675193E+02  0.00000000000E+00 0. -1.
          6    2    1    2  502    0 -0.71969075867E+02 -0.88186194269E+02  0.15511592974E+04  0.15648424778E+04  0.17228018373E+03 0.  0.
         24    2    3    3    0    0 -0.86568989277E+02 -0.10987592076E+03  0.97367484960E+03  0.98674734796E+03  0.77850549720E+02 0.  0.
         -6    2    1    2    0  501  0.71969075867E+02  0.88186194269E+02  0.85871192590E+03  0.88266409588E+03  0.16956822145E+03 0.  0.
        -24    2    5    5    0    0  0.10336264974E+03  0.28747252255E+02  0.63915075806E+03  0.65299533280E+03  0.79868462247E+02 0.  0.
          5    1    3    3  502    0  0.14599913410E+02  0.21689726491E+02  0.57748444777E+03  0.57809512982E+03  0.47000000000E+01 0. -1.
        -11    1    4    4    0    0 -0.60520979350E+02 -0.11640430761E+03  0.74064756987E+03  0.75217788756E+03  0.00000000000E+00 0.  1.
         12    1    4    4    0    0 -0.26048009926E+02  0.65283868468E+01  0.23302727973E+03  0.23456946040E+03  0.00000000000E+00 0. -1.
         -5    1    5    5    0  501 -0.31393573873E+02  0.59438942014E+02  0.21956116784E+03  0.22966876308E+03  0.47000000000E+01 0.  1.
         13    1    6    6    0    0  0.73638347663E+02  0.55045964251E+02  0.49578559474E+03  0.50423805923E+03  0.00000000000E+00 0. -1.
        -14    1    6    6    0    0  0.29724302077E+02 -0.26298711997E+02  0.14336516332E+03  0.14875727357E+03  0.00000000000E+00 0.  1.
</event>
<event>
12    1  0.2576962E-002  0.3107720E+03  0.7818608E-02  0.1079976E+00
          2   -1    0    0  502    0  0.00000000000E+00  0.00000000000E+00  0.10229921589E+04  0.10229921589E+04  0.00000000000E+00 0.  1.
         -2   -1    0    0    0  501 -0.00000000000E+00 -0.00000000000E+00 -0.94424977502E+02  0.94424977502E+02  0.00000000000E+00 0. -1.
          6    2    1    2  502    0 -0.21602398283E+03  0.14272860355E+03  0.45756355495E+03  0.55335077890E+03  0.17261188331E+03 0.  0.
         24    2    3    3    0    0 -0.20514638545E+03  0.17119031592E+03  0.39819117139E+03  0.48645114418E+03  0.81776176073E+02 0.  0.
         -6    2    1    2    0  501  0.21602398283E+03 -0.14272860355E+03  0.47100362644E+03  0.56406635750E+03  0.17113919514E+03 0.  0.
        -24    2    5    5    0    0  0.14088472861E+03 -0.14344483168E+03  0.25846210961E+03  0.33858374867E+03  0.86089292423E+02 0.  0.
          5    1    3    3  502    0 -0.10877597383E+02 -0.28461712372E+02  0.59372383558E+02  0.66899634718E+02  0.47000000000E+01 0. -1.
        -13    1    4    4    0    0 -0.17409556003E+02  0.57168782775E+02  0.83134869462E+02  0.10238539390E+03  0.00000000000E+00 0.  1.
         14    1    4    4    0    0 -0.18773682944E+03  0.11402153314E+03  0.31505630193E+03  0.38406575028E+03  0.00000000000E+00 0. -1.
         -5    1    5    5    0  501  0.75139254215E+02  0.71622812780E+00  0.21254151683E+03  0.22548260883E+03  0.47000000000E+01 0.  1.
         13    1    6    6    0    0  0.97825209776E+02 -0.48619478800E+02  0.95033462978E+02  0.14479290201E+03  0.00000000000E+00 0. -1.
        -14    1    6    6    0    0  0.43059518837E+02 -0.94825352875E+02  0.16342864664E+03  0.19379084667E+03  0.00000000000E+00 0.  1.
</event>
<event>
12    1  0.2576962E-002  0.3812055E+03  0.7818608E-02  0.1050489E+00
         -1   -1    0    0    0  501 -0.00000000000E+00  0.00000000000E+00  0.59219833822E+03  0.59219833822E+03  0.00000000000E+00 0.  1.
          1   -1    0    0  502    0  0.00000000000E+00 -0.00000000000E+00 -0.48094772539E+03  0.48094772539E+03  0.00000000000E+00 0. -1.
          6    2    1    2  502    0  0.17557405236E+03  0.29150664589E+03 -0.31990326003E+03  0.49754871778E+03  0.17150585507E+03 0.  0.
         24    2    3    3    0    0  0.19654938345E+03  0.28573988582E+03 -0.31399337157E+03  0.47452184614E+03  0.79373815531E+02 0.  0.
         -6    2    1    2    0  501 -0.17557405236E+03 -0.29150664589E+03  0.43115387287E+03  0.57559734583E+03  0.17209378252E+03 0.  0.
        -24    2    5    5    0    0 -0.18906073457E+03 -0.23865755721E+03  0.30662077146E+03  0.43956242341E+03  0.80606672285E+02 0.  0.
          5    1    3    3  502    0 -0.20975331085E+02  0.57667600698E+01 -0.59098884618E+01  0.23026871639E+02  0.47000000000E+01 0. -1.
        -13    1    4    4    0    0  0.63556230062E+02  0.11062677564E+03 -0.16643545403E+03  0.20971036747E+03  0.00000000000E+00 0.  1.
         14    1    4    4    0    0  0.13299315338E+03  0.17511311018E+03 -0.14755791754E+03  0.26481147867E+03  0.00000000000E+00 0. -1.
         -5    1    5    5    0  501  0.13486682211E+02 -0.52849088681E+02  0.12453310141E+03  0.13603492242E+03  0.47000000000E+01 0.  1.
         13    1    6    6    0    0  0.69510022507E+01 -0.32588777845E+01  0.13829068382E+02  0.15817074603E+02  0.00000000000E+00 0. -1.
        -14    1    6    6    0    0 -0.19601173682E+03 -0.23539867943E+03  0.29279170308E+03  0.42374534881E+03  0.00000000000E+00 0.  1.
</event>
<event>
12    1  0.2576962E-002  0.2114308E+03  0.7818608E-02  0.1140438E+00
         -4   -1    0    0    0  501 -0.00000000000E+00  0.00000000000E+00  0.64761178737E+02  0.64761178737E+02  0.00000000000E+00 0.  1.
          4   -1    0    0  502    0  0.00000000000E+00 -0.00000000000E+00 -0.72349772719E+03  0.72349772719E+03  0.00000000000E+00 0. -1.
          6    2    1    2  502    0 -0.41944741464E+02  0.11520855840E+03 -0.41378149523E+03  0.46465625311E+03  0.17221479174E+03 0.  0.
         24    2    3    3    0    0 -0.55378420378E+02  0.70073059612E+02 -0.39730452147E+03  0.41454380311E+03  0.77580144326E+02 0.  0.
         -6    2    1    2    0  501  0.41944741464E+02 -0.11520855840E+03 -0.24495505322E+03  0.32360265282E+03  0.17228849511E+03 0.  0.
        -24    2    5    5    0    0  0.66224694618E+02 -0.13084227124E+03 -0.21939017539E+03  0.28474931215E+03  0.10697995883E+03 0.  0.
          5    1    3    3  502    0  0.13433678914E+02  0.45135498788E+02 -0.16476973759E+02  0.50112449993E+02  0.47000000000E+01 0. -1.
        -13    1    4    4    0    0 -0.53110173342E+01  0.60467517477E+02 -0.14591491524E+03  0.15803698954E+03  0.00000000000E+00 0.  1.
         14    1    4    4    0    0 -0.50067403044E+02  0.96055421345E+01 -0.25138960623E+03  0.25650681357E+03  0.00000000000E+00 0. -1.
         -5    1    5    5    0  501 -0.24279953153E+02  0.15633712843E+02 -0.25564877839E+02  0.38853340671E+02  0.47000000000E+01 0.  1.
         11    1    6    6    0    0 -0.94936747475E+01 -0.60211723491E+02 -0.27859815088E+02  0.67020525234E+02  0.00000000000E+00 0. -1.
        -12    1    6    6    0    0  0.75718369365E+02 -0.70630547752E+02 -0.19153036030E+03  0.21772878691E+03  0.00000000000E+00 0.  1.
</event>
<event>
12    1  0.2576962E-002  0.1766105E+03  0.7818608E-02  0.1171124E+00
         -2   -1    0    0    0  501 -0.00000000000E+00  0.00000000000E+00  0.21321716201E+03  0.21321716201E+03  0.00000000000E+00 0.  1.
          2   -1    0    0  502    0  0.00000000000E+00 -0.00000000000E+00 -0.15700394600E+03  0.15700394600E+03  0.00000000000E+00 0. -1.
          6    2    1    2  502    0  0.44991484910E+02  0.50711218506E+01  0.76687465652E+02  0.19413162989E+03  0.17249977492E+03 0.  0.
         24    2    3    3    0    0 -0.47300351520E+02 -0.15311590245E+02  0.55744740763E+02  0.97209363361E+02  0.62212668747E+02 0.  0.
         -6    2    1    2    0  501 -0.44991484910E+02 -0.50711218506E+01 -0.20474249637E+02  0.17608947811E+03  0.16893300274E+03 0.  0.
        -24    2    5    5    0    0  0.57596460903E+00  0.56428383801E+02 -0.59054043380E+00  0.96868057131E+02  0.78731045469E+02 0.  0.
          5    1    3    3  502    0  0.92291836430E+02  0.20382712096E+02  0.20942724889E+02  0.96922266532E+02  0.47000000000E+01 0. -1.
        -11    1    4    4    0    0 -0.53828897164E+01 -0.29893120361E+02  0.67745582790E+01  0.31120231145E+02  0.00000000000E+00 0.  1.
         12    1    4    4    0    0 -0.41917461804E+02  0.14581530116E+02  0.48970182484E+02  0.66089132216E+02  0.00000000000E+00 0. -1.
         -5    1    5    5    0  501 -0.45567449519E+02 -0.61499505652E+02 -0.19883709203E+02  0.79221420984E+02  0.47000000000E+01 0.  1.
         13    1    6    6    0    0  0.89332926324E+01  0.75013939380E+02 -0.60068042632E+01  0.75782428808E+02  0.00000000000E+00 0. -1.
        -14    1    6    6    0    0 -0.83573280234E+01 -0.18585555579E+02  0.54162638294E+01  0.21085628322E+02  0.00000000000E+00 0.  1.
</event>
<event>
12    1  0.2576962E-002  0.1901080E+03  0.7818608E-02  0.1158364E+00
          1   -1    0    0  502    0  0.00000000000E+00  0.00000000000E+00  0.93131313990E+03  0.93131313990E+03  0.00000000000E+00 0. -1.
         -1   -1    0    0    0  501 -0.00000000000E+00 -0.00000000000E+00 -0.38642179259E+03  0.38642179259E+03  0.00000000000E+00 0.  1.
          6    2    1    2  502    0  0.25995741936E+01  0.82401201735E+02  0.89729016106E+03  0.91711614055E+03  0.17080885890E+03 0.  0.
         24    2    3    3    0    0  0.20702493716E+02 -0.17594684129E+02  0.28532847598E+03  0.29675649737E+03  0.76901972440E+02 0.  0.
         -6    2    1    2    0  501 -0.25995741936E+01 -0.82401201735E+02 -0.35239881375E+03  0.40061879194E+03  0.17179574118E+03 0.  0.
        -24    2    5    5    0    0 -0.35934979766E+01 -0.10201893884E+02 -0.62534218788E+02  0.10185918732E+03  0.79672916698E+02 0.  0.
          5    1    3    3  502    0 -0.18102919522E+02  0.99995885863E+02  0.61196168508E+03  0.62035964318E+03  0.47000000000E+01 0. -1.
        -11    1    4    4    0    0  0.28394042011E+02 -0.75409745993E+01  0.33286465855E+02  0.44396809894E+02  0.00000000000E+00 0.  1.
         12    1    4    4    0    0 -0.76915482953E+01 -0.10053709530E+02  0.25204201013E+03  0.25235968747E+03  0.00000000000E+00 0. -1.
         -5    1    5    5    0  501  0.99392378302E+00 -0.72199307850E+02 -0.28986459496E+03  0.29875960462E+03  0.47000000000E+01 0.  1.
         13    1    6    6    0    0 -0.55468394568E+01  0.34520990202E+02 -0.34021151555E+02  0.48784269448E+02  0.00000000000E+00 0. -1.
        -14    1    6    6    0    0  0.19533414802E+01 -0.44722884086E+02 -0.28513067233E+02  0.53074917870E+02  0.00000000000E+00 0.  1.
</event>
<event>
12    1  0.2576962E-002  0.1933063E+03  0.7818608E-02  0.1155513E+00
         -2   -1    0    0    0  501 -0.00000000000E+00  0.00000000000E+00  0.19968088268E+02  0.19968088268E+02  0.00000000000E+00 0.  1.
          2   -1    0    0  502    0  0.00000000000E+00 -0.00000000000E+00 -0.20241263271E+04  0.20241263271E+04  0.00000000000E+00 0. -1.
          6    2    1    2  502    0  0.73717510260E+02 -0.48400227820E+02 -0.72530795525E+03  0.75084053164E+03  0.17295381068E+03 0.  0.
         24    2    3    3    0    0  0.79221165592E+02  0.10536793817E+02 -0.28224959072E+03  0.30382077019E+03  0.79089897191E+02 0.  0.
         -6    2    1    2    0  501 -0.73717510260E+02  0.48400227820E+02 -0.12788502836E+04  0.12932538837E+04  0.17108683933E+03 0.  0.
        -24    2    5    5    0    0 -0.52843701922E+01  0.38806045905E+02 -0.10593615620E+04  0.10630962597E+04  0.79955641629E+02 0.  0.
          5    1    3    3  502    0 -0.55036553313E+01 -0.58937021638E+02 -0.44305836453E+03  0.44701976144E+03  0.47000000000E+01 0. -1.
        -13    1    4    4    0    0  0.54080406872E+02  0.11379070105E+02 -0.27044496338E+03  0.27603378754E+03  0.00000000000E+00 0.  1.
         14    1    4    4    0    0  0.25140758720E+02 -0.84227628768E+00 -0.11804627333E+02  0.27786982651E+02  0.00000000000E+00 0. -1.
         -5    1    5    5    0  501 -0.68433140068E+02  0.95941819152E+01 -0.21948872157E+03  0.23015762400E+03  0.47000000000E+01 0.  1.
         11    1    6    6    0    0  0.22780832396E+01 -0.11217452572E+02 -0.70983041026E+03  0.70992269455E+03  0.00000000000E+00 0. -1.
        -12    1    6    6    0    0 -0.75624534318E+01  0.50023498477E+02 -0.34953115175E+03  0.35317356519E+03  0.00000000000E+00 0.  1.
</event>
<event>
12    1  0.2576962E-002  0.1744070E+03  0.7818608E-02  0.1173328E+00
          2   -1    0    0  502    0  0.00000000000E+00  0.00000000000E+00  0.36455655499E+04  0.36455655499E+04  0.00000000000E+00 0. -1.
         -2   -1    0    0    0  501 -0.00000000000E+00 -0.00000000000E+00 -0.83637533134E+01  0.83637533134E+01  0.00000000000E+00 0.  1.
          6    2    1    2  502    0  0.28232485200E+02 -0.14708688371E+02  0.17250848567E+04  0.17338368066E+04  0.17105230289E+03 0.  0.
         24    2    3    3    0    0 -0.25815455240E+02 -0.55752272784E+02  0.72115566518E+03  0.72760538823E+03  0.74628104095E+02 0.  0.
         -6    2    1    2    0  501 -0.28232485200E+02  0.14708688371E+02  0.19121169398E+04  0.19200924966E+04  0.17190283612E+03 0.  0.
        -24    2    5    5    0    0 -0.55224244950E+01 -0.58299177956E+02  0.10610347630E+04  0.10655699063E+04  0.78836322825E+02 0.  0.
          5    1    3    3  502    0  0.54047940440E+02  0.41043584413E+02  0.10039291915E+04  0.10062314184E+04  0.47000000000E+01 0. -1.
        -13    1    4    4    0    0 -0.21792654003E+02 -0.74408738876E+02  0.58737124779E+03  0.59246650785E+03  0.00000000000E+00 0.  1.
         14    1    4    4    0    0 -0.40228012370E+01  0.18656466092E+02  0.13378441739E+03  0.13513888039E+03  0.00000000000E+00 0. -1.
         -5    1    5    5    0  501 -0.22710060705E+02  0.73007866327E+02  0.85108217689E+03  0.85452259023E+03  0.47000000000E+01 0.  1.
         13    1    6    6    0    0  0.62553035346E+01  0.56905335962E+01  0.59022086618E+03  0.59028144293E+03  0.00000000000E+00 0. -1.
        -14    1    6    6    0    0 -0.11777728030E+02 -0.63989711552E+02  0.47081389677E+03  0.47528846342E+03  0.00000000000E+00 0.  1.
</event>
<event>
12    1  0.2576962E-002  0.3003647E+03  0.7818608E-02  0.1085058E+00
          1   -1    0    0  502    0  0.00000000000E+00  0.00000000000E+00  0.84977660670E+02  0.84977660670E+02  0.00000000000E+00 0. -1.
         -1   -1    0    0    0  501 -0.00000000000E+00 -0.00000000000E+00 -0.10805379617E+04  0.10805379617E+04  0.00000000000E+00 0.  1.
          6    2    1    2  502    0 -0.49873448771E+02 -0.24152906441E+03 -0.42047850637E+03  0.51662930809E+03  0.17111404913E+03 0.  0.
         24    2    3    3    0    0 -0.81056206961E+02 -0.21166737401E+03 -0.27715163277E+03  0.36686693746E+03  0.80032095716E+02 0.  0.
         -6    2    1    2    0  501  0.49873448771E+02  0.24152906441E+03 -0.57508179465E+03  0.64888631427E+03  0.17178686929E+03 0.  0.
        -24    2    5    5    0    0  0.80960208298E+02  0.10916558188E+03 -0.38052163035E+03  0.41147901518E+03  0.77759817243E+02 0.  0.
          5    1    3    3  502    0  0.31182758190E+02 -0.29861690406E+02 -0.14332687360E+03  0.14976237063E+03  0.47000000000E+01 0. -1.
        -13    1    4    4    0    0  0.31005776442E+01 -0.84444461817E+02 -0.12908381527E+03  0.15428257218E+03  0.00000000000E+00 0.  1.
         14    1    4    4    0    0 -0.84156784605E+02 -0.12722291219E+03 -0.14806781751E+03  0.21258436528E+03  0.00000000000E+00 0. -1.
         -5    1    5    5    0  501 -0.31086759527E+02  0.13236348253E+03 -0.19456016430E+03  0.23740729908E+03  0.47000000000E+01 0.  1.
         11    1    6    6    0    0  0.42261741486E+02  0.87638618010E+01 -0.16552128472E+03  0.17105600184E+03  0.00000000000E+00 0. -1.
        -12    1    6    6    0    0  0.38698466812E+02  0.10040172008E+03 -0.21500034562E+03  0.24042301335E+03  0.00000000000E+00 0.  1.
</event>
<event>
12    1  0.2576962E-002  0.2386836E+03  0.7818608E-02  0.1120673E+00
         -2   -1    0    0    0  501 -0.00000000000E+00  0.00000000000E+00  0.15416116358E+03  0.15416116358E+03  0.00000000000E+00 0.  1.
          2   -1    0    0  502    0  0.00000000000E+00 -0.00000000000E+00 -0.49247940482E+03  0.49247940482E+03  0.00000000000E+00 0. -1.
          6    2    1    2  502    0 -0.14827877839E+03 -0.77424797162E+02 -0.71057310446E+01  0.23781063327E+03  0.16888519931E+03 0.  0.
         24    2    3    3    0    0 -0.14335125298E+03 -0.54496141286E+02 -0.57023588526E+02  0.18245825064E+03  0.80745974716E+02 0.  0.
         -6    2    1    2    0  501  0.14827877839E+03  0.77424797162E+02 -0.33121251019E+03  0.40882993513E+03  0.17163622465E+03 0.  0.
        -24    2    5    5    0    0  0.97217132762E+02  0.11645021045E+03 -0.20395771617E+03  0.26619001386E+03  0.79035125613E+02 0.  0.
          5    1    3    3  502    0 -0.49275254099E+01 -0.22928655876E+02  0.49917857481E+02  0.55352382627E+02  0.47000000000E+01 0. -1.
        -13    1    4    4    0    0 -0.98756540977E+02 -0.18636301962E+02  0.16316417678E+01  0.10051282700E+03  0.00000000000E+00 0.  1.
         14    1    4    4    0    0 -0.44594712000E+02 -0.35859839324E+02 -0.58655230294E+02  0.81945423640E+02  0.00000000000E+00 0. -1.
         -5    1    5    5    0  501  0.51061645625E+02 -0.39025413284E+02 -0.12725479402E+03  0.14263992126E+03  0.47000000000E+01 0.  1.
         13    1    6    6    0    0  0.76142401874E+02  0.10622937069E+03 -0.20457234517E+03  0.24275952910E+03  0.00000000000E+00 0. -1.
        -14    1    6    6    0    0  0.21074730888E+02  0.10220839753E+02  0.61462900486E+00  0.23430484760E+02  0.00000000000E+00 0.  1.
</event>
<event>
12    1  0.2576962E-002  0.2261754E+03  0.7818608E-02  0.1129361E+00
         -2   -1    0    0    0  501 -0.00000000000E+00  0.00000000000E+00  0.64586722383E+02  0.64586722383E+02  0.00000000000E+00 0. -1.
          2   -1    0    0  502    0  0.00000000000E+00 -0.00000000000E+00 -0.82568552971E+03  0.82568552971E+03  0.00000000000E+00 0.  1.
          6    2    1    2  502    0  0.17218464120E+02  0.13900433793E+03 -0.29472987970E+03  0.37299927845E+03  0.18067672308E+03 0.  0.
         24    2    3    3    0    0  0.54364404287E+02  0.12284082851E+03 -0.29322320530E+03  0.33218947601E+03  0.79527619348E+02 0.  0.
         -6    2    1    2    0  501 -0.17218464120E+02 -0.13900433793E+03 -0.46636892762E+03  0.51727297364E+03  0.17450693723E+03 0.  0.
        -24    2    5    5    0    0 -0.34551281021E+02 -0.15053489792E+03 -0.46419011679E+03  0.49582029148E+03  0.80689221130E+02 0.  0.
          5    1    3    3  502    0 -0.37145940167E+02  0.16163509417E+02 -0.15066744010E+01  0.40809802442E+02  0.47000000000E+01 0. -1.
        -13    1    4    4    0    0 -0.31675631219E+01  0.73347627343E+02 -0.95901293551E+02  0.12077651261E+03  0.00000000000E+00 0.  1.
         14    1    4    4    0    0  0.57531967409E+02  0.49493201167E+02 -0.19732191175E+03  0.21141296340E+03  0.00000000000E+00 0. -1.
         -5    1    5    5    0  501  0.17332816901E+02  0.11530559992E+02 -0.21788108343E+01  0.21452682166E+02  0.47000000000E+01 0.  1.
         11    1    6    6    0    0 -0.39473328317E+02 -0.46688769066E+02 -0.10118905852E+03  0.11822525267E+03  0.00000000000E+00 0. -1.
        -12    1    6    6    0    0  0.49220472956E+01 -0.10384612885E+03 -0.36300105827E+03  0.37759503880E+03  0.00000000000E+00 0.  1.
</event>
<event>
12    1  0.2576962E-002  0.2783584E+03  0.7818608E-02  0.1096589E+00
          2   -1    0    0  502    0  0.00000000000E+00  0.00000000000E+00  0.83471581021E+03  0.83471581021E+03  0.00000000000E+00 0.  1.
         -2   -1    0    0    0  501 -0.00000000000E+00 -0.00000000000E+00 -0.95773790963E+02  0.95773790963E+02  0.00000000000E+00 0. -1.
          6    2    1    2  502    0 -0.20194095609E+03  0.81501967901E+02  0.28908520362E+03  0.40197411602E+03  0.17490058455E+03 0.  0.
         24    2    3    3    0    0 -0.83702744468E+02  0.16110575038E+02  0.45489962160E+02  0.12337576604E+03  0.76723809399E+02 0.  0.
         -6    2    1    2    0  501  0.20194095609E+03 -0.81501967901E+02  0.44985681563E+03  0.52851548516E+03  0.17185675130E+03 0.  0.
        -24    2    5    5    0    0  0.56657793283E+02 -0.32954187264E+02  0.29961235965E+03  0.31390054869E+03  0.66857343800E+02 0.  0.
          5    1    3    3  502    0 -0.11823821162E+03  0.65391392862E+02  0.24359524146E+03  0.27859834998E+03  0.47000000000E+01 0. -1.
        -13    1    4    4    0    0 -0.49002943603E+02 -0.27573191543E+02  0.36056196219E+02  0.66795349085E+02  0.00000000000E+00 0.  1.
         14    1    4    4    0    0 -0.34699800865E+02  0.43683766581E+02  0.94337659411E+01  0.56580416953E+02  0.00000000000E+00 0. -1.
         -5    1    5    5    0  501  0.14528316281E+03 -0.48547780637E+02  0.15024445598E+03  0.21461493646E+03  0.47000000000E+01 0.  1.
         11    1    6    6    0    0  0.19754030035E+02  0.14398380135E+02  0.16100936968E+03  0.16285438950E+03  0.00000000000E+00 0. -1.
        -12    1    6    6    0    0  0.36903763248E+02 -0.47352567399E+02  0.13860298996E+03  0.15104615919E+03  0.00000000000E+00 0.  1.
</event>
<event>
12    1  0.2576962E-002  0.2266260E+03  0.7818608E-02  0.1129037E+00
          1   -1    0    0  502    0  0.00000000000E+00  0.00000000000E+00  0.45054116278E+03  0.45054116278E+03  0.00000000000E+00 0.  1.
         -1   -1    0    0    0  501 -0.00000000000E+00 -0.00000000000E+00 -0.11681137046E+03  0.11681137046E+03  0.00000000000E+00 0. -1.
          6    2    1    2  502    0  0.11276171769E+03 -0.85689146217E+02  0.12389301220E+03  0.25955577090E+03  0.17877887174E+03 0.  0.
         24    2    3    3    0    0  0.46777981557E+02  0.21780143985E+02  0.84867517282E+02  0.12746269378E+03  0.79885471673E+02 0.  0.
         -6    2    1    2    0  501 -0.11276171769E+03  0.85689146217E+02  0.20983678012E+03  0.30779676234E+03  0.17507009413E+03 0.  0.
        -24    2    5    5    0    0 -0.54005087569E+02  0.10649545539E+03  0.82772220801E+02  0.16618907780E+03  0.80682944553E+02 0.  0.
          5    1    3    3  502    0  0.65983736136E+02 -0.10746929020E+03  0.39025494921E+02  0.13209307713E+03  0.47000000000E+01 0. -1.
        -13    1    4    4    0    0  0.55139385323E+02  0.23335904787E+01  0.19144605459E+02  0.58415009856E+02  0.00000000000E+00 0.  1.
         14    1    4    4    0    0 -0.83614037657E+01  0.19446553506E+02  0.65722911823E+02  0.69047683919E+02  0.00000000000E+00 0. -1.
         -5    1    5    5    0  501 -0.58756630124E+02 -0.20806309172E+02  0.12706455932E+03  0.14160768454E+03  0.47000000000E+01 0.  1.
         11    1    6    6    0    0 -0.57113171618E+02  0.35679326790E+02  0.16916948413E+02  0.69434226978E+02  0.00000000000E+00 0. -1.
        -12    1    6    6    0    0  0.31080840490E+01  0.70816128599E+02  0.65855272388E+02  0.96754850822E+02  0.00000000000E+00 0.  1.
</event>
<event>
12    1  0.2576962E-002  0.1869112E+03  0.7818608E-02  0.1161277E+00
          1   -1    0    0  502    0  0.00000000000E+00  0.00000000000E+00  0.16852720397E+03  0.16852720397E+03  0.00000000000E+00 0.  1.
         -1   -1    0    0    0  501 -0.00000000000E+00 -0.00000000000E+00 -0.20889971751E+03  0.20889971751E+03  0.00000000000E+00 0. -1.
          6    2    1    2  502    0  0.72530472703E+02  0.17343386307E+02 -0.36371153436E+01  0.18653837543E+03  0.17094406799E+03 0.  0.
         24    2    3    3    0    0  0.58605265395E+02 -0.36810269409E+02  0.41664624238E+02  0.11442133559E+03  0.81035350673E+02 0.  0.
         -6    2    1    2    0  501 -0.72530472703E+02 -0.17343386307E+02 -0.36735398197E+02  0.19088854606E+03  0.17183563372E+03 0.  0.
        -24    2    5    5    0    0  0.46026448273E+01  0.33133117573E+02 -0.48851202146E+02  0.97795700094E+02  0.77836824101E+02 0.  0.
          5    1    3    3  502    0  0.13925207307E+02  0.54153655716E+02 -0.45301739582E+02  0.72117039839E+02  0.47000000000E+01 0. -1.
        -11    1    4    4    0    0  0.85963008485E+01 -0.51945500212E+02  0.30982909067E+02  0.61091505422E+02  0.00000000000E+00 0.  1.
         12    1    4    4    0    0  0.50008964547E+02  0.15135230803E+02  0.10681715172E+02  0.53329830165E+02  0.00000000000E+00 0. -1.
         -5    1    5    5    0  501 -0.77133117530E+02 -0.50476503880E+02  0.12115803950E+02  0.93092845961E+02  0.47000000000E+01 0.  1.
         13    1    6    6    0    0  0.13058232088E+02 -0.23635676811E+02 -0.19674841158E+02  0.33410507601E+02  0.00000000000E+00 0. -1.
        -14    1    6    6    0    0 -0.84555872605E+01  0.56768794384E+02 -0.29176360989E+02  0.64385192493E+02  0.00000000000E+00 0.  1.
</event>
<event>
12    1  0.2576962E-002  0.2083270E+03  0.7818608E-02  0.1142898E+00
          2   -1    0    0  502    0  0.00000000000E+00  0.00000000000E+00  0.68101952038E+02  0.68101952038E+02  0.00000000000E+00 0.  1.
         -2   -1    0    0    0  501 -0.00000000000E+00 -0.00000000000E+00 -0.64417608335E+03  0.64417608335E+03  0.00000000000E+00 0. -1.
          6    2    1    2  502    0  0.83850416322E+02  0.78542028149E+02 -0.25314423638E+03  0.32872093640E+03  0.17543006330E+03 0.  0.
         24    2    3    3    0    0  0.13635486422E+02 -0.11601430749E+02 -0.16657818386E+03  0.18529237923E+03  0.79148308736E+02 0.  0.
         -6    2    1    2    0  501 -0.83850416322E+02 -0.78542028149E+02 -0.32292989493E+03  0.38355709899E+03  0.17214118811E+03 0.  0.
        -24    2    5    5    0    0 -0.72326424190E+02  0.17411205009E+02 -0.16433091063E+03  0.19777347977E+03  0.81089083220E+02 0.  0.
          5    1    3    3  502    0  0.70214929899E+02  0.90143458898E+02 -0.86566052524E+02  0.14342855717E+03  0.47000000000E+01 0. -1.
        -11    1    4    4    0    0 -0.13436192710E+02  0.76359931098E+01 -0.18981450507E-01  0.15454450026E+02  0.00000000000E+00 0.  1.
         12    1    4    4    0    0  0.27071679132E+02 -0.19237423859E+02 -0.16655920241E+03  0.16983792920E+03  0.00000000000E+00 0. -1.
         -5    1    5    5    0  501 -0.11523992131E+02 -0.95953233158E+02 -0.15859898430E+03  0.18578361922E+03  0.47000000000E+01 0.  1.
         13    1    6    6    0    0 -0.42394974568E+02  0.28387817495E+02 -0.15697024363E+03  0.16505411063E+03  0.00000000000E+00 0. -1.
        -14    1    6    6    0    0 -0.29931449623E+02 -0.10976612486E+02 -0.73606669936E+01  0.32719369138E+02  0.00000000000E+00 0.  1.
</event>
<event>
12    1  0.2576962E-002  0.1913964E+03  0.7818608E-02  0.1157208E+00
         -1   -1    0    0    0  501 -0.00000000000E+00  0.00000000000E+00  0.18391430389E+02  0.18391430389E+02  0.00000000000E+00 0.  1.
          1   -1    0    0  502    0  0.00000000000E+00 -0.00000000000E+00 -0.20755868154E+04  0.20755868154E+04  0.00000000000E+00 0. -1.
          6    2    1    2  502    0  0.32284332445E+02 -0.68305069050E+02 -0.12246947280E+04  0.12391551554E+04  0.17297532154E+03 0.  0.
         24    2    3    3    0    0  0.31199333605E+02  0.22003154661E+02 -0.41559290466E+03  0.42501474799E+03  0.80389902195E+02 0.  0.
         -6    2    1    2    0  501 -0.32284332445E+02  0.68305069050E+02 -0.83250065701E+03  0.85482309036E+03  0.17876607985E+03 0.  0.
        -24    2    5    5    0    0 -0.44847785517E+02 -0.29041847167E+02 -0.42998553523E+03  0.44048654151E+03  0.79284803017E+02 0.  0.
          5    1    3    3  502    0  0.10849988400E+01 -0.90308223711E+02 -0.80910182330E+03  0.81414040740E+03  0.47000000000E+01 0. -1.
        -11    1    4    4    0    0  0.28284382639E+02  0.20487626063E+01 -0.39560883083E+03  0.39662394124E+03  0.00000000000E+00 0.  1.
         12    1    4    4    0    0  0.29149509655E+01  0.19954392054E+02 -0.19984073821E+02  0.28390806749E+02  0.00000000000E+00 0. -1.
         -5    1    5    5    0  501  0.12563453072E+02  0.97346916217E+02 -0.40251512178E+03  0.41433654885E+03  0.47000000000E+01 0.  1.
         11    1    6    6    0    0 -0.22747200286E+02  0.18882895831E+02 -0.27862906888E+03  0.28019307076E+03  0.00000000000E+00 0. -1.
        -12    1    6    6    0    0 -0.22100585231E+02 -0.47924742998E+02 -0.15135646635E+03  0.16029347075E+03  0.00000000000E+00 0.  1.
</event>
<event>
12    1  0.2576962E-002  0.2046238E+03  0.7818608E-02  0.1145896E+00
          4   -1    0    0  502    0  0.00000000000E+00  0.00000000000E+00  0.54497752940E+03  0.54497752940E+03  0.00000000000E+00 0.  1.
         -4   -1    0    0    0  501 -0.00000000000E+00 -0.00000000000E+00 -0.77508622133E+02  0.77508622133E+02  0.00000000000E+00 0. -1.
          6    2    1    2  502    0 -0.52166638068E+02 -0.10524689017E+03  0.26634969763E+03  0.33806086856E+03  0.17188578593E+03 0.  0.
         24    2    3    3    0    0  0.81882737393E+01 -0.43542204184E+02  0.22514397926E+03  0.24229978628E+03  0.77822899349E+02 0.  0.
         -6    2    1    2    0  501  0.52166638068E+02  0.10524689017E+03  0.20111920963E+03  0.28442528297E+03  0.16324992831E+03 0.  0.
        -24    2    5    5    0    0  0.39608886785E+02  0.13217466475E+03  0.12673514303E+03  0.20418887275E+03  0.81192939122E+02 0.  0.
          5    1    3    3  502    0 -0.60354911808E+02 -0.61704685987E+02  0.41205718370E+02  0.95761082274E+02  0.47000000000E+01 0. -1.
        -11    1    4    4    0    0 -0.24073767123E+02  0.49648966001E+01  0.11606151126E+03  0.11863587508E+03  0.00000000000E+00 0.  1.
         12    1    4    4    0    0  0.32262040862E+02 -0.48507100785E+02  0.10908246801E+03  0.12366391120E+03  0.00000000000E+00 0. -1.
         -5    1    5    5    0  501  0.12557751283E+02 -0.26927774576E+02  0.74384066600E+02  0.80236410219E+02  0.47000000000E+01 0.  1.
         11    1    6    6    0    0  0.58042636374E+02  0.66773428254E+02  0.92873014080E+02  0.12826938490E+03  0.00000000000E+00 0. -1.
        -12    1    6    6    0    0 -0.18433749589E+02  0.65401236493E+02  0.33862128949E+02  0.75919487852E+02  0.00000000000E+00 0.  1.
</event>
<event>
12    1  0.2576962E-002  0.1743113E+03  0.7818608E-02  0.1173425E+00
         -1   -1    0    0    0  501 -0.00000000000E+00  0.00000000000E+00  0.13598905267E+03  0.13598905267E+03  0.00000000000E+00 0. -1.
          1   -1    0    0  502    0  0.00000000000E+00 -0.00000000000E+00 -0.22344343769E+03  0.22344343769E+03  0.00000000000E+00 0.  1.
          6    2    1    2  502    0 -0.24766299839E+02 -0.84097027499E+01 -0.42452933087E+02  0.17914636052E+03  0.17206706324E+03 0.  0.
         24    2    3    3    0    0  0.40508156139E+02 -0.14100439669E+02 -0.62452354047E+02  0.11047900344E+03  0.80408833857E+02 0.  0.
         -6    2    1    2    0  501  0.24766299839E+02  0.84097027499E+01 -0.45001451927E+02  0.18028612984E+03  0.17260899522E+03 0.  0.
        -24    2    5    5    0    0  0.80615369248E+02 -0.20322383078E+02 -0.22893006739E+02  0.11353641330E+03  0.73855198694E+02 0.  0.
          5    1    3    3  502    0 -0.65274455977E+02  0.56907369190E+01  0.19999420960E+02  0.68667357082E+02  0.47000000000E+01 0. -1.
        -11    1    4    4    0    0 -0.12907204167E+02  0.16605812909E+02  0.22285967549E+01  0.21149836530E+02  0.00000000000E+00 0.  1.
         12    1    4    4    0    0  0.53415360306E+02 -0.30706252577E+02 -0.64680950802E+02  0.89329166909E+02  0.00000000000E+00 0. -1.
         -5    1    5    5    0  501 -0.55849069409E+02  0.28732085828E+02 -0.22108445188E+02  0.66749716543E+02  0.47000000000E+01 0.  1.
         13    1    6    6    0    0 -0.67947953026E+00 -0.11445344051E+02 -0.29343878011E+02  0.31504297637E+02  0.00000000000E+00 0. -1.
        -14    1    6    6    0    0  0.81294848778E+02 -0.88770390272E+01  0.64508712714E+01  0.82032115661E+02  0.00000000000E+00 0.  1.
</event>
<event>
12    1  0.2576962E-002  0.2057207E+03  0.7818608E-02  0.1145000E+00
          2   -1    0    0  502    0  0.00000000000E+00  0.00000000000E+00  0.27600679659E+04  0.27600679659E+04  0.00000000000E+00 0.  1.
         -2   -1    0    0    0  501 -0.00000000000E+00 -0.00000000000E+00 -0.16620367671E+02  0.16620367671E+02  0.00000000000E+00 0. -1.
          6    2    1    2  502    0 -0.66896491581E+02  0.91301551238E+02  0.17593992375E+04  0.17714107426E+04  0.17204426255E+03 0.  0.
         24    2    3    3    0    0 -0.10984135459E+03  0.81826257625E+02  0.14637184497E+04  0.14724404085E+04  0.82755040687E+02 0.  0.
         -6    2    1    2    0  501  0.66896491581E+02 -0.91301551238E+02  0.98404836072E+03  0.10052775910E+04  0.17152476436E+03 0.  0.
        -24    2    5    5    0    0  0.84887777855E+02 -0.55120024176E+02  0.92347227443E+03  0.93230950538E+03  0.78459035674E+02 0.  0.
          5    1    3    3  502    0  0.42944863012E+02  0.94752936129E+01  0.29568078774E+03  0.29897033413E+03  0.47000000000E+01 0. -1.
        -11    1    4    4    0    0 -0.57197105649E+02  0.74649025995E+02  0.62443430884E+03  0.63147620069E+03  0.00000000000E+00 0.  1.
         12    1    4    4    0    0 -0.52644248944E+02  0.71772316302E+01  0.83928414091E+03  0.84096420779E+03  0.00000000000E+00 0. -1.
         -5    1    5    5    0  501 -0.17991286275E+02 -0.36181527062E+02  0.60576086294E+02  0.72968085579E+02  0.47000000000E+01 0.  1.
         13    1    6    6    0    0  0.87493341383E+02 -0.52774103434E+02  0.58750939997E+03  0.59632833727E+03  0.00000000000E+00 0. -1.
        -14    1    6    6    0    0 -0.26055635279E+01 -0.23459207418E+01  0.33596287446E+03  0.33598116811E+03  0.00000000000E+00 0.  1.
</event>
<event>
12    1  0.2576962E-002  0.1747663E+03  0.7818608E-02  0.1172967E+00
         -2   -1    0    0    0  501 -0.00000000000E+00  0.00000000000E+00  0.40845208001E+02  0.40845208001E+02  0.00000000000E+00 0. -1.
          2   -1    0    0  502    0  0.00000000000E+00 -0.00000000000E+00 -0.78281084587E+03  0.78281084587E+03  0.00000000000E+00 0.  1.
          6    2    1    2  502    0 -0.30245605133E+02 -0.11564720576E+02 -0.45749935658E+03  0.48963858578E+03  0.17144020538E+03 0.  0.
         24    2    3    3    0    0 -0.80668512056E+02  0.20143682214E+02 -0.31660855440E+03  0.33660198725E+03  0.78401175576E+02 0.  0.
         -6    2    1    2    0  501  0.30245605133E+02  0.11564720576E+02 -0.28446628129E+03  0.33401746810E+03  0.17204088005E+03 0.  0.
        -24    2    5    5    0    0 -0.30201174370E+02 -0.40048479040E+02 -0.17527006765E+03  0.19887443794E+03  0.79469829770E+02 0.  0.
          5    1    3    3  502    0  0.50422906923E+02 -0.31708402790E+02 -0.14089080217E+03  0.15303659852E+03  0.47000000000E+01 0. -1.
        -11    1    4    4    0    0  0.30511207736E+01  0.23854422644E+02 -0.12763064173E+03  0.12987657035E+03  0.00000000000E+00 0.  1.
         12    1    4    4    0    0 -0.83719632829E+02 -0.37107404296E+01 -0.18897791268E+03  0.20672541691E+03  0.00000000000E+00 0. -1.
         -5    1    5    5    0  501  0.60446779503E+02  0.51613199616E+02 -0.10919621364E+03  0.13514303016E+03  0.47000000000E+01 0.  1.
         11    1    6    6    0    0  0.59116123383E+01 -0.17668019021E+02 -0.10543243604E+00  0.18631080821E+02  0.00000000000E+00 0. -1.
        -12    1    6    6    0    0 -0.36112786708E+02 -0.22380460019E+02 -0.17516463521E+03  0.18024335711E+03  0.00000000000E+00 0.  1.
</event>
<event>
12    1  0.2576962E-002  0.2475314E+03  0.7818608E-02  0.1114875E+00
          1   -1    0    0  502    0  0.00000000000E+00  0.00000000000E+00  0.30132940062E+04  0.30132940062E+04  0.00000000000E+00 0. -1.
         -1   -1    0    0    0  501 -0.00000000000E+00 -0.00000000000E+00 -0.64863944068E+02  0.64863944068E+02  0.00000000000E+00 0.  1.
          6    2    1    2  502    0  0.53612977443E+02 -0.16945334763E+03  0.27495220533E+04  0.27606458677E+04  0.17235224657E+03 0.  0.
         24    2    3    3    0    0  0.18996767112E+02 -0.35582290233E+02  0.16615347008E+04  0.16638968941E+04  0.78919804182E+02 0.  0.
         -6    2    1    2    0  501 -0.53612977443E+02  0.16945334763E+03  0.19890800883E+03  0.31751208256E+03  0.17222293176E+03 0.  0.
        -24    2    5    5    0    0 -0.12101368421E+02  0.61020031176E+02  0.16957694890E+03  0.19766468427E+03  0.80281370729E+02 0.  0.
          5    1    3    3  502    0  0.34616210332E+02 -0.13387105740E+03  0.10879873525E+04  0.10967489736E+04  0.47000000000E+01 0. -1.
        -13    1    4    4    0    0  0.38774420336E+02 -0.34541156748E+02  0.15298642872E+04  0.15307453362E+04  0.00000000000E+00 0.  1.
         14    1    4    4    0    0 -0.19777653224E+02 -0.10411334848E+01  0.13167041368E+03  0.13315155787E+03  0.00000000000E+00 0. -1.
         -5    1    5    5    0  501 -0.41511609022E+02  0.10843331646E+03  0.29331059925E+02  0.11984739829E+03  0.47000000000E+01 0.  1.
         13    1    6    6    0    0 -0.37907203747E+02  0.99868587679E+01  0.10119234534E+03  0.10851997143E+03  0.00000000000E+00 0. -1.
        -14    1    6    6    0    0  0.25805835326E+02  0.51033172408E+02  0.68384603567E+02  0.89144712843E+02  0.00000000000E+00 0.  1.
</event>
<event>
12    1  0.2576962E-002  0.2273984E+03  0.7818608E-02  0.1128484E+00
         -2   -1    0    0    0  501 -0.00000000000E+00  0.00000000000E+00  0.85387372012E+02  0.85387372012E+02  0.00000000000E+00 0. -1.
          2   -1    0    0  502    0  0.00000000000E+00 -0.00000000000E+00 -0.61440614911E+03  0.61440614911E+03  0.00000000000E+00 0.  1.
          6    2    1    2  502    0  0.13760197760E+03  0.54513860429E+02 -0.22278563800E+03  0.31845730738E+03  0.17284545381E+03 0.  0.
         24    2    3    3    0    0  0.98433750346E+02  0.10368461453E+03 -0.15997328651E+03  0.22946632702E+03  0.81385750240E+02 0.  0.
         -6    2    1    2    0  501 -0.13760197760E+03 -0.54513860429E+02 -0.30623313909E+03  0.38133621374E+03  0.17243116659E+03 0.  0.
        -24    2    5    5    0    0 -0.37088610673E+02 -0.65015476264E+02 -0.23089930949E+03  0.25519939616E+03  0.78801418028E+02 0.  0.
          5    1    3    3  502    0  0.39168227256E+02 -0.49170754099E+02 -0.62812351494E+02  0.88990980359E+02  0.47000000000E+01 0. -1.
        -13    1    4    4    0    0 -0.59662276000E+01  0.28602835564E+02 -0.59456270770E+02  0.66247763796E+02  0.00000000000E+00 0.  1.
         14    1    4    4    0    0  0.10439997795E+03  0.75081778964E+02 -0.10051701574E+03  0.16321856322E+03  0.00000000000E+00 0. -1.
         -5    1    5    5    0  501 -0.10051336693E+03  0.10501615835E+02 -0.75333829607E+02  0.12613681758E+03  0.47000000000E+01 0.  1.
         13    1    6    6    0    0 -0.18064747966E+02  0.20603742320E+01 -0.51038549141E+01  0.18884639156E+02  0.00000000000E+00 0. -1.
        -14    1    6    6    0    0 -0.19023862707E+02 -0.67075850496E+02 -0.22579545457E+03  0.23631475700E+03  0.00000000000E+00 0.  1.
</event>
<event>
12    1  0.2576962E-002  0.2732711E+03  0.7818608E-02  0.1099422E+00
          2   -1    0    0  502    0  0.00000000000E+00  0.00000000000E+00  0.24608580192E+04  0.24608580192E+04  0.00000000000E+00 0. -1.
         -2   -1    0    0    0  501 -0.00000000000E+00 -0.00000000000E+00 -0.34099738313E+02  0.34099738313E+02  0.00000000000E+00 0.  1.
          6    2    1    2  502    0  0.21207066532E+03  0.15880369324E+02  0.16283724704E+04  0.16511892946E+04  0.17205531433E+03 0.  0.
         24    2    3    3    0    0  0.24099497359E+02  0.32196047019E+01  0.54630571830E+03  0.55283416040E+03  0.81145051754E+02 0.  0.
         -6    2    1    2    0  501 -0.21207066532E+03 -0.15880369324E+02  0.79838581049E+03  0.84376846286E+03  0.17116998369E+03 0.  0.
        -24    2    5    5    0    0 -0.18179417883E+03 -0.66713522912E+02  0.67829652335E+03  0.70981249240E+03  0.79042919874E+02 0.  0.
          5    1    3    3  502    0  0.18797116796E+03  0.12660764622E+02  0.10820667521E+04  0.10983551342E+04  0.47000000000E+01 0. -1.
        -11    1    4    4    0    0  0.80038844986E+01 -0.38822902583E+02  0.24617983679E+03  0.24935074087E+03  0.00000000000E+00 0.  1.
         12    1    4    4    0    0  0.16095612860E+02  0.42042507285E+02  0.30012588151E+03  0.30348341952E+03  0.00000000000E+00 0. -1.
         -5    1    5    5    0  501 -0.30276486490E+02  0.50833153588E+02  0.12008928714E+03  0.13395597046E+03  0.47000000000E+01 0.  1.
         13    1    6    6    0    0 -0.14528240674E+03 -0.16413008973E+02  0.44656152517E+03  0.46988675267E+03  0.00000000000E+00 0. -1.
        -14    1    6    6    0    0 -0.36511772086E+02 -0.50300513939E+02  0.23173499817E+03  0.23992573972E+03  0.00000000000E+00 0.  1.
</event>
<event>
12    1  0.2576962E-002  0.1904365E+03  0.7818608E-02  0.1158068E+00
         -2   -1    0    0    0  501 -0.00000000000E+00  0.00000000000E+00  0.58445290835E+02  0.58445290835E+02  0.00000000000E+00 0.  1.
          2   -1    0    0  502    0  0.00000000000E+00 -0.00000000000E+00 -0.64379262853E+03  0.64379262853E+03  0.00000000000E+00 0. -1.
          6    2    1    2  502    0 -0.49721550471E+02 -0.64013918162E+02 -0.22573503663E+03  0.29526016180E+03  0.17219826388E+03 0.  0.
         24    2    3    3    0    0 -0.65855674647E+02 -0.47502584684E+02 -0.62858355544E+02  0.13068848338E+03  0.80838365843E+02 0.  0.
         -6    2    1    2    0  501  0.49721550471E+02  0.64013918162E+02 -0.35961230107E+03  0.40697775757E+03  0.17245252615E+03 0.  0.
        -24    2    5    5    0    0 -0.25796560537E+02  0.67971816002E+02 -0.26006891298E+03  0.28187929172E+03  0.80836039575E+02 0.  0.
          5    1    3    3  502    0  0.16134124176E+02 -0.16511333477E+02 -0.16287668108E+03  0.16457167841E+03  0.47000000000E+01 0. -1.
        -11    1    4    4    0    0 -0.18082050097E+02  0.67185527648E+01  0.15019203728E+02  0.24447412288E+02  0.00000000000E+00 0.  1.
         12    1    4    4    0    0 -0.47773624550E+02 -0.54221137449E+02 -0.77877559273E+02  0.10624107109E+03  0.00000000000E+00 0. -1.
         -5    1    5    5    0  501  0.75518111008E+02 -0.39578978403E+01 -0.99543388083E+02  0.12509846584E+03  0.47000000000E+01 0.  1.
         11    1    6    6    0    0  0.44742463876E+01  0.16252420944E+02 -0.18526941227E+03  0.18603471502E+03  0.00000000000E+00 0. -1.
        -12    1    6    6    0    0 -0.30270806925E+02  0.51719395057E+02 -0.74799500711E+02  0.95844576705E+02  0.00000000000E+00 0.  1.
</event>
<event>
12    1  0.2576962E-002  0.3066400E+03  0.7818608E-02  0.1081968E+00
          2   -1    0    0  502    0  0.00000000000E+00  0.00000000000E+00  0.11853689619E+04  0.11853689619E+04  0.00000000000E+00 0. -1.
         -2   -1    0    0    0  501 -0.00000000000E+00 -0.00000000000E+00 -0.87233111370E+02  0.87233111370E+02  0.00000000000E+00 0.  1.
          6    2    1    2  502    0  0.23108349444E+03  0.10424410215E+03  0.74142102002E+03  0.80250820766E+03  0.17334324390E+03 0.  0.
         24    2    3    3    0    0  0.93238944664E+02  0.29534956418E+02  0.18400330248E+03  0.22344070022E+03  0.80639424204E+02 0.  0.
         -6    2    1    2    0  501 -0.23108349444E+03 -0.10424410215E+03  0.35671483049E+03  0.47009386558E+03  0.17168680186E+03 0.  0.
        -24    2    5    5    0    0 -0.17940407823E+03 -0.13826607735E+03  0.31154801934E+03  0.39334500445E+03  0.79716953908E+02 0.  0.
          5    1    3    3  502    0  0.13784454978E+03  0.74709145736E+02  0.55741771753E+03  0.57906750745E+03  0.47000000000E+01 0. -1.
        -13    1    4    4    0    0  0.89685742094E+02  0.26239249591E+02  0.19231712895E+03  0.21381746570E+03  0.00000000000E+00 0.  1.
         14    1    4    4    0    0  0.35532025695E+01  0.32957068275E+01 -0.83138264640E+01  0.96232345116E+01  0.00000000000E+00 0. -1.
         -5    1    5    5    0  501 -0.51679416209E+02  0.34021975194E+02  0.45166811148E+02  0.76748861133E+02  0.47000000000E+01 0.  1.
         11    1    6    6    0    0 -0.16712351120E+03 -0.11263327244E+03  0.30255638898E+03  0.36353389191E+03  0.00000000000E+00 0. -1.
        -12    1    6    6    0    0 -0.12280567032E+02 -0.25632804912E+02  0.89916303586E+01  0.29811112539E+02  0.00000000000E+00 0.  1.
</event>
<event>
12    1  0.2576962E-002  0.2626457E+03  0.7818608E-02  0.1105564E+00
         -2   -1    0    0    0  501 -0.00000000000E+00  0.00000000000E+00  0.34038955464E+02  0.34038955464E+02  0.00000000000E+00 0.  1.
          2   -1    0    0  502    0  0.00000000000E+00 -0.00000000000E+00 -0.20265836577E+04  0.20265836577E+04  0.00000000000E+00 0. -1.
          6    2    1    2  502    0 -0.15489233454E+03  0.12510674583E+03 -0.99642575223E+03  0.10304318071E+04  0.17112012206E+03 0.  0.
         24    2    3    3    0    0 -0.26626534166E+02  0.56074564752E+02 -0.26416090178E+03  0.28380508724E+03  0.83132522994E+02 0.  0.
         -6    2    1    2    0  501  0.15489233454E+03 -0.12510674583E+03 -0.99611895003E+03  0.10301908061E+04  0.17145495397E+03 0.  0.
        -24    2    5    5    0    0  0.90712858509E+02 -0.61632070014E+02 -0.83221157497E+03  0.84301239600E+03  0.77887480030E+02 0.  0.
          5    1    3    3  502    0 -0.12826580037E+03  0.69032181074E+02 -0.73226485044E+03  0.74662671983E+03  0.47000000000E+01 0. -1.
        -13    1    4    4    0    0  0.23806448495E+02 -0.38026957988E+01 -0.83517279559E+02  0.86927230890E+02  0.00000000000E+00 0.  1.
         14    1    4    4    0    0 -0.50432982661E+02  0.59877260551E+02 -0.18064362223E+03  0.19687785635E+03  0.00000000000E+00 0. -1.
         -5    1    5    5    0  501  0.64179476031E+02 -0.63474675812E+02 -0.16390737506E+03  0.18717841011E+03  0.47000000000E+01 0.  1.
         11    1    6    6    0    0  0.59187713700E+02  0.63455130362E+01 -0.38037889387E+03  0.38500851146E+03  0.00000000000E+00 0. -1.
        -12    1    6    6    0    0  0.31525144809E+02 -0.67977583051E+02 -0.45183268109E+03  0.45800388454E+03  0.00000000000E+00 0.  1.
</event>
<event>
12    1  0.2576962E-002  0.2014515E+03  0.7818608E-02  0.1148520E+00
          1   -1    0    0  502    0  0.00000000000E+00  0.00000000000E+00  0.94370349191E+03  0.94370349191E+03  0.00000000000E+00 0.  1.
         -1   -1    0    0    0  501 -0.00000000000E+00 -0.00000000000E+00 -0.45893639773E+02  0.45893639773E+02  0.00000000000E+00 0. -1.
          6    2    1    2  502    0  0.70956718226E+02  0.77064891946E+02  0.57348389246E+03  0.60790338373E+03  0.17230465927E+03 0.  0.
         24    2    3    3    0    0 -0.25848437391E+02  0.60232350184E+02  0.28711927837E+03  0.30511409261E+03  0.79756202088E+02 0.  0.
         -6    2    1    2    0  501 -0.70956718226E+02 -0.77064891946E+02  0.32432595968E+03  0.38169374795E+03  0.17183985473E+03 0.  0.
        -24    2    5    5    0    0 -0.69739026792E+02 -0.25380782152E+02  0.88363197820E+02  0.14008819139E+03  0.79428777392E+02 0.  0.
          5    1    3    3  502    0  0.96805155616E+02  0.16832541762E+02  0.28636461408E+03  0.30278929112E+03  0.47000000000E+01 0. -1.
        -11    1    4    4    0    0 -0.15342929482E+02  0.26053591372E+02  0.21503871881E+02  0.37102717075E+02  0.00000000000E+00 0.  1.
         12    1    4    4    0    0 -0.10505507909E+02  0.34178758812E+02  0.26561540649E+03  0.26801137554E+03  0.00000000000E+00 0. -1.
         -5    1    5    5    0  501 -0.12176914337E+01 -0.51684109794E+02  0.23596276186E+03  0.24160555656E+03  0.47000000000E+01 0.  1.
         11    1    6    6    0    0 -0.83018169766E+02 -0.45510579202E+01  0.75156802450E+02  0.11207708773E+03  0.00000000000E+00 0. -1.
        -12    1    6    6    0    0  0.13279142974E+02 -0.20829724231E+02  0.13206395370E+02  0.28011103662E+02  0.00000000000E+00 0.  1.
</event>
<event>
12    1  0.2576962E-002  0.1931971E+03  0.7818608E-02  0.1155609E+00
         -1   -1    0    0    0  501 -0.00000000000E+00  0.00000000000E+00  0.31071702752E+02  0.31071702752E+02  0.00000000000E+00 0.  1.
          1   -1    0    0  502    0  0.00000000000E+00 -0.00000000000E+00 -0.12162273016E+04  0.12162273016E+04  0.00000000000E+00 0. -1.
          6    2    1    2  502    0 -0.59279009536E+02 -0.65251668353E+02 -0.51977797282E+03  0.55409593456E+03  0.17053264342E+03 0.  0.
         24    2    3    3    0    0 -0.96566976087E+02 -0.27838904388E+02 -0.43730845406E+03  0.45604789081E+03  0.81491160622E+02 0.  0.
         -6    2    1    2    0  501  0.59279009536E+02  0.65251668353E+02 -0.66537762600E+03  0.69320306977E+03  0.17329549779E+03 0.  0.
        -24    2    5    5    0    0  0.16956965962E+02  0.74700925823E+02 -0.61894427323E+03  0.62949600510E+03  0.85471867051E+02 0.  0.
          5    1    3    3  502    0  0.37287966551E+02 -0.37412763965E+02 -0.82469518766E+02  0.98048043747E+02  0.47000000000E+01 0. -1.
        -13    1    4    4    0    0 -0.25635153942E+02  0.63527849541E+01 -0.25269081790E+02  0.36551956019E+02  0.00000000000E+00 0.  1.
         14    1    4    4    0    0 -0.70931822145E+02 -0.34191689342E+02 -0.41203937227E+03  0.41949593480E+03  0.00000000000E+00 0. -1.
         -5    1    5    5    0  501  0.42322043574E+02 -0.94492574691E+01 -0.46433352773E+02  0.63707064669E+02  0.47000000000E+01 0.  1.
         13    1    6    6    0    0 -0.12340777025E+02  0.82511003438E+02 -0.41418438974E+03  0.42250333628E+03  0.00000000000E+00 0. -1.
        -14    1    6    6    0    0  0.29297742987E+02 -0.78100776156E+01 -0.20475988349E+03  0.20699266882E+03  0.00000000000E+00 0.  1.
</event>
<event>
12    1  0.2576962E-002  0.2181117E+03  0.7818608E-02  0.1135299E+00
          2   -1    0    0  502    0  0.00000000000E+00  0.00000000000E+00  0.12719031300E+04  0.12719031300E+04  0.00000000000E+00 0.  1.
         -2   -1    0    0    0  501 -0.00000000000E+00 -0.00000000000E+00 -0.51893271297E+02  0.51893271297E+02  0.00000000000E+00 0. -1.
          6    2    1    2  502    0 -0.79798753579E+02  0.11076340899E+03  0.96131032170E+03  0.98591390336E+03  0.17109154386E+03 0.  0.
         24    2    3    3    0    0 -0.79025646315E+02  0.48962125320E+02  0.84810963714E+03  0.85685391210E+03  0.79160138840E+02 0.  0.
         -6    2    1    2    0  501  0.79798753579E+02 -0.11076340899E+03  0.25869953696E+03  0.33788249789E+03  0.16912349960E+03 0.  0.
        -24    2    5    5    0    0  0.53959074357E+02 -0.73431839880E+02  0.57905743802E+02  0.13196607688E+03  0.75882497767E+02 0.  0.
          5    1    3    3  502    0 -0.77310726435E+00  0.61801283673E+02  0.11320068457E+03  0.12905999126E+03  0.47000000000E+01 0. -1.
        -11    1    4    4    0    0 -0.35168406101E+02  0.62755508952E+02  0.61983049169E+03  0.62399111302E+03  0.00000000000E+00 0.  1.
         12    1    4    4    0    0 -0.43857240214E+02 -0.13793383632E+02  0.22827914545E+03  0.23286279908E+03  0.00000000000E+00 0. -1.
         -5    1    5    5    0  501  0.25839679222E+02 -0.37331569113E+02  0.20079379316E+03  0.20591642102E+03  0.47000000000E+01 0.  1.
         11    1    6    6    0    0  0.54194090977E+02 -0.23342748078E+02  0.56741992686E+02  0.81862916627E+02  0.00000000000E+00 0. -1.
        -12    1    6    6    0    0 -0.23501662020E+00 -0.50089091802E+02  0.11637511160E+01  0.50103160250E+02  0.00000000000E+00 0.  1.
</event>
<event>
12    1  0.2576962E-002  0.1758175E+03  0.7818608E-02  0.1171913E+00
         -1   -1    0    0    0  501 -0.00000000000E+00  0.00000000000E+00  0.20002462515E+03  0.20002462515E+03  0.00000000000E+00 0.  1.
          1   -1    0    0  502    0  0.00000000000E+00 -0.00000000000E+00 -0.17421992613E+03  0.17421992613E+03  0.00000000000E+00 0. -1.
          6    2    1    2  502    0  0.17557148683E+02  0.25021795641E+02 -0.50023680875E+02  0.18223650212E+03  0.17254979087E+03 0.  0.
         24    2    3    3    0    0  0.31604419973E+02 -0.36215158028E+02 -0.69671519013E+02  0.11624091235E+03  0.79670898766E+02 0.  0.
         -6    2    1    2    0  501 -0.17557148683E+02 -0.25021795641E+02  0.75828379892E+02  0.19200804916E+03  0.17373198905E+03 0.  0.
        -24    2    5    5    0    0  0.19907128040E+02  0.89545986623E+01 -0.20628193987E+02  0.82994618591E+02  0.77369927904E+02 0.  0.
          5    1    3    3  502    0 -0.14047271290E+02  0.61236953669E+02  0.19647838137E+02  0.65995589768E+02  0.47000000000E+01 0. -1.
        -11    1    4    4    0    0 -0.75300226951E+01 -0.39819583117E+02 -0.53685883637E+01  0.40879361326E+02  0.00000000000E+00 0.  1.
         12    1    4    4    0    0  0.39134442668E+02  0.36044250888E+01 -0.64302930649E+02  0.75361551027E+02  0.00000000000E+00 0. -1.
         -5    1    5    5    0  501 -0.37464276723E+02 -0.33976394304E+02  0.96456573878E+02  0.10901343057E+03  0.47000000000E+01 0.  1.
         11    1    6    6    0    0 -0.11061570409E+02  0.31979587398E+02 -0.27738526803E+02  0.43754750820E+02  0.00000000000E+00 0. -1.
        -12    1    6    6    0    0  0.30968698449E+02 -0.23024988736E+02  0.71103328165E+01  0.39239867771E+02  0.00000000000E+00 0.  1.
</event>
<event>
12    1  0.2576962E-002  0.1935147E+03  0.7818608E-02  0.1155329E+00
          2   -1    0    0  502    0  0.00000000000E+00  0.00000000000E+00  0.20869527734E+03  0.20869527734E+03  0.00000000000E+00 0.  1.
         -2   -1    0    0    0  501 -0.00000000000E+00 -0.00000000000E+00 -0.34532295972E+03  0.34532295972E+03  0.00000000000E+00 0. -1.
          6    2    1    2  502    0 -0.68569809853E+02  0.42722881075E+02 -0.25969319341E+03  0.32202309419E+03  0.17242753579E+03 0.  0.
         24    2    3    3    0    0 -0.88354524444E+02  0.77696540337E+02 -0.23427638497E+03  0.27424552701E+03  0.80510310923E+02 0.  0.
         -6    2    1    2    0  501  0.68569809853E+02 -0.42722881075E+02  0.12306551103E+03  0.23199514287E+03  0.17930299195E+03 0.  0.
        -24    2    5    5    0    0  0.87434253093E+01 -0.49100494258E+02 -0.36002749085E+00  0.94605828163E+02  0.80391710269E+02 0.  0.
          5    1    3    3  502    0  0.19784714591E+02 -0.34973659262E+02 -0.25416808441E+02  0.47777567172E+02  0.47000000000E+01 0. -1.
        -11    1    4    4    0    0 -0.29948401580E+02  0.16539899831E+02 -0.11719763712E+02  0.36163903344E+02  0.00000000000E+00 0.  1.
         12    1    4    4    0    0 -0.58406122864E+02  0.61156640506E+02 -0.22255662125E+03  0.23808162367E+03  0.00000000000E+00 0. -1.
         -5    1    5    5    0  501  0.59826384544E+02  0.63776131830E+01  0.12342553852E+03  0.13738931471E+03  0.47000000000E+01 0.  1.
         13    1    6    6    0    0  0.35276480304E+02 -0.37486192625E+02  0.23967394445E+02  0.56780988866E+02  0.00000000000E+00 0. -1.
        -14    1    6    6    0    0 -0.26533054994E+02 -0.11614301633E+02 -0.24327421936E+02  0.37824839297E+02  0.00000000000E+00 0.  1.
</event>
<event>
12    1  0.2576962E-002  0.1969914E+03  0.7818608E-02  0.1152302E+00
          1   -1    0    0  502    0  0.00000000000E+00  0.00000000000E+00  0.83098331551E+03  0.83098331551E+03  0.00000000000E+00 0.  1.
         -1   -1    0    0    0  501 -0.00000000000E+00 -0.00000000000E+00 -0.46935978502E+02  0.46935978502E+02  0.00000000000E+00 0. -1.
          6    2    1    2  502    0  0.27662732241E+02 -0.91935430396E+02  0.42391291769E+03  0.46759098090E+03  0.17240015523E+03 0.  0.
         24    2    3    3    0    0  0.72645650079E+02 -0.28007469270E+02  0.19688846060E+03  0.22744010910E+03  0.83079049707E+02 0.  0.
         -6    2    1    2    0  501 -0.27662732241E+02  0.91935430396E+02  0.36013441932E+03  0.41032831311E+03  0.17162509852E+03 0.  0.
        -24    2    5    5    0    0 -0.80351428447E+02  0.51705820379E+02  0.18311704925E+03  0.22124695619E+03  0.79300176420E+02 0.  0.
          5    1    3    3  502    0 -0.44982917838E+02 -0.63927961126E+02  0.22702445709E+03  0.24015087181E+03  0.47000000000E+01 0. -1.
        -13    1    4    4    0    0  0.35769255701E+02 -0.56178918803E+02  0.10209261560E+03  0.12189508903E+03  0.00000000000E+00 0.  1.
         14    1    4    4    0    0  0.36876394378E+02  0.28171449533E+02  0.94795845000E+02  0.10554502006E+03  0.00000000000E+00 0. -1.
         -5    1    5    5    0  501  0.52688696207E+02  0.40229610017E+02  0.17701737007E+03  0.18908135692E+03  0.47000000000E+01 0.  1.
         13    1    6    6    0    0  0.17681195657E+00  0.12140166173E+02 -0.47630678360E+01  0.13042304719E+02  0.00000000000E+00 0. -1.
        -14    1    6    6    0    0 -0.80528240404E+02  0.39565654205E+02  0.18788011709E+03  0.20820465147E+03  0.00000000000E+00 0.  1.
</event>
<event>
12    1  0.2576962E-002  0.1822542E+03  0.7818608E-02  0.1165639E+00
         -1   -1    0    0    0  501 -0.00000000000E+00  0.00000000000E+00  0.18476799824E+03  0.18476799824E+03  0.00000000000E+00 0.  1.
          1   -1    0    0  502    0  0.00000000000E+00 -0.00000000000E+00 -0.20218614679E+03  0.20218614679E+03  0.00000000000E+00 0. -1.
          6    2    1    2  502    0 -0.47200776481E+02 -0.28198740110E+02 -0.73154458725E+02  0.19718539864E+03  0.17466374656E+03 0.  0.
         24    2    3    3    0    0 -0.75734551757E+02 -0.59407554913E+02 -0.96416953986E+01  0.12073850493E+03  0.72248490451E+02 0.  0.
         -6    2    1    2    0  501  0.47200776481E+02  0.28198740110E+02  0.55736310172E+02  0.18976874639E+03  0.17286572417E+03 0.  0.
        -24    2    5    5    0    0  0.52120966486E+02  0.74746425627E+02  0.57445466169E+01  0.12112355923E+03  0.79588274853E+02 0.  0.
          5    1    3    3  502    0  0.28533775277E+02  0.31208814803E+02 -0.63512763326E+02  0.76446893712E+02  0.47000000000E+01 0. -1.
        -13    1    4    4    0    0 -0.11405741652E+01 -0.18125154410E+02  0.23124333393E+02  0.29403348902E+02  0.00000000000E+00 0.  1.
         14    1    4    4    0    0 -0.74593977592E+02 -0.41282400503E+02 -0.32766028791E+02  0.91335156030E+02  0.00000000000E+00 0. -1.
         -5    1    5    5    0  501 -0.49201900050E+01 -0.46547685517E+02  0.49991763555E+02  0.68645187159E+02  0.47000000000E+01 0.  1.
         11    1    6    6    0    0  0.17726923824E+02 -0.14684935508E+02 -0.79055439403E+01  0.24339038274E+02  0.00000000000E+00 0. -1.
        -12    1    6    6    0    0  0.34394042661E+02  0.89431361135E+02  0.13650090557E+02  0.96784520959E+02  0.00000000000E+00 0.  1.
</event>
<event>
12    1  0.2576962E-002  0.2973743E+03  0.7818608E-02  0.1086561E+00
         -1   -1    0    0    0  501 -0.00000000000E+00  0.00000000000E+00  0.15464390714E+03  0.15464390714E+03  0.00000000000E+00 0. -1.
          1   -1    0    0  502    0  0.00000000000E+00 -0.00000000000E+00 -0.57395312058E+03  0.57395312058E+03  0.00000000000E+00 0.  1.
          6    2    1    2  502    0 -0.21593081891E+03 -0.97242160285E+02 -0.19168514614E+03  0.35785188621E+03  0.18770354530E+03 0.  0.
         24    2    3    3    0    0 -0.47064454737E+02 -0.81337525586E+00 -0.11432848401E+03  0.14851841371E+03  0.82286040582E+02 0.  0.
         -6    2    1    2    0  501  0.21593081891E+03  0.97242160285E+02 -0.22762406729E+03  0.37074514151E+03  0.17192174862E+03 0.  0.
        -24    2    5    5    0    0  0.18202471875E+03  0.10650561287E+03 -0.11677509449E+03  0.25436206734E+03  0.81161535219E+02 0.  0.
          5    1    3    3  502    0 -0.16886636418E+03 -0.96428785029E+02 -0.77356662125E+02  0.20933347250E+03  0.47000000000E+01 0. -1.
        -11    1    4    4    0    0 -0.31010689363E+02 -0.38147366803E+02 -0.85728036413E+02  0.98823988363E+02  0.00000000000E+00 0.  1.
         12    1    4    4    0    0 -0.16053765373E+02  0.37333991547E+02 -0.28600447602E+02  0.49694425347E+02  0.00000000000E+00 0. -1.
         -5    1    5    5    0  501  0.33906100166E+02 -0.92634525848E+01 -0.11084897280E+03  0.11638307417E+03  0.47000000000E+01 0.  1.
         13    1    6    6    0    0  0.10097341861E+02  0.35194214205E+02 -0.42445032880E+01  0.36859257104E+02  0.00000000000E+00 0. -1.
        -14    1    6    6    0    0  0.17192737689E+03  0.71311398665E+02 -0.11253059121E+03  0.21750281024E+03  0.00000000000E+00 0.  1.
</event>
<event>
12    1  0.2576962E-002  0.1876058E+03  0.7818608E-02  0.1160639E+00
          1   -1    0    0  502    0  0.00000000000E+00  0.00000000000E+00  0.18323442473E+04  0.18323442473E+04  0.00000000000E+00 0. -1.
         -1   -1    0    0    0  501 -0.00000000000E+00 -0.00000000000E+00 -0.20653944651E+02  0.20653944651E+02  0.00000000000E+00 0.  1.
          6    2    1    2  502    0  0.75439046120E+02  0.70911162041E+01  0.66332730259E+03  0.68950463504E+03  0.17225619808E+03 0.  0.
         24    2    3    3    0    0  0.70011830217E+02 -0.58438953993E+02  0.44835314699E+03  0.46464996565E+03  0.81007891263E+02 0.  0.
         -6    2    1    2    0  501 -0.75439046120E+02 -0.70911162041E+01  0.11483630001E+04  0.11634935569E+04  0.17099223215E+03 0.  0.
        -24    2    5    5    0    0 -0.10258953759E+03  0.25083733369E+02  0.63154712149E+03  0.64494451152E+03  0.77122301412E+02 0.  0.
          5    1    3    3  502    0  0.54272159026E+01  0.65530070197E+02  0.21497415560E+03  0.22485466939E+03  0.47000000000E+01 0. -1.
        -13    1    4    4    0    0  0.39018319044E+02 -0.13917003326E+02  0.62374543873E+02  0.74877873407E+02  0.00000000000E+00 0.  1.
         14    1    4    4    0    0  0.30993511173E+02 -0.44521950667E+02  0.38597860312E+03  0.38977209224E+03  0.00000000000E+00 0. -1.
         -5    1    5    5    0  501  0.27150491472E+02 -0.32174849573E+02  0.51681587858E+03  0.51854904540E+03  0.47000000000E+01 0.  1.
         11    1    6    6    0    0 -0.46402238158E+01 -0.20639360032E+02  0.14494283739E+03  0.14647846589E+03  0.00000000000E+00 0. -1.
        -12    1    6    6    0    0 -0.97949313776E+02  0.45723093401E+02  0.48660428409E+03  0.49846604562E+03  0.00000000000E+00 0.  1.
</event>
<event>
12    1  0.2576962E-002  0.1722142E+03  0.7818608E-02  0.1175558E+00
         -3   -1    0    0    0  501 -0.00000000000E+00  0.00000000000E+00  0.76943686696E+03  0.76943686696E+03  0.00000000000E+00 0.  1.
          3   -1    0    0  502    0  0.00000000000E+00 -0.00000000000E+00 -0.42077702450E+02  0.42077702450E+02  0.00000000000E+00 0. -1.
          6    2    1    2  502    0  0.19179086485E+02 -0.70873744029E+01  0.25202641395E+03  0.30693685359E+03  0.17399669689E+03 0.  0.
         24    2    3    3    0    0  0.47154510824E+01 -0.72471454540E+02  0.12038892223E+03  0.15917084291E+03  0.74615798841E+02 0.  0.
         -6    2    1    2    0  501 -0.19179086485E+02  0.70873744029E+01  0.47533275056E+03  0.50457771582E+03  0.16804576553E+03 0.  0.
        -24    2    5    5    0    0  0.29325118583E+02 -0.36537923698E+00  0.42640735743E+03  0.43512279850E+03  0.81538452438E+02 0.  0.
          5    1    3    3  502    0  0.14463635403E+02  0.65384080137E+02  0.13163749172E+03  0.14776601068E+03  0.47000000000E+01 0. -1.
        -13    1    4    4    0    0 -0.13823679627E+01  0.20277397235E+01  0.67639842475E+02  0.67684347966E+02  0.00000000000E+00 0.  1.
         14    1    4    4    0    0  0.60978190452E+01 -0.74499194264E+02  0.52749079751E+02  0.91486494947E+02  0.00000000000E+00 0. -1.
         -5    1    5    5    0  501 -0.48504205068E+02  0.74527536399E+01  0.48925393127E+02  0.69454917311E+02  0.47000000000E+01 0.  1.
         13    1    6    6    0    0  0.68302101365E+01  0.39716449124E+02  0.21990740241E+03  0.22356948301E+03  0.00000000000E+00 0. -1.
        -14    1    6    6    0    0  0.22494908446E+02 -0.40081828361E+02  0.20649995502E+03  0.21155331549E+03  0.00000000000E+00 0.  1.
</event>
<event>
12    1  0.2576962E-002  0.1971708E+03  0.7818608E-02  0.1152148E+00
         -2   -1    0    0    0  501 -0.00000000000E+00  0.00000000000E+00  0.21293328954E+02  0.21293328954E+02  0.00000000000E+00 0. -1.
          2   -1    0    0  502    0  0.00000000000E+00 -0.00000000000E+00 -0.24875655264E+04  0.24875655264E+04  0.00000000000E+00 0.  1.
          6    2    1    2  502    0 -0.32941635272E+02  0.91225001211E+02 -0.18810367396E+04  0.18913619988E+04  0.17188322412E+03 0.  0.
         24    2    3    3    0    0 -0.50782778545E+02  0.32876694520E+01 -0.62617831626E+03  0.63329084292E+03  0.79801683001E+02 0.  0.
         -6    2    1    2    0  501  0.32941635272E+02 -0.91225001211E+02 -0.58523545781E+03  0.61749685648E+03  0.17144875184E+03 0.  0.
        -24    2    5    5    0    0  0.68975054084E+02 -0.75443047004E+02 -0.26600810459E+03  0.29582051232E+03  0.79374129125E+02 0.  0.
          5    1    3    3  502    0  0.17841143273E+02  0.87937331759E+02 -0.12548584233E+04  0.12580711559E+04  0.47000000000E+01 0. -1.
        -11    1    4    4    0    0  0.57195070833E+01  0.22824324467E+02 -0.34630082964E+03  0.34709930446E+03  0.00000000000E+00 0.  1.
         12    1    4    4    0    0 -0.56502285628E+02 -0.19536655015E+02 -0.27987748662E+03  0.28619153846E+03  0.00000000000E+00 0. -1.
         -5    1    5    5    0  501 -0.36033418812E+02 -0.15781954207E+02 -0.31922735322E+03  0.32167634416E+03  0.47000000000E+01 0.  1.
         13    1    6    6    0    0  0.23127477324E+01 -0.57058299800E+02 -0.88564743343E+02  0.10537889799E+03  0.00000000000E+00 0. -1.
        -14    1    6    6    0    0  0.66662306352E+02 -0.18384747204E+02 -0.17744336125E+03  0.19044161433E+03  0.00000000000E+00 0.  1.
</event>
<event>
12    1  0.2576962E-002  0.1680720E+03  0.7818608E-02  0.1179873E+00
         -2   -1    0    0    0  501 -0.00000000000E+00  0.00000000000E+00  0.13153009903E+03  0.13153009903E+03  0.00000000000E+00 0.  1.
          2   -1    0    0  502    0  0.00000000000E+00 -0.00000000000E+00 -0.21623170081E+03  0.21623170081E+03  0.00000000000E+00 0. -1.
          6    2    1    2  502    0  0.16075334621E+02  0.33829786723E+01 -0.30177082842E+02  0.17563580917E+03  0.17224232989E+03 0.  0.
         24    2    3    3    0    0 -0.21369598061E+02 -0.51784546591E+02  0.16100570837E+02  0.94338268877E+02  0.74176691801E+02 0.  0.
         -6    2    1    2    0  501 -0.16075334621E+02 -0.33829786723E+01 -0.54524518941E+02  0.17212599067E+03  0.16243328653E+03 0.  0.
        -24    2    5    5    0    0 -0.82923113897E+01  0.46804951265E+02 -0.72451523712E+02  0.11806240531E+03  0.80187544974E+02 0.  0.
          5    1    3    3  502    0  0.37444932681E+02  0.55167525263E+02 -0.46277653679E+02  0.81297540290E+02  0.47000000000E+01 0. -1.
        -11    1    4    4    0    0 -0.41398478403E+02 -0.94845920768E+01 -0.54381293417E+01  0.42817808815E+02  0.00000000000E+00 0.  1.
         12    1    4    4    0    0  0.20028880342E+02 -0.42299954514E+02  0.21538700179E+02  0.51520460062E+02  0.00000000000E+00 0. -1.
         -5    1    5    5    0  501 -0.77830232310E+01 -0.50187929938E+02  0.17927004771E+02  0.54063585361E+02  0.47000000000E+01 0.  1.
         11    1    6    6    0    0  0.17774327854E+02 -0.90383432201E+01 -0.47608999056E+02  0.51616229714E+02  0.00000000000E+00 0. -1.
        -12    1    6    6    0    0 -0.26066639243E+02  0.55843294485E+02 -0.24842524657E+02  0.66446175599E+02  0.00000000000E+00 0.  1.
</event>
<event>
12    1  0.2576962E-002  0.1928146E+03  0.7818608E-02  0.1155947E+00
          2   -1    0    0  502    0  0.00000000000E+00  0.00000000000E+00  0.23566263027E+03  0.23566263027E+03  0.00000000000E+00 0.  1.
         -2   -1    0    0    0  501 -0.00000000000E+00 -0.00000000000E+00 -0.18737411935E+03  0.18737411935E+03  0.00000000000E+00 0. -1.
          6    2    1    2  502    0  0.53543616129E+02 -0.69961936861E+02  0.10830544600E+03  0.22173556267E+03  0.17226432794E+03 0.  0.
         24    2    3    3    0    0  0.98774802731E+02 -0.73498177200E+02  0.73523919717E+02  0.16437521218E+03  0.80343014033E+02 0.  0.
         -6    2    1    2    0  501 -0.53543616129E+02  0.69961936861E+02 -0.60016935087E+02  0.20130118695E+03  0.17075873018E+03 0.  0.
        -24    2    5    5    0    0 -0.37360582238E+02  0.34782179757E+02  0.33018553152E+02  0.10041908761E+03  0.79925935524E+02 0.  0.
          5    1    3    3  502    0 -0.45231186601E+02  0.35362403389E+01  0.34781526284E+02  0.57360350485E+02  0.47000000000E+01 0. -1.
        -13    1    4    4    0    0  0.83161196799E+02 -0.52129146733E+02  0.90028235318E+02  0.13318526850E+03  0.00000000000E+00 0.  1.
         14    1    4    4    0    0  0.15613605932E+02 -0.21369030467E+02 -0.16504315601E+02  0.31189943680E+02  0.00000000000E+00 0. -1.
         -5    1    5    5    0  501 -0.16183033892E+02  0.35179757104E+02 -0.93035488239E+02  0.10088209934E+03  0.47000000000E+01 0.  1.
         13    1    6    6    0    0 -0.33346224053E+02 -0.84011847345E+01 -0.13387135894E+02  0.36902113368E+02  0.00000000000E+00 0. -1.
        -14    1    6    6    0    0 -0.40143581848E+01  0.43183364492E+02  0.46405689046E+02  0.63516974238E+02  0.00000000000E+00 0.  1.
</event>
<event>
12    1  0.2576962E-002  0.2049323E+03  0.7818608E-02  0.1145643E+00
          2   -1    0    0  502    0  0.00000000000E+00  0.00000000000E+00  0.39085432958E+03  0.39085432958E+03  0.00000000000E+00 0. -1.
         -2   -1    0    0    0  501 -0.00000000000E+00 -0.00000000000E+00 -0.12068572696E+03  0.12068572696E+03  0.00000000000E+00 0.  1.
          6    2    1    2  502    0 -0.11171131438E+03  0.18870492081E+02  0.50561400161E+02  0.21137386396E+03  0.17113428045E+03 0.  0.
         24    2    3    3    0    0 -0.23934048623E+02 -0.48611833963E+02  0.13114393616E+02  0.94399161514E+02  0.76179165720E+02 0.  0.
         -6    2    1    2    0  501  0.11171131438E+03 -0.18870492081E+02  0.21960720245E+03  0.30016619258E+03  0.17040219062E+03 0.  0.
        -24    2    5    5    0    0  0.49648803967E+02 -0.39101664714E+00  0.26118344925E+02  0.96074854697E+02  0.77993930110E+02 0.  0.
          5    1    3    3  502    0 -0.87777265762E+02  0.67482326044E+02  0.37447006546E+02  0.11697470245E+03  0.47000000000E+01 0. -1.
        -13    1    4    4    0    0  0.16175675985E+02 -0.14282634326E+02 -0.22139385400E+02  0.30915991376E+02  0.00000000000E+00 0.  1.
         14    1    4    4    0    0 -0.40109724608E+02 -0.34329199637E+02  0.35253779016E+02  0.63483170138E+02  0.00000000000E+00 0. -1.
         -5    1    5    5    0  501  0.62062510418E+02 -0.18479475434E+02  0.19348885753E+03  0.20409133788E+03  0.47000000000E+01 0.  1.
         13    1    6    6    0    0  0.67246579213E+02  0.15007481575E+02  0.22025808258E+02  0.72335766731E+02  0.00000000000E+00 0. -1.
        -14    1    6    6    0    0 -0.17597775246E+02 -0.15398498222E+02  0.40925366670E+01  0.23739087966E+02  0.00000000000E+00 0.  1.
</event>
<event>
12    1  0.2576962E-002  0.1793809E+03  0.7818608E-02  0.1168404E+00
          1   -1    0    0  502    0  0.00000000000E+00  0.00000000000E+00  0.48437479779E+03  0.48437479779E+03  0.00000000000E+00 0.  1.
         -1   -1    0    0    0  501 -0.00000000000E+00 -0.00000000000E+00 -0.69935159112E+02  0.69935159112E+02  0.00000000000E+00 0. -1.
          6    2    1    2  502    0  0.39865164292E+02  0.25592126145E+02  0.14594942193E+03  0.23179304183E+03  0.17373137954E+03 0.  0.
         24    2    3    3    0    0 -0.15406753855E+02  0.59748290154E+02  0.12966031205E+03  0.16464355504E+03  0.80551086003E+02 0.  0.
         -6    2    1    2    0  501 -0.39865164292E+02 -0.25592126145E+02  0.26849021675E+03  0.32251691507E+03  0.17229618618E+03 0.  0.
        -24    2    5    5    0    0 -0.88068049081E+02  0.51972947749E+01  0.14738666023E+03  0.18850322941E+03  0.77637920776E+02 0.  0.
          5    1    3    3  502    0  0.55271918148E+02 -0.34156164009E+02  0.16289109885E+02  0.67149486791E+02  0.47000000000E+01 0. -1.
        -13    1    4    4    0    0  0.11704955044E+00  0.47733674362E+02  0.13590508360E+03  0.14404412212E+03  0.00000000000E+00 0.  1.
         14    1    4    4    0    0 -0.15523803406E+02  0.12014615791E+02 -0.62447715577E+01  0.20599432919E+02  0.00000000000E+00 0. -1.
         -5    1    5    5    0  501  0.48202884789E+02 -0.30789420920E+02  0.12110355652E+03  0.13401368566E+03  0.47000000000E+01 0.  1.
         11    1    6    6    0    0  0.13135241582E+02 -0.81168468308E+01  0.18946857421E+02  0.24441791670E+02  0.00000000000E+00 0. -1.
        -12    1    6    6    0    0 -0.10120329066E+03  0.13314141606E+02  0.12843980281E+03  0.16406143774E+03  0.00000000000E+00 0.  1.
</event>
<event>
12    1  0.2576962E-002  0.1860539E+03  0.7818608E-02  0.1162069E+00
         -4   -1    0    0    0  501 -0.00000000000E+00  0.00000000000E+00  0.13086701558E+03  0.13086701558E+03  0.00000000000E+00 0.  1.
          4   -1    0    0  502    0  0.00000000000E+00 -0.00000000000E+00 -0.31820932558E+03  0.31820932558E+03  0.00000000000E+00 0. -1.
          6    2    1    2  502    0 -0.68081531496E+02  0.46768875125E+00 -0.48009264693E+00  0.18368601378E+03  0.17060189772E+03 0.  0.
         24    2    3    3    0    0 -0.25817382014E+02  0.15412965058E+02  0.64030481578E+02  0.10498834035E+03  0.77579329288E+02 0.  0.
         -6    2    1    2    0  501  0.68081531496E+02 -0.46768875125E+00 -0.18686221735E+03  0.26539032739E+03  0.17572485292E+03 0.  0.
        -24    2    5    5    0    0  0.40397296274E+02 -0.44710203687E+02 -0.18810097313E+03  0.21297428477E+03  0.79656299319E+02 0.  0.
          5    1    3    3  502    0 -0.42264149482E+02 -0.14945276307E+02 -0.64510574225E+02  0.78697673423E+02  0.47000000000E+01 0. -1.
        -11    1    4    4    0    0 -0.26430343138E+02 -0.11988179886E+02  0.71004734182E+02  0.76706921276E+02  0.00000000000E+00 0.  1.
         12    1    4    4    0    0  0.61296112357E+00  0.27401144944E+02 -0.69742526037E+01  0.28281419076E+02  0.00000000000E+00 0. -1.
         -5    1    5    5    0  501  0.27684235222E+02  0.44242514936E+02  0.12387557779E+01  0.52416042616E+02  0.47000000000E+01 0.  1.
         13    1    6    6    0    0  0.37979886356E+00 -0.12180464274E+02 -0.14570435824E+03  0.14621309096E+03  0.00000000000E+00 0. -1.
        -14    1    6    6    0    0  0.40017497410E+02 -0.32529739413E+02 -0.42396614890E+02  0.66761193813E+02  0.00000000000E+00 0.  1.
</event>
<event>
12    1  0.2576962E-002  0.1916457E+03  0.7818608E-02  0.1156985E+00
         -2   -1    0    0    0  501 -0.00000000000E+00  0.00000000000E+00  0.35546629652E+02  0.35546629652E+02  0.00000000000E+00 0. -1.
          2   -1    0    0  502    0  0.00000000000E+00 -0.00000000000E+00 -0.10805742025E+04  0.10805742025E+04  0.00000000000E+00 0.  1.
          6    2    1    2  502    0  0.30751334273E+02 -0.77680441640E+02 -0.40336946295E+03  0.44619295855E+03  0.17146818085E+03 0.  0.
         24    2    3    3    0    0  0.71809073951E+02 -0.36995667888E+02 -0.34794382766E+03  0.36597400911E+03  0.79667092256E+02 0.  0.
         -6    2    1    2    0  501 -0.30751334273E+02  0.77680441640E+02 -0.64165810993E+03  0.66992787363E+03  0.17348870355E+03 0.  0.
        -24    2    5    5    0    0  0.86945040977E+01 -0.16140741208E+02 -0.38801511324E+03  0.39658697241E+03  0.79933601502E+02 0.  0.
          5    1    3    3  502    0 -0.41057739678E+02 -0.40684773752E+02 -0.55425635289E+02  0.80218949444E+02  0.47000000000E+01 0. -1.
        -13    1    4    4    0    0  0.62451859709E+01 -0.34204879765E+02 -0.21413694003E+03  0.21694147882E+03  0.00000000000E+00 0.  1.
         14    1    4    4    0    0  0.65563887980E+02 -0.27907881225E+01 -0.13380688763E+03  0.14903253029E+03  0.00000000000E+00 0. -1.
         -5    1    5    5    0  501 -0.39445838370E+02  0.93821182848E+02 -0.25364299668E+03  0.27334090122E+03  0.47000000000E+01 0.  1.
         13    1    6    6    0    0  0.38870987472E+02 -0.10978177524E+01 -0.11281368817E+03  0.11932764604E+03  0.00000000000E+00 0. -1.
        -14    1    6    6    0    0 -0.30176483374E+02 -0.15042923455E+02 -0.27520142507E+03  0.27725932637E+03  0.00000000000E+00 0.  1.
</event>
<event>
12    1  0.2576962E-002  0.2874867E+03  0.7818608E-02  0.1091669E+00
          2   -1    0    0  502    0  0.00000000000E+00  0.00000000000E+00  0.33509186222E+04  0.33509186222E+04  0.00000000000E+00 0.  1.
         -2   -1    0    0    0  501 -0.00000000000E+00 -0.00000000000E+00 -0.24667883972E+02  0.24667883972E+02  0.00000000000E+00 0. -1.
          6    2    1    2  502    0  0.19264456261E+03  0.12767546812E+03  0.16397902413E+04  0.16646869459E+04  0.16987536526E+03 0.  0.
         24    2    3    3    0    0  0.14231904206E+02  0.38683388715E+02  0.48952600831E+03  0.49726218919E+03  0.77039083124E+02 0.  0.
         -6    2    1    2    0  501 -0.19264456261E+03 -0.12767546812E+03  0.16864604970E+04  0.17108995603E+04  0.17209109500E+03 0.  0.
        -24    2    5    5    0    0 -0.51839950562E+02  0.32695618012E+01  0.52241407969E+03  0.53106961866E+03  0.80127390443E+02 0.  0.
          5    1    3    3  502    0  0.17841265841E+03  0.88992079404E+02  0.11502642330E+04  0.11674247567E+04  0.47000000000E+01 0. -1.
        -13    1    4    4    0    0  0.22766953566E+02  0.37008207984E+02  0.48589982043E+03  0.48783867941E+03  0.00000000000E+00 0.  1.
         14    1    4    4    0    0 -0.85350493607E+01  0.16751807310E+01  0.36261878768E+01  0.94235097808E+01  0.00000000000E+00 0. -1.
         -5    1    5    5    0  501 -0.14080461205E+03 -0.13094502992E+03  0.11640464173E+04  0.11798299416E+04  0.47000000000E+01 0.  1.
         11    1    6    6    0    0 -0.29698802781E+02  0.24133018279E+02  0.92811549028E+02  0.10039126003E+03  0.00000000000E+00 0. -1.
        -12    1    6    6    0    0 -0.22141147782E+02 -0.20863456478E+02  0.42960253066E+03  0.43067835863E+03  0.00000000000E+00 0.  1.
</event>
<event>
12    1  0.2576962E-002  0.1861574E+03  0.7818608E-02  0.1161973E+00
          2   -1    0    0  502    0  0.00000000000E+00  0.00000000000E+00  0.18333761232E+03  0.18333761232E+03  0.00000000000E+00 0. -1.
         -2   -1    0    0    0  501 -0.00000000000E+00 -0.00000000000E+00 -0.18973241358E+03  0.18973241358E+03  0.00000000000E+00 0.  1.
          6    2    1    2  502    0 -0.27707135497E+02 -0.80803981832E+02  0.73500336348E+01  0.18179228393E+03  0.16030421912E+03 0.  0.
         24    2    3    3    0    0 -0.46081352049E+02 -0.10935094362E+03  0.14665227048E+02  0.14674741390E+03  0.85080048916E+02 0.  0.
         -6    2    1    2    0  501  0.27707135497E+02  0.80803981832E+02 -0.13744834893E+02  0.19127774196E+03  0.17059098818E+03 0.  0.
        -24    2    5    5    0    0  0.86837209627E+02  0.53765626818E+02 -0.67587054971E+01  0.12571605870E+03  0.72989065701E+02 0.  0.
          5    1    3    3  502    0  0.18374216552E+02  0.28546961789E+02 -0.73151934132E+01  0.35044870038E+02  0.47000000000E+01 0. -1.
        -13    1    4    4    0    0 -0.56330389997E+02 -0.83139763365E+02  0.40746182649E+02  0.10837704780E+03  0.00000000000E+00 0.  1.
         14    1    4    4    0    0  0.10249037948E+02 -0.26211180257E+02 -0.26080955601E+02  0.38370366096E+02  0.00000000000E+00 0. -1.
         -5    1    5    5    0  501 -0.59130074129E+02  0.27038355015E+02 -0.69861293954E+01  0.65561683264E+02  0.47000000000E+01 0.  1.
         13    1    6    6    0    0  0.84199780363E+01  0.44226415852E+02  0.69066298584E+01  0.45547485389E+02  0.00000000000E+00 0. -1.
        -14    1    6    6    0    0  0.78417231591E+02  0.95392109655E+01 -0.13665335355E+02  0.80168573310E+02  0.00000000000E+00 0.  1.
</event>
<event>
12    1  0.2576962E-002  0.2321038E+03  0.7818608E-02  0.1125168E+00
         -2   -1    0    0    0  501 -0.00000000000E+00  0.00000000000E+00  0.20754848725E+03  0.20754848725E+03  0.00000000000E+00 0. -1.
          2   -1    0    0  502    0  0.00000000000E+00 -0.00000000000E+00 -0.26654889568E+03  0.26654889568E+03  0.00000000000E+00 0.  1.
          6    2    1    2  502    0 -0.96056820857E+02 -0.12318362874E+03  0.88908449937E+01  0.23212263066E+03  0.17146646703E+03 0.  0.
         24    2    3    3    0    0 -0.10986919265E+03 -0.40024951354E+02 -0.18876093565E+02  0.14324496127E+03  0.80557903372E+02 0.  0.
         -6    2    1    2    0  501  0.96056820857E+02  0.12318362874E+03 -0.67891253419E+02  0.24197475227E+03  0.17187623228E+03 0.  0.
        -24    2    5    5    0    0  0.11719897002E+03  0.13743519210E+03 -0.34366545604E+02  0.19959440820E+03  0.77671344312E+02 0.  0.
          5    1    3    3  502    0  0.13812371794E+02 -0.83158677389E+02  0.27766938559E+02  0.88877669393E+02  0.47000000000E+01 0. -1.
        -11    1    4    4    0    0 -0.22494177362E+02  0.19778744595E+02 -0.22245132351E+02  0.37309953984E+02  0.00000000000E+00 0.  1.
         12    1    4    4    0    0 -0.87375015289E+02 -0.59803695949E+02  0.33690387853E+01  0.10593500728E+03  0.00000000000E+00 0. -1.
         -5    1    5    5    0  501 -0.21142149161E+02 -0.14251563360E+02 -0.33524707815E+02  0.42380344069E+02  0.47000000000E+01 0.  1.
         13    1    6    6    0    0  0.33412471489E+02  0.84581004399E+02 -0.42130420607E+02  0.10022630342E+03  0.00000000000E+00 0. -1.
        -14    1    6    6    0    0  0.83786498529E+02  0.52854187704E+02  0.77638750030E+01  0.99368104785E+02  0.00000000000E+00 0.  1.
</event>
<event>
12    1  0.2576962E-002  0.1765666E+03  0.7818608E-02  0.1171168E+00
          2   -1    0    0  502    0  0.00000000000E+00  0.00000000000E+00  0.35872872315E+02  0.35872872315E+02  0.00000000000E+00 0.  1.
         -2   -1    0    0    0  501 -0.00000000000E+00 -0.00000000000E+00 -0.87627035235E+03  0.87627035235E+03  0.00000000000E+00 0. -1.
          6    2    1    2  502    0  0.33875870997E+02  0.13811159288E+02 -0.37605710843E+03  0.41492641768E+03  0.17148370341E+03 0.  0.
         24    2    3    3    0    0 -0.10279559616E+01  0.42264690594E+02 -0.88235161442E+02  0.12356505486E+03  0.75468657751E+02 0.  0.
         -6    2    1    2    0  501 -0.33875870997E+02 -0.13811159288E+02 -0.46434037160E+03  0.49721680698E+03  0.17399497029E+03 0.  0.
        -24    2    5    5    0    0 -0.42607455112E+02  0.49184075742E+02 -0.36422792871E+03  0.37851873867E+03  0.79874795382E+02 0.  0.
          5    1    3    3  502    0  0.34903826958E+02 -0.28453531306E+02 -0.28782194698E+03  0.29136136282E+03  0.47000000000E+01 0. -1.
        -11    1    4    4    0    0 -0.99566198185E+01 -0.19086252509E+02 -0.99813692846E+01  0.23728612388E+02  0.00000000000E+00 0.  1.
         12    1    4    4    0    0  0.89286638569E+01  0.61350943103E+02 -0.78253792158E+02  0.99836442470E+02  0.00000000000E+00 0. -1.
         -5    1    5    5    0  501  0.87315841151E+01 -0.62995235029E+02 -0.10011244290E+03  0.11869806831E+03  0.47000000000E+01 0.  1.
         11    1    6    6    0    0  0.13158654793E+02  0.65871627324E+01 -0.19172275332E+03  0.19228664813E+03  0.00000000000E+00 0. -1.
        -12    1    6    6    0    0 -0.55766109905E+02  0.42596913009E+02 -0.17250517539E+03  0.18623209054E+03  0.00000000000E+00 0.  1.
</event>
<event>
12    1  0.2576962E-002  0.2822586E+03  0.7818608E-02  0.1094462E+00
          1   -1    0    0  502    0  0.00000000000E+00  0.00000000000E+00  0.51118764910E+02  0.51118764910E+02  0.00000000000E+00 0.  1.
         -1   -1    0    0    0  501 -0.00000000000E+00 -0.00000000000E+00 -0.18180217962E+04  0.18180217962E+04  0.00000000000E+00 0. -1.
          6    2    1    2  502    0 -0.19211474319E+03 -0.11298800426E+03 -0.53126501355E+03  0.60174836345E+03  0.17373604874E+03 0.  0.
         24    2    3    3    0    0 -0.20818736883E+03 -0.12601010621E+03 -0.44952107608E+03  0.51729680487E+03  0.79411958054E+02 0.  0.
         -6    2    1    2    0  501  0.19211474319E+03  0.11298800426E+03 -0.12356380178E+04  0.12673921977E+04  0.17264793120E+03 0.  0.
        -24    2    5    5    0    0  0.17339453422E+03  0.11107792168E+03 -0.12260043574E+04  0.12457359734E+04  0.79796376911E+02 0.  0.
          5    1    3    3  502    0  0.16072625632E+02  0.13022101945E+02 -0.81743937467E+02  0.84451558579E+02  0.47000000000E+01 0. -1.
        -13    1    4    4    0    0 -0.13780251969E+03 -0.97600198120E+02 -0.23225863430E+03  0.28715745909E+03  0.00000000000E+00 0.  1.
         14    1    4    4    0    0 -0.70384849135E+02 -0.28409908087E+02 -0.21726244178E+03  0.23013934578E+03  0.00000000000E+00 0. -1.
         -5    1    5    5    0  501  0.18720208972E+02  0.19100825834E+01 -0.96336603351E+01  0.21656224299E+02  0.47000000000E+01 0.  1.
         13    1    6    6    0    0  0.12895621600E+03  0.87500868707E+02 -0.69017884410E+03  0.70755419900E+03  0.00000000000E+00 0. -1.
        -14    1    6    6    0    0  0.44438318219E+02  0.23577052971E+02 -0.53582551332E+03  0.53818177438E+03  0.00000000000E+00 0.  1.
</event>
<event>
12    1  0.2576962E-002  0.1745048E+03  0.7818608E-02  0.1173230E+00
          2   -1    0    0  502    0  0.00000000000E+00  0.00000000000E+00  0.52175980559E+03  0.52175980559E+03  0.00000000000E+00 0. -1.
         -2   -1    0    0    0  501 -0.00000000000E+00 -0.00000000000E+00 -0.62680422711E+02  0.62680422711E+02  0.00000000000E+00 0.  1.
          6    2    1    2  502    0 -0.34471545305E+01 -0.24245143937E+02  0.15248475064E+03  0.23151230270E+03  0.17247213469E+03 0.  0.
         24    2    3    3    0    0 -0.48031749588E+02  0.31642103127E+02  0.73110388719E+02  0.12458452412E+03  0.82872812512E+02 0.  0.
         -6    2    1    2    0  501  0.34471545305E+01  0.24245143937E+02  0.30659463224E+03  0.35292792560E+03  0.17308420573E+03 0.  0.
        -24    2    5    5    0    0  0.68228361791E+02  0.25965776286E+02  0.21537097867E+03  0.24093055795E+03  0.79583568727E+02 0.  0.
          5    1    3    3  502    0  0.44584595057E+02 -0.55887247064E+02  0.79374361917E+02  0.10692777857E+03  0.47000000000E+01 0. -1.
        -13    1    4    4    0    0 -0.50054433938E+02  0.19612365941E+02  0.34565550866E+01  0.53870576642E+02  0.00000000000E+00 0.  1.
         14    1    4    4    0    0  0.20226843501E+01  0.12029737186E+02  0.69653833633E+02  0.70713947482E+02  0.00000000000E+00 0. -1.
         -5    1    5    5    0  501 -0.64781207260E+02 -0.17206323483E+01  0.91223653573E+02  0.11199736765E+03  0.47000000000E+01 0.  1.
         13    1    6    6    0    0  0.20341138212E+02  0.48444331968E+02  0.13337274017E+03  0.14334888567E+03  0.00000000000E+00 0. -1.
        -14    1    6    6    0    0  0.47887223578E+02 -0.22478555682E+02  0.81998238502E+02  0.97581672280E+02  0.00000000000E+00 0.  1.
</event>
<event>
12    1  0.2576962E-002  0.2234878E+03  0.7818608E-02  0.1131309E+00
          2   -1    0    0  502    0  0.00000000000E+00  0.00000000000E+00  0.26017043657E+04  0.26017043657E+04  0.00000000000E+00 0.  1.
         -2   -1    0    0    0  501 -0.00000000000E+00 -0.00000000000E+00 -0.20382213777E+02  0.20382213777E+02  0.00000000000E+00 0. -1.
          6    2    1    2  502    0 -0.52618684349E+02 -0.13162923712E+03  0.97857885521E+03  0.10039363362E+04  0.17371415990E+03 0.  0.
         24    2    3    3    0    0  0.19261175542E+02 -0.13239554779E+02  0.34687304177E+03  0.35720829767E+03  0.82040125069E+02 0.  0.
         -6    2    1    2    0  501  0.52618684349E+02  0.13162923712E+03  0.16027432967E+04  0.16181502433E+04  0.17184048569E+03 0.  0.
        -24    2    5    5    0    0 -0.19658831491E+01  0.40419977712E+02  0.36882371939E+03  0.37965187129E+03  0.80417461385E+02 0.  0.
          5    1    3    3  502    0 -0.71879859891E+02 -0.11838968234E+03  0.63170581344E+03  0.64672803857E+03  0.47000000000E+01 0. -1.
        -11    1    4    4    0    0  0.41756946467E+02  0.10860788314E+02  0.27196695002E+03  0.27536815576E+03  0.00000000000E+00 0.  1.
         12    1    4    4    0    0 -0.22495770926E+02 -0.24100343093E+02  0.74906091746E+02  0.81840141907E+02  0.00000000000E+00 0. -1.
         -5    1    5    5    0  501  0.54584567498E+02  0.91209259407E+02  0.12339195774E+04  0.12384983720E+04  0.47000000000E+01 0.  1.
         13    1    6    6    0    0  0.33396209634E+02  0.40004241371E+02  0.26181648457E+03  0.26695227615E+03  0.00000000000E+00 0. -1.
        -14    1    6    6    0    0 -0.35362092783E+02  0.41573634076E+00  0.10700723482E+03  0.11269959514E+03  0.00000000000E+00 0.  1.
</event>
<event>
12    1  0.2576962E-002  0.1851767E+03  0.7818608E-02  0.1162885E+00
          1   -1    0    0  502    0  0.00000000000E+00  0.00000000000E+00  0.33665136440E+02  0.33665136440E+02  0.00000000000E+00 0. -1.
         -1   -1    0    0    0  501 -0.00000000000E+00 -0.00000000000E+00 -0.10486091298E+04  0.10486091298E+04  0.00000000000E+00 0.  1.
          6    2    1    2  502    0  0.63305722155E+02  0.11980385924E+02 -0.40948947701E+03  0.44838980416E+03  0.17094045918E+03 0.  0.
         24    2    3    3    0    0  0.74636479423E+02 -0.34675619622E+02 -0.36511122194E+03  0.38284067421E+03  0.80546724246E+02 0.  0.
         -6    2    1    2    0  501 -0.63305722155E+02 -0.11980385924E+02 -0.60545451640E+03  0.63388446213E+03  0.17630427051E+03 0.  0.
        -24    2    5    5    0    0 -0.43237498699E+02 -0.53380367836E+02 -0.20240888516E+03  0.22819423184E+03  0.79901850344E+02 0.  0.
          5    1    3    3  502    0 -0.11330757268E+02  0.46656005546E+02 -0.44378255074E+02  0.65549129950E+02  0.47000000000E+01 0. -1.
        -13    1    4    4    0    0  0.51868532568E+02 -0.56858397444E+02 -0.19228227837E+03  0.20711276302E+03  0.00000000000E+00 0.  1.
         14    1    4    4    0    0  0.22767946854E+02  0.22182777822E+02 -0.17282894357E+03  0.17572791119E+03  0.00000000000E+00 0. -1.
         -5    1    5    5    0  501 -0.20068223455E+02  0.41399981913E+02 -0.40304563123E+03  0.40569023029E+03  0.47000000000E+01 0.  1.
         13    1    6    6    0    0  0.49435843253E+01  0.97280523654E+01 -0.15419445228E+00  0.10913194067E+02  0.00000000000E+00 0. -1.
        -14    1    6    6    0    0 -0.48181083025E+02 -0.63108420202E+02 -0.20225469071E+03  0.21728103777E+03  0.00000000000E+00 0.  1.
</event>
<event>
12    1  0.2576962E-002  0.1740618E+03  0.7818608E-02  0.1173677E+00
          1   -1    0    0  502    0  0.00000000000E+00  0.00000000000E+00  0.59742209279E+03  0.59742209279E+03  0.00000000000E+00 0.  1.
         -1   -1    0    0    0  501 -0.00000000000E+00 -0.00000000000E+00 -0.69226936105E+02  0.69226936105E+02  0.00000000000E+00 0. -1.
          6    2    1    2  502    0 -0.60391847494E+00 -0.22094922447E+02  0.44020532514E+03  0.47466730264E+03  0.17618107047E+03 0.  0.
         24    2    3    3    0    0 -0.13521038961E+02 -0.71996401479E+02  0.19459197565E+03  0.22365930065E+03  0.82408406492E+02 0.  0.
         -6    2    1    2    0  501  0.60391847494E+00  0.22094922447E+02  0.87989831541E+02  0.19198172626E+03  0.16919285578E+03 0.  0.
        -24    2    5    5    0    0  0.39128580251E+01 -0.53498808903E+02  0.57207109210E+02  0.11015857981E+03  0.77361659431E+02 0.  0.
          5    1    3    3  502    0  0.12917120486E+02  0.49901479032E+02  0.24561334949E+03  0.25100800198E+03  0.47000000000E+01 0. -1.
        -13    1    4    4    0    0 -0.26128386585E+02 -0.30396787233E+02  0.16797083191E+03  0.17268716696E+03  0.00000000000E+00 0.  1.
         14    1    4    4    0    0  0.12607347624E+02 -0.41599614246E+02  0.26621143745E+02  0.50972133699E+02  0.00000000000E+00 0. -1.
         -5    1    5    5    0  501 -0.33089395501E+01  0.75593731350E+02  0.30782722331E+02  0.81823146446E+02  0.47000000000E+01 0.  1.
         13    1    6    6    0    0  0.83492259718E+01 -0.16059153916E+02 -0.18314508967E+02  0.25749315283E+02  0.00000000000E+00 0. -1.
        -14    1    6    6    0    0 -0.44363679467E+01 -0.37439654987E+02  0.75521618177E+02  0.84409264528E+02  0.00000000000E+00 0.  1.
</event>
<event>
12    1  0.2576962E-002  0.1748034E+03  0.7818608E-02  0.1172929E+00
         -2   -1    0    0    0  501 -0.00000000000E+00  0.00000000000E+00  0.22453528821E+02  0.22453528821E+02  0.00000000000E+00 0.  1.
          2   -1    0    0  502    0  0.00000000000E+00 -0.00000000000E+00 -0.13717235035E+04  0.13717235035E+04  0.00000000000E+00 0. -1.
          6    2    1    2  502    0 -0.23086491348E+01  0.27487673142E+02 -0.74123218664E+03  0.76185357028E+03  0.17388158616E+03 0.  0.
         24    2    3    3    0    0 -0.22251838054E+02 -0.38794753527E+02 -0.26306680542E+03  0.27868143464E+03  0.80368032810E+02 0.  0.
         -6    2    1    2    0  501  0.23086491348E+01 -0.27487673142E+02 -0.60803778801E+03  0.63232346201E+03  0.17135374791E+03 0.  0.
        -24    2    5    5    0    0 -0.28028603051E+02  0.20008099408E+01 -0.57068990920E+03  0.57569419788E+03  0.70336556470E+02 0.  0.
          5    1    3    3  502    0  0.19943188919E+02  0.66282426669E+02 -0.47816538122E+03  0.48317213564E+03  0.47000000000E+01 0. -1.
        -13    1    4    4    0    0  0.23728573136E+02 -0.64930780466E+01 -0.29312271205E+02  0.38267668975E+02  0.00000000000E+00 0.  1.
         14    1    4    4    0    0 -0.45980411191E+02 -0.32301675481E+02 -0.23375453422E+03  0.24041376566E+03  0.00000000000E+00 0. -1.
         -5    1    5    5    0  501  0.30337252186E+02 -0.29488483083E+02 -0.37347878809E+02  0.56629264133E+02  0.47000000000E+01 0.  1.
         13    1    6    6    0    0 -0.51049728427E+02  0.22379784108E+01 -0.33384480473E+03  0.33773278929E+03  0.00000000000E+00 0. -1.
        -14    1    6    6    0    0  0.23021125376E+02 -0.23716847007E+00 -0.23684510447E+03  0.23796140858E+03  0.00000000000E+00 0.  1.
</event>
<event>
12    1  0.2576962E-002  0.1956052E+03  0.7818608E-02  0.1153501E+00
          2   -1    0    0  502    0  0.00000000000E+00  0.00000000000E+00  0.50890748993E+03  0.50890748993E+03  0.00000000000E+00 0.  1.
         -2   -1    0    0    0  501 -0.00000000000E+00 -0.00000000000E+00 -0.77496851583E+02  0.77496851583E+02  0.00000000000E+00 0. -1.
          6    2    1    2  502    0 -0.53237358976E+02  0.74488463401E+02  0.16411810085E+03  0.25466035989E+03  0.17185575434E+03 0.  0.
         24    2    3    3    0    0 -0.12837840216E+02  0.10387802062E+03  0.74237538274E+02  0.15172118989E+03  0.80948465491E+02 0.  0.
         -6    2    1    2    0  501  0.53237358976E+02 -0.74488463401E+02  0.26729253750E+03  0.33174398163E+03  0.17385632337E+03 0.  0.
        -24    2    5    5    0    0  0.47563823721E+01 -0.12045040271E+02  0.39897153787E+02  0.90952917183E+02  0.80702813429E+02 0.  0.
          5    1    3    3  502    0 -0.40399518760E+02 -0.29389557215E+02  0.89880562579E+02  0.10293916999E+03  0.47000000000E+01 0. -1.
        -13    1    4    4    0    0 -0.24218407273E+02 -0.30958747754E+01  0.17981003249E+02  0.30322139920E+02  0.00000000000E+00 0.  1.
         14    1    4    4    0    0  0.11380567057E+02  0.10697389539E+03  0.56256535025E+02  0.12139904997E+03  0.00000000000E+00 0. -1.
         -5    1    5    5    0  501  0.48480976603E+02 -0.62443423130E+02  0.22739538371E+03  0.24079106444E+03  0.47000000000E+01 0.  1.
         13    1    6    6    0    0  0.31317670110E+02  0.21476545348E+02  0.25843777862E+02  0.45934075754E+02  0.00000000000E+00 0. -1.
        -14    1    6    6    0    0 -0.26561287738E+02 -0.33521585619E+02  0.14053375925E+02  0.45018841429E+02  0.00000000000E+00 0.  1.
</event>
<event>
12    1  0.2974528E-002  0.1766899E+03  0.7818608E-02  0.1171046E+00
          2   -1    0    0  502    0  0.00000000000E+00  0.00000000000E+00  0.17960185755E+04  0.17960185755E+04  0.00000000000E+00 0.  1.
         -2   -1    0    0    0  501 -0.00000000000E+00 -0.00000000000E+00 -0.27084770469E+02  0.27084770469E+02  0.00000000000E+00 0. -1.
          6    2    1    2  502    0  0.43716146931E+02  0.10235193270E+02  0.14343918714E+04  0.14454016259E+04  0.17230774416E+03 0.  0.
         24    2    3    3    0    0  0.93755757381E+02  0.78026607890E+01  0.83903112454E+03  0.84791824643E+03  0.78365177999E+02 0.  0.
         -6    2    1    2    0  501 -0.43716146931E+02 -0.10235193270E+02  0.33454193360E+03  0.37770172005E+03  0.16948281125E+03 0.  0.
        -24    2    5    5    0    0 -0.43292771452E+02 -0.12332199585E+02  0.34961876457E+03  0.36176504804E+03  0.81328483535E+02 0.  0.
          5    1    3    3  502    0 -0.50039610450E+02  0.24325324809E+01  0.59536074686E+03  0.59748337946E+03  0.47000000000E+01 0. -1.
        -13    1    4    4    0    0  0.33930433087E+02 -0.11059241663E+02  0.59104900921E+03  0.59212541949E+03  0.00000000000E+00 0.  1.
         14    1    4    4    0    0  0.59825324294E+02  0.18861902452E+02  0.24798211533E+03  0.25579282694E+03  0.00000000000E+00 0. -1.
         -5    1    5    5    0  501 -0.42337547881E+00  0.20970063149E+01 -0.15076830979E+02  0.15936672006E+02  0.47000000000E+01 0.  1.
         13    1    6    6    0    0 -0.23964758830E+01  0.61781848186E+00 -0.44581437399E+01  0.50990040145E+01  0.00000000000E+00 0. -1.
        -14    1    6    6    0    0 -0.40896295569E+02 -0.12950018067E+02  0.35407690831E+03  0.35666604402E+03  0.00000000000E+00 0.  1.
</event>
<event>
12    1  0.2576962E-002  0.2009887E+03  0.7818608E-02  0.1148907E+00
         -1   -1    0    0    0  501 -0.00000000000E+00  0.00000000000E+00  0.37918108236E+02  0.37918108236E+02  0.00000000000E+00 0. -1.
          1   -1    0    0  502    0  0.00000000000E+00 -0.00000000000E+00 -0.16690605004E+04  0.16690605004E+04  0.00000000000E+00 0.  1.
          6    2    1    2  502    0 -0.66962247681E+02 -0.80012742351E+02 -0.13289472863E+04  0.13440643367E+04  0.17181987607E+03 0.  0.
         24    2    3    3    0    0 -0.69323176225E+02 -0.11662738925E+03 -0.89416531552E+03  0.90771165998E+03  0.77467383402E+02 0.  0.
         -6    2    1    2    0  501  0.66962247681E+02  0.80012742351E+02 -0.30219510583E+03  0.36291427192E+03  0.17175245333E+03 0.  0.
        -24    2    5    5    0    0 -0.14804258197E+02  0.83963544138E+02 -0.19933953158E+03  0.23137443205E+03  0.80801213810E+02 0.  0.
          5    1    3    3  502    0  0.23609285439E+01  0.36614646895E+02 -0.43478197078E+03  0.43635267670E+03  0.47000000000E+01 0. -1.
        -13    1    4    4    0    0 -0.14040958290E+02 -0.15442162840E+02 -0.38879924601E+03  0.38935904073E+03  0.00000000000E+00 0.  1.
         14    1    4    4    0    0 -0.55282217935E+02 -0.10118522641E+03 -0.50536606951E+03  0.51835261924E+03  0.00000000000E+00 0. -1.
         -5    1    5    5    0  501  0.81766505878E+02 -0.39508017874E+01 -0.10285557425E+03  0.13153983987E+03  0.47000000000E+01 0.  1.
         13    1    6    6    0    0  0.10133987748E+02  0.40623870610E+02 -0.22357086788E+02  0.47464048507E+02  0.00000000000E+00 0. -1.
        -14    1    6    6    0    0 -0.24938245946E+02  0.43339673528E+02 -0.17698244479E+03  0.18391038355E+03  0.00000000000E+00 0.  1.
</event>
<event>
12    1  0.2576962E-002  0.2199855E+03  0.7818608E-02  0.1133894E+00
          2   -1    0    0  502    0  0.00000000000E+00  0.00000000000E+00  0.38592031506E+03  0.38592031506E+03  0.00000000000E+00 0.  1.
         -2   -1    0    0    0  501 -0.00000000000E+00 -0.00000000000E+00 -0.13853991319E+03  0.13853991319E+03  0.00000000000E+00 0. -1.
          6    2    1    2  502    0 -0.10553558850E+02  0.13585268103E+03  0.20434876534E+03  0.30010029488E+03  0.17243677260E+03 0.  0.
         24    2    3    3    0    0 -0.31114548240E+02  0.15512865282E+03  0.12745981716E+03  0.21807397151E+03  0.79229022613E+02 0.  0.
         -6    2    1    2    0  501  0.10553558850E+02 -0.13585268103E+03  0.43031636537E+02  0.22435993337E+03  0.17296915739E+03 0.  0.
        -24    2    5    5    0    0 -0.54900878712E+02 -0.11582691328E+03  0.32570036135E+02  0.15495640425E+03  0.80750849167E+02 0.  0.
          5    1    3    3  502    0  0.20560989390E+02 -0.19275971786E+02  0.76888948182E+02  0.82026323370E+02  0.47000000000E+01 0. -1.
        -11    1    4    4    0    0 -0.35214662062E+02  0.28477392509E+02  0.57937934766E+02  0.73538007813E+02  0.00000000000E+00 0.  1.
         12    1    4    4    0    0  0.41001138219E+01  0.12665126031E+03  0.69521882390E+02  0.14453596370E+03  0.00000000000E+00 0. -1.
         -5    1    5    5    0  501  0.65454437562E+02 -0.20025767746E+02  0.10461600402E+02  0.69403529113E+02  0.47000000000E+01 0.  1.
         13    1    6    6    0    0 -0.47670003742E+02 -0.87616327963E+02 -0.13294550823E+02  0.10062701061E+03  0.00000000000E+00 0. -1.
        -14    1    6    6    0    0 -0.72308749704E+01 -0.28210585320E+02  0.45864586958E+02  0.54329393644E+02  0.00000000000E+00 0.  1.
</event>
<event>
12    1  0.2576962E-002  0.1925290E+03  0.7818608E-02  0.1156200E+00
          2   -1    0    0  502    0  0.00000000000E+00  0.00000000000E+00  0.10235547583E+04  0.10235547583E+04  0.00000000000E+00 0.  1.
         -2   -1    0    0    0  501 -0.00000000000E+00 -0.00000000000E+00 -0.45291298632E+02  0.45291298632E+02  0.00000000000E+00 0. -1.
          6    2    1    2  502    0 -0.62581267918E+02  0.67205915230E+02  0.73409149152E+03  0.75965870467E+03  0.17250501303E+03 0.  0.
         24    2    3    3    0    0 -0.10341879595E+03  0.36725335000E+02  0.41932967229E+03  0.44076395352E+03  0.79945550663E+02 0.  0.
         -6    2    1    2    0  501  0.62581267918E+02 -0.67205915230E+02  0.24417196811E+03  0.30918735223E+03  0.16596330507E+03 0.  0.
        -24    2    5    5    0    0  0.29155684795E+02  0.27833102022E+01  0.20661666221E+03  0.22288409455E+03  0.78288401000E+02 0.  0.
          5    1    3    3  502    0  0.40837528031E+02  0.30480580230E+02  0.31476181923E+03  0.31889475115E+03  0.47000000000E+01 0. -1.
        -11    1    4    4    0    0 -0.32240520008E+02  0.53192654492E+02  0.21214153690E+03  0.22107225358E+03  0.00000000000E+00 0.  1.
         12    1    4    4    0    0 -0.71178275941E+02 -0.16467319492E+02  0.20718813539E+03  0.21969169994E+03  0.00000000000E+00 0. -1.
         -5    1    5    5    0  501  0.33425583123E+02 -0.69989225432E+02  0.37555305903E+02  0.86303257674E+02  0.47000000000E+01 0.  1.
         13    1    6    6    0    0 -0.94141304379E+00 -0.16824659809E+02  0.42832153605E+01  0.17386815983E+02  0.00000000000E+00 0. -1.
        -14    1    6    6    0    0  0.30097097839E+02  0.19607970011E+02  0.20233344685E+03  0.20549727857E+03  0.00000000000E+00 0.  1.
</event>
<event>
12    1  0.2576962E-002  0.3260640E+03  0.7818608E-02  0.1072892E+00
         -1   -1    0    0    0  501 -0.00000000000E+00  0.00000000000E+00  0.30055527790E+03  0.30055527790E+03  0.00000000000E+00 0.  1.
          1   -1    0    0  502    0  0.00000000000E+00 -0.00000000000E+00 -0.35390902692E+03  0.35390902692E+03  0.00000000000E+00 0. -1.
          6    2    1    2  502    0  0.34468331149E+02  0.27419048260E+03 -0.33883201142E+02  0.32791879954E+03  0.17324601343E+03 0.  0.
         24    2    3    3    0    0 -0.32804905227E+02  0.17764302637E+03  0.20307777789E+02  0.19828141359E+03  0.79182741252E+02 0.  0.
         -6    2    1    2    0  501 -0.34468331149E+02 -0.27419048260E+03 -0.19470547879E+02  0.32654550528E+03  0.17287098709E+03 0.  0.
        -24    2    5    5    0    0 -0.81145371074E+02 -0.12315075561E+03 -0.94620160688E+01  0.16807151405E+03  0.80048886519E+02 0.  0.
          5    1    3    3  502    0  0.67273236376E+02  0.96547456239E+02 -0.54190978931E+02  0.12963738595E+03  0.47000000000E+01 0. -1.
        -13    1    4    4    0    0 -0.49629362447E+02  0.99759456739E+02 -0.12479187786E+02  0.11211936922E+03  0.00000000000E+00 0.  1.
         14    1    4    4    0    0  0.16824457220E+02  0.77883569627E+02  0.32786965575E+02  0.86162044371E+02  0.00000000000E+00 0. -1.
         -5    1    5    5    0  501  0.46677039925E+02 -0.15103972699E+03 -0.10008531811E+02  0.15847399123E+03  0.47000000000E+01 0.  1.
         11    1    6    6    0    0 -0.50195909936E+02 -0.93515136308E+02 -0.42127564457E+02  0.11419037516E+03  0.00000000000E+00 0. -1.
        -12    1    6    6    0    0 -0.30949461138E+02 -0.29635619303E+02  0.32665548388E+02  0.53881138886E+02  0.00000000000E+00 0.  1.
</event>
<event>
12    1  0.2576962E-002  0.2152719E+03  0.7818608E-02  0.1137458E+00
         -1   -1    0    0    0  501 -0.00000000000E+00  0.00000000000E+00  0.61446131896E+02  0.61446131896E+02  0.00000000000E+00 0.  1.
          1   -1    0    0  502    0  0.00000000000E+00 -0.00000000000E+00 -0.87513130755E+03  0.87513130755E+03  0.00000000000E+00 0. -1.
          6    2    1    2  502    0  0.13025227718E+03 -0.88587252999E+01 -0.58198364311E+03  0.62074791036E+03  0.17198510006E+03 0.  0.
         24    2    3    3    0    0  0.72623280618E+02 -0.21098801788E+02 -0.52971245082E+03  0.54184741442E+03  0.85346585348E+02 0.  0.
         -6    2    1    2    0  501 -0.13025227718E+03  0.88587252999E+01 -0.23170153254E+03  0.31582952909E+03  0.17034834468E+03 0.  0.
        -24    2    5    5    0    0 -0.36161790300E+01  0.35716216596E+02 -0.12490560838E+03  0.14794419438E+03  0.70691928582E+02 0.  0.
          5    1    3    3  502    0  0.57628996559E+02  0.12240076488E+02 -0.52271192292E+02  0.78900495946E+02  0.47000000000E+01 0. -1.
        -13    1    4    4    0    0  0.63373545471E+02  0.73029592865E+01 -0.18203661757E+03  0.19289082305E+03  0.00000000000E+00 0.  1.
         14    1    4    4    0    0  0.92497351466E+01 -0.28401761075E+02 -0.34767583325E+03  0.34895659137E+03  0.00000000000E+00 0. -1.
         -5    1    5    5    0  501 -0.12663609815E+03 -0.26857491296E+02 -0.10679592417E+03  0.16788533471E+03  0.47000000000E+01 0.  1.
         13    1    6    6    0    0 -0.12419137975E+02  0.23160245351E+02 -0.46173158079E+01  0.26682420393E+02  0.00000000000E+00 0. -1.
        -14    1    6    6    0    0  0.88029589448E+01  0.12555971245E+02 -0.12028829257E+03  0.12126177398E+03  0.00000000000E+00 0.  1.
</event>
<event>
12    1  0.2576962E-002  0.2420428E+03  0.7818608E-02  0.1118439E+00
          2   -1    0    0  502    0  0.00000000000E+00  0.00000000000E+00  0.18995941981E+04  0.18995941981E+04  0.00000000000E+00 0. -1.
         -2   -1    0    0    0  501 -0.00000000000E+00 -0.00000000000E+00 -0.51128493313E+02  0.51128493313E+02  0.00000000000E+00 0.  1.
          6    2    1    2  502    0 -0.16597194794E+03 -0.37544098476E+02  0.15409847962E+04  0.15600376459E+04  0.17357150611E+03 0.  0.
         24    2    3    3    0    0 -0.89003261645E+02  0.16897842310E+02  0.47508553518E+03  0.48996688741E+03  0.78448501307E+02 0.  0.
         -6    2    1    2    0  501  0.16597194794E+03  0.37544098476E+02  0.30748090856E+03  0.39068504547E+03  0.17068699069E+03 0.  0.
        -24    2    5    5    0    0 -0.11032339368E+02  0.23539184470E+02  0.11731234981E+03  0.13046816270E+03  0.50832551993E+02 0.  0.
          5    1    3    3  502    0 -0.76968686295E+02 -0.54441940786E+02  0.10658992610E+04  0.10700707585E+04  0.47000000000E+01 0. -1.
        -11    1    4    4    0    0 -0.45333410427E+02 -0.27694415238E+02  0.15493966031E+03  0.16379376384E+03  0.00000000000E+00 0.  1.
         12    1    4    4    0    0 -0.43669851218E+02  0.44592257548E+02  0.32014587487E+03  0.32617312356E+03  0.00000000000E+00 0. -1.
         -5    1    5    5    0  501  0.17700428731E+03  0.14004914007E+02  0.19016855875E+03  0.26021688277E+03  0.47000000000E+01 0.  1.
         13    1    6    6    0    0 -0.17123066602E+02 -0.59654079347E+01  0.82321552879E+02  0.84294860876E+02  0.00000000000E+00 0. -1.
        -14    1    6    6    0    0  0.60907272337E+01  0.29504592404E+02  0.34990796932E+02  0.46173301822E+02  0.00000000000E+00 0.  1.
</event>
<event>
12    1  0.2576962E-002  0.2501086E+03  0.7818608E-02  0.1113236E+00
         -2   -1    0    0    0  501 -0.00000000000E+00  0.00000000000E+00  0.93561032016E+02  0.93561032016E+02  0.00000000000E+00 0. -1.
          2   -1    0    0  502    0  0.00000000000E+00 -0.00000000000E+00 -0.81154759664E+03  0.81154759664E+03  0.00000000000E+00 0.  1.
          6    2    1    2  502    0  0.81223102466E+02 -0.16349036465E+03 -0.54958621056E+03  0.60405140747E+03  0.17177545902E+03 0.  0.
         24    2    3    3    0    0  0.10532442838E+03 -0.96472860473E+02 -0.46631103057E+03  0.49437431151E+03  0.80992188673E+02 0.  0.
         -6    2    1    2    0  501 -0.81223102466E+02  0.16349036465E+03 -0.16840035406E+03  0.30105722118E+03  0.17014840425E+03 0.  0.
        -24    2    5    5    0    0 -0.64847851329E+02  0.14326199217E+03 -0.48859169051E+02  0.17862552260E+03  0.69214281068E+02 0.  0.
          5    1    3    3  502    0 -0.24101325911E+02 -0.67017504178E+02 -0.83275179993E+02  0.10967709597E+03  0.47000000000E+01 0. -1.
        -13    1    4    4    0    0  0.40958120144E+02 -0.88809384194E+02 -0.31299325519E+03  0.32791683720E+03  0.00000000000E+00 0.  1.
         14    1    4    4    0    0  0.64366308233E+02 -0.76634762783E+01 -0.15331777538E+03  0.16645747430E+03  0.00000000000E+00 0. -1.
         -5    1    5    5    0  501 -0.16375251137E+02  0.20228372484E+02 -0.11954118501E+03  0.12243169858E+03  0.47000000000E+01 0.  1.
         13    1    6    6    0    0 -0.49284917292E+02  0.13679405328E+03 -0.61180134761E+02  0.15774861322E+03  0.00000000000E+00 0. -1.
        -14    1    6    6    0    0 -0.15562934037E+02  0.64679388906E+01  0.12320965710E+02  0.20876909382E+02  0.00000000000E+00 0.  1.
</event>
<event>
12    1  0.2576962E-002  0.1954077E+03  0.7818608E-02  0.1153672E+00
         -1   -1    0    0    0  501 -0.00000000000E+00  0.00000000000E+00  0.22728186409E+02  0.22728186409E+02  0.00000000000E+00 0. -1.
          1   -1    0    0  502    0  0.00000000000E+00 -0.00000000000E+00 -0.16827802613E+04  0.16827802613E+04  0.00000000000E+00 0.  1.
          6    2    1    2  502    0 -0.12317867332E+02 -0.86386401082E+02 -0.78844679729E+03  0.81184095567E+03  0.17269350016E+03 0.  0.
         24    2    3    3    0    0 -0.36466181903E+02 -0.10244153798E+03 -0.75635945381E+03  0.76833697736E+03  0.80237374585E+02 0.  0.
         -6    2    1    2    0  501  0.12317867332E+02  0.86386401082E+02 -0.87160527764E+03  0.89366749208E+03  0.17700702314E+03 0.  0.
        -24    2    5    5    0    0  0.43999992611E+02  0.88771253516E+02 -0.83736375384E+03  0.84672053760E+03  0.77079684315E+02 0.  0.
          5    1    3    3  502    0  0.24148314571E+02  0.16055136899E+02 -0.32087343484E+02  0.43503978316E+02  0.47000000000E+01 0. -1.
        -13    1    4    4    0    0 -0.40934635128E+02 -0.75645732270E+02 -0.32711847418E+03  0.33823722047E+03  0.00000000000E+00 0.  1.
         14    1    4    4    0    0  0.44684532249E+01 -0.26795805711E+02 -0.42924097963E+03  0.43009975688E+03  0.00000000000E+00 0. -1.
         -5    1    5    5    0  501 -0.31682125279E+02 -0.23848524338E+01 -0.34241523793E+02  0.46946954481E+02  0.47000000000E+01 0.  1.
         11    1    6    6    0    0  0.11497929608E+02  0.19683927181E+02 -0.42759052581E+02  0.48456123990E+02  0.00000000000E+00 0. -1.
        -12    1    6    6    0    0  0.32502063003E+02  0.69087326335E+02 -0.79460470126E+03  0.79826441361E+03  0.00000000000E+00 0.  1.
</event>
<event>
12    1  0.2576962E-002  0.2047746E+03  0.7818608E-02  0.1145772E+00
          2   -1    0    0  502    0  0.00000000000E+00  0.00000000000E+00  0.30564850118E+03  0.30564850118E+03  0.00000000000E+00 0.  1.
         -2   -1    0    0    0  501 -0.00000000000E+00 -0.00000000000E+00 -0.14977215333E+03  0.14977215333E+03  0.00000000000E+00 0. -1.
          6    2    1    2  502    0 -0.47256871361E+02 -0.10514672479E+03  0.14462644933E+03  0.25243360543E+03  0.17180474288E+03 0.  0.
         24    2    3    3    0    0 -0.26789344588E+02 -0.13412855442E+02  0.98800146847E+02  0.14776191662E+03  0.10570970301E+03 0.  0.
         -6    2    1    2    0  501  0.47256871361E+02  0.10514672479E+03  0.11249898513E+02  0.20298704909E+03  0.16669773920E+03 0.  0.
        -24    2    5    5    0    0 -0.94314153566E+01 -0.34686936811E+01  0.23669346038E+01  0.80056710969E+02  0.79388230616E+02 0.  0.
          5    1    3    3  502    0 -0.20467526773E+02 -0.91733869352E+02  0.45826302488E+02  0.10467168881E+03  0.47000000000E+01 0. -1.
        -11    1    4    4    0    0 -0.27900321041E+02 -0.37410428825E+02  0.11129490630E+03  0.12068357083E+03  0.00000000000E+00 0.  1.
         12    1    4    4    0    0  0.11109764528E+01  0.23997573383E+02 -0.12494759453E+02  0.27078345790E+02  0.00000000000E+00 0. -1.
         -5    1    5    5    0  501  0.56688286718E+02  0.10861541848E+03  0.88829639096E+01  0.12293033812E+03  0.47000000000E+01 0.  1.
         13    1    6    6    0    0 -0.24151147569E+01  0.36333132935E+01 -0.38114014058E+02  0.38362896299E+02  0.00000000000E+00 0. -1.
        -14    1    6    6    0    0 -0.70163005998E+01 -0.71020069746E+01  0.40480948662E+02  0.41693814670E+02  0.00000000000E+00 0.  1.
</event>
<event>
12    1  0.2576962E-002  0.2173574E+03  0.7818608E-02  0.1135869E+00
         -1   -1    0    0    0  501 -0.00000000000E+00  0.00000000000E+00  0.22786276485E+03  0.22786276485E+03  0.00000000000E+00 0.  1.
          1   -1    0    0  502    0  0.00000000000E+00 -0.00000000000E+00 -0.20845957697E+03  0.20845957697E+03  0.00000000000E+00 0. -1.
          6    2    1    2  502    0 -0.73793587403E+02 -0.10888965335E+03  0.25697103655E+02  0.21854409355E+03  0.17262308519E+03 0.  0.
         24    2    3    3    0    0 -0.16842609424E+02  0.80852855368E+01  0.12633408000E+02  0.87703349268E+02  0.84753932892E+02 0.  0.
         -6    2    1    2    0  501  0.73793587403E+02  0.10888965335E+03 -0.62939157802E+01  0.21777824827E+03  0.17345115132E+03 0.  0.
        -24    2    5    5    0    0 -0.14670882310E+02  0.86563610679E+01 -0.17774865070E+02  0.83515157730E+02  0.79803937044E+02 0.  0.
          5    1    3    3  502    0 -0.56950977979E+02 -0.11697493889E+03  0.13063695655E+02  0.13084074428E+03  0.47000000000E+01 0. -1.
        -11    1    4    4    0    0 -0.73514427522E+01  0.38102016766E+02 -0.18884600807E+02  0.43155944432E+02  0.00000000000E+00 0.  1.
         12    1    4    4    0    0 -0.94911666715E+01 -0.30016731229E+02  0.31518008807E+02  0.44547404836E+02  0.00000000000E+00 0. -1.
         -5    1    5    5    0  501  0.88464469713E+02  0.10023329228E+03  0.11480949290E+02  0.13426309054E+03  0.47000000000E+01 0.  1.
         13    1    6    6    0    0 -0.36144360388E+02 -0.16266446980E+01  0.18102293483E+02  0.40456813890E+02  0.00000000000E+00 0. -1.
        -14    1    6    6    0    0  0.21473478078E+02  0.10283005766E+02 -0.35877158553E+02  0.43058343839E+02  0.00000000000E+00 0.  1.
</event>
<event>
12    1  0.2576962E-002  0.1900089E+03  0.7818608E-02  0.1158453E+00
          2   -1    0    0  502    0  0.00000000000E+00  0.00000000000E+00  0.26996358967E+03  0.26996358967E+03  0.00000000000E+00 0.  1.
         -2   -1    0    0    0  501 -0.00000000000E+00 -0.00000000000E+00 -0.13628009880E+03  0.13628009880E+03  0.00000000000E+00 0. -1.
          6    2    1    2  502    0 -0.60530720470E+02 -0.54935257208E+02  0.94784098083E+02  0.21282170707E+03  0.17212554472E+03 0.  0.
         24    2    3    3    0    0 -0.93572680889E+02 -0.13113321435E+02  0.10035876633E+03  0.15902568132E+03  0.79306238926E+02 0.  0.
         -6    2    1    2    0  501  0.60530720470E+02  0.54935257208E+02  0.38899392789E+02  0.19342198139E+03  0.17092995501E+03 0.  0.
        -24    2    5    5    0    0  0.92693203544E+02  0.74890126209E+02  0.52544959449E+02  0.15291378958E+03  0.80131724637E+02 0.  0.
          5    1    3    3  502    0  0.33041960419E+02 -0.41821935773E+02 -0.55746682504E+01  0.53796025748E+02  0.47000000000E+01 0. -1.
        -13    1    4    4    0    0 -0.50051935284E+02 -0.44066246368E+02  0.73510683029E+02  0.99251452454E+02  0.00000000000E+00 0.  1.
         14    1    4    4    0    0 -0.43520745604E+02  0.30952924933E+02  0.26848083304E+02  0.59774228870E+02  0.00000000000E+00 0. -1.
         -5    1    5    5    0  501 -0.32162483074E+02 -0.19954869001E+02 -0.13645566660E+02  0.40508191811E+02  0.47000000000E+01 0.  1.
         11    1    6    6    0    0  0.38644606657E+02  0.77689589169E+02  0.17733736156E+02  0.88563893811E+02  0.00000000000E+00 0. -1.
        -12    1    6    6    0    0  0.54048596887E+02 -0.27994629597E+01  0.34811223293E+02  0.64349895769E+02  0.00000000000E+00 0.  1.
</event>
<event>
12    1  0.2576962E-002  0.3273549E+03  0.7818608E-02  0.1072313E+00
         -1   -1    0    0    0  501 -0.00000000000E+00  0.00000000000E+00  0.16874364282E+03  0.16874364282E+03  0.00000000000E+00 0.  1.
          1   -1    0    0  502    0  0.00000000000E+00 -0.00000000000E+00 -0.63722154404E+03  0.63722154404E+03  0.00000000000E+00 0. -1.
          6    2    1    2  502    0 -0.25479295019E+03  0.10854649319E+03 -0.21169892137E+03  0.39092116817E+03  0.17692127562E+03 0.  0.
         24    2    3    3    0    0 -0.20379613962E+03  0.64752560761E+02 -0.77992787589E+02  0.24119473959E+03  0.79788889208E+02 0.  0.
         -6    2    1    2    0  501  0.25479295019E+03 -0.10854649319E+03 -0.25677897986E+03  0.41504401868E+03  0.17211712379E+03 0.  0.
        -24    2    5    5    0    0  0.11278341851E+03  0.17846922962E+02 -0.10567315844E+03  0.17215091051E+03  0.73691976658E+02 0.  0.
          5    1    3    3  502    0 -0.50996810568E+02  0.43793932432E+02 -0.13370613378E+03  0.14972642858E+03  0.47000000000E+01 0. -1.
        -13    1    4    4    0    0 -0.14477976166E+02 -0.16629012013E+02 -0.98799516091E+01  0.24160903919E+02  0.00000000000E+00 0.  1.
         14    1    4    4    0    0 -0.18931816345E+03  0.81381572775E+02 -0.68112835980E+02  0.21703383567E+03  0.00000000000E+00 0. -1.
         -5    1    5    5    0  501  0.14200953167E+03 -0.12639341616E+03 -0.15110582141E+03  0.24289310817E+03  0.47000000000E+01 0.  1.
         13    1    6    6    0    0  0.75438253424E+01 -0.14867293648E+02 -0.41258785927E+02  0.44499810532E+02  0.00000000000E+00 0. -1.
        -14    1    6    6    0    0  0.10523959317E+03  0.32714216611E+02 -0.64414372517E+02  0.12765109998E+03  0.00000000000E+00 0.  1.
</event>
<event>
12    1  0.2576962E-002  0.2472372E+03  0.7818608E-02  0.1115063E+00
          2   -1    0    0  502    0  0.00000000000E+00  0.00000000000E+00  0.50011292242E+03  0.50011292242E+03  0.00000000000E+00 0. -1.
         -2   -1    0    0    0  501 -0.00000000000E+00 -0.00000000000E+00 -0.19341320536E+03  0.19341320536E+03  0.00000000000E+00 0.  1.
          6    2    1    2  502    0  0.28435642734E+02 -0.17640171417E+03 -0.57080425015E+02  0.25360343031E+03  0.17067622683E+03 0.  0.
         24    2    3    3    0    0  0.44466484319E+02 -0.16592496597E+03 -0.95464635359E+02  0.21045035698E+03  0.75282757559E+02 0.  0.
         -6    2    1    2    0  501 -0.28435642734E+02  0.17640171417E+03  0.36378014207E+03  0.43992269746E+03  0.17108429922E+03 0.  0.
        -24    2    5    5    0    0 -0.42359361680E+02  0.33687120621E+02  0.20086297722E+03  0.22283880178E+03  0.79887785949E+02 0.  0.
          5    1    3    3  502    0 -0.16030841585E+02 -0.10476748198E+02  0.38384210344E+02  0.43153073338E+02  0.47000000000E+01 0. -1.
        -11    1    4    4    0    0  0.12092229531E+02 -0.14439291952E+03 -0.91494360939E+02  0.17136731108E+03  0.00000000000E+00 0.  1.
         12    1    4    4    0    0  0.32374254788E+02 -0.21532046451E+02 -0.39702744203E+01  0.39083045895E+02  0.00000000000E+00 0. -1.
         -5    1    5    5    0  501  0.13923718946E+02  0.14271459355E+03  0.16291716485E+03  0.21708389568E+03  0.47000000000E+01 0.  1.
         13    1    6    6    0    0 -0.62763393306E+02  0.27573647081E+02  0.18164389753E+03  0.19414956880E+03  0.00000000000E+00 0. -1.
        -14    1    6    6    0    0  0.20404031625E+02  0.61134735398E+01  0.19219079689E+02  0.28689232987E+02  0.00000000000E+00 0.  1.
</event>
<event>
12    1  0.2576962E-002  0.1881920E+03  0.7818608E-02  0.1160102E+00
          1   -1    0    0  502    0  0.00000000000E+00  0.00000000000E+00  0.24194196717E+04  0.24194196717E+04  0.00000000000E+00 0. -1.
         -1   -1    0    0    0  501 -0.00000000000E+00 -0.00000000000E+00 -0.44790539461E+02  0.44790539461E+02  0.00000000000E+00 0.  1.
          6    2    1    2  502    0 -0.90293291169E+01 -0.54634702500E+02  0.22185108789E+04  0.22274104007E+04  0.19104997827E+03 0.  0.
         24    2    3    3    0    0  0.56996960949E+02 -0.38075633552E+02  0.18220209785E+04  0.18250921128E+04  0.80637253072E+02 0.  0.
         -6    2    1    2    0  501  0.90293291169E+01  0.54634702500E+02  0.15611825340E+03  0.23679981044E+03  0.16921808910E+03 0.  0.
        -24    2    5    5    0    0 -0.46976916494E+02  0.61011809895E+02  0.14265586114E+03  0.17865608291E+03  0.75086813841E+02 0.  0.
          5    1    3    3  502    0 -0.66026290066E+02 -0.16559068948E+02  0.39648990036E+03  0.40231828797E+03  0.47000000000E+01 0. -1.
        -11    1    4    4    0    0 -0.19621725068E+02 -0.86444928700E+01  0.55607137542E+03  0.55648460349E+03  0.00000000000E+00 0.  1.
         12    1    4    4    0    0  0.76618686017E+02 -0.29431140682E+02  0.12659496031E+04  0.12686075093E+04  0.00000000000E+00 0. -1.
         -5    1    5    5    0  501  0.56006245611E+02 -0.63771073948E+01  0.13462392258E+02  0.58143727533E+02  0.47000000000E+01 0.  1.
         13    1    6    6    0    0 -0.66134517056E+02  0.36273442645E+02  0.11049569718E+03  0.13378653177E+03  0.00000000000E+00 0. -1.
        -14    1    6    6    0    0  0.19157600562E+02  0.24738367249E+02  0.32160163958E+02  0.44869551138E+02  0.00000000000E+00 0.  1.
</event>
<event>
12    1  0.2576962E-002  0.2272781E+03  0.7818608E-02  0.1128570E+00
         -2   -1    0    0    0  501 -0.00000000000E+00  0.00000000000E+00  0.36751475416E+02  0.36751475416E+02  0.00000000000E+00 0.  1.
          2   -1    0    0  502    0  0.00000000000E+00 -0.00000000000E+00 -0.19444789369E+04  0.19444789369E+04  0.00000000000E+00 0. -1.
          6    2    1    2  502    0 -0.10986080840E+03 -0.99803261394E+02 -0.43222716604E+03  0.48832288049E+03  0.17207214865E+03 0.  0.
         24    2    3    3    0    0 -0.49097222248E+02  0.12778008686E+02 -0.21745754615E+03  0.23829321145E+03  0.83198891253E+02 0.  0.
         -6    2    1    2    0  501  0.10986080840E+03  0.99803261394E+02 -0.14755002955E+04  0.14929075318E+04  0.17216761749E+03 0.  0.
        -24    2    5    5    0    0  0.78351143592E+02  0.89390094021E+02 -0.61461927444E+03  0.63137429662E+03  0.82141093926E+02 0.  0.
          5    1    3    3  502    0 -0.60763586153E+02 -0.11258127008E+03 -0.21476961989E+03  0.25002966904E+03  0.47000000000E+01 0. -1.
        -13    1    4    4    0    0  0.91601721496E-01 -0.22228853782E+02 -0.14485302916E+02  0.26532137719E+02  0.00000000000E+00 0.  1.
         14    1    4    4    0    0 -0.49188823969E+02  0.35006862468E+02 -0.20297224324E+03  0.21176107373E+03  0.00000000000E+00 0. -1.
         -5    1    5    5    0  501  0.31509664809E+02  0.10413167373E+02 -0.86088102102E+03  0.86153323522E+03  0.47000000000E+01 0.  1.
         11    1    6    6    0    0  0.41305039636E+02  0.69880609641E+02 -0.53774627555E+03  0.54383863671E+03  0.00000000000E+00 0. -1.
        -12    1    6    6    0    0  0.37046103956E+02  0.19509484379E+02 -0.76872998881E+02  0.87535659911E+02  0.00000000000E+00 0.  1.
</event>
<event>
12    1  0.2576962E-002  0.2192545E+03  0.7818608E-02  0.1134440E+00
         -2   -1    0    0    0  501 -0.00000000000E+00  0.00000000000E+00  0.49849017150E+02  0.49849017150E+02  0.00000000000E+00 0.  1.
          2   -1    0    0  502    0  0.00000000000E+00 -0.00000000000E+00 -0.20630362930E+04  0.20630362930E+04  0.00000000000E+00 0. -1.
          6    2    1    2  502    0  0.76700901501E+02 -0.10840785364E+03 -0.17758962945E+04  0.17892863847E+04  0.17350166179E+03 0.  0.
         24    2    3    3    0    0  0.44569507848E+02 -0.11967686327E+03 -0.89631448282E+03  0.90903319926E+03  0.81564162595E+02 0.  0.
         -6    2    1    2    0  501 -0.76700901501E+02  0.10840785364E+03 -0.23729098127E+03  0.32359892537E+03  0.17542509423E+03 0.  0.
        -24    2    5    5    0    0 -0.11483696246E+03  0.61909046525E+02 -0.20417626473E+03  0.25478633451E+03  0.78790044964E+02 0.  0.
          5    1    3    3  502    0  0.32131393653E+02  0.11269009631E+02 -0.87958181171E+03  0.88025318547E+03  0.47000000000E+01 0. -1.
        -11    1    4    4    0    0 -0.12609773654E+02 -0.80602503809E+02 -0.44117002107E+03  0.44864992756E+03  0.00000000000E+00 0.  1.
         12    1    4    4    0    0  0.57179281501E+02 -0.39074359465E+02 -0.45514446175E+03  0.46038327170E+03  0.00000000000E+00 0. -1.
         -5    1    5    5    0  501  0.38136060960E+02  0.46498807117E+02 -0.33114716541E+02  0.68812590857E+02  0.47000000000E+01 0.  1.
         13    1    6    6    0    0 -0.20555797678E+02 -0.19122825442E+02 -0.38961256960E+02  0.48022940507E+02  0.00000000000E+00 0. -1.
        -14    1    6    6    0    0 -0.94281164783E+02  0.81031871967E+02 -0.16521500777E+03  0.20676339401E+03  0.00000000000E+00 0.  1.
</event>
<event>
12    1  0.2576962E-002  0.2246559E+03  0.7818608E-02  0.1130459E+00
          2   -1    0    0  502    0  0.00000000000E+00  0.00000000000E+00  0.98940074142E+03  0.98940074142E+03  0.00000000000E+00 0. -1.
         -2   -1    0    0    0  501 -0.00000000000E+00 -0.00000000000E+00 -0.51043816529E+02  0.51043816529E+02  0.00000000000E+00 0.  1.
          6    2    1    2  502    0  0.14286226547E+03  0.26500339876E+02  0.45471673442E+03  0.50690205015E+03  0.17050068907E+03 0.  0.
         24    2    3    3    0    0  0.50881207370E+02 -0.34347254774E+02  0.13305683087E+03  0.16682833994E+03  0.79742984593E+02 0.  0.
         -6    2    1    2    0  501 -0.14286226547E+03 -0.26500339876E+02  0.48364019046E+03  0.53354250779E+03  0.17218559430E+03 0.  0.
        -24    2    5    5    0    0 -0.14261296227E+02 -0.18801962746E+02  0.27968409960E+03  0.29225916544E+03  0.81457509407E+02 0.  0.
          5    1    3    3  502    0  0.91981058095E+02  0.60847594650E+02  0.32165990355E+03  0.34007371021E+03  0.47000000000E+01 0. -1.
        -11    1    4    4    0    0  0.52480773315E+02  0.76373243505E+01  0.10065052030E+03  0.11376769105E+03  0.00000000000E+00 0.  1.
         12    1    4    4    0    0 -0.15995659448E+01 -0.41984579125E+02  0.32406310572E+02  0.53060648888E+02  0.00000000000E+00 0. -1.
         -5    1    5    5    0  501 -0.12860096924E+03 -0.76983771303E+01  0.20395609086E+03  0.24128334236E+03  0.47000000000E+01 0.  1.
         13    1    6    6    0    0  0.28530021786E+02 -0.26969245594E+02  0.16429176460E+03  0.16891739480E+03  0.00000000000E+00 0. -1.
        -14    1    6    6    0    0 -0.42791318013E+02  0.81672828487E+01  0.11539233501E+03  0.12334177064E+03  0.00000000000E+00 0.  1.
</event>
<event>
12    1  0.2576962E-002  0.3900124E+03  0.7818608E-02  0.1047294E+00
          2   -1    0    0  502    0  0.00000000000E+00  0.00000000000E+00  0.12394796481E+04  0.12394796481E+04  0.00000000000E+00 0.  1.
         -2   -1    0    0    0  501 -0.00000000000E+00 -0.00000000000E+00 -0.12278193892E+03  0.12278193892E+03  0.00000000000E+00 0. -1.
          6    2    1    2  502    0  0.35014104503E+03  0.68254368787E+00  0.57330418122E+03  0.69328399783E+03  0.17136452425E+03 0.  0.
         24    2    3    3    0    0  0.24736917435E+03 -0.21385453030E+02  0.50398155117E+03  0.56728093867E+03  0.78494671394E+02 0.  0.
         -6    2    1    2    0  501 -0.35014104503E+03 -0.68254368787E+00  0.54339352799E+03  0.66897758922E+03  0.17220705950E+03 0.  0.
        -24    2    5    5    0    0 -0.29480312580E+03  0.53977420220E+02  0.40716306428E+03  0.51203547823E+03  0.81093311572E+02 0.  0.
          5    1    3    3  502    0  0.10277187068E+03  0.22067996718E+02  0.69322630049E+02  0.12600305917E+03  0.47000000000E+01 0. -1.
        -11    1    4    4    0    0  0.20239555222E+03 -0.23563798061E+02  0.33234278521E+03  0.38983450208E+03  0.00000000000E+00 0.  1.
         12    1    4    4    0    0  0.44973622129E+02  0.21783450310E+01  0.17163876596E+03  0.17744643658E+03  0.00000000000E+00 0. -1.
         -5    1    5    5    0  501 -0.55337919232E+02 -0.54659963908E+02  0.13623046371E+03  0.15694211099E+03  0.47000000000E+01 0.  1.
         11    1    6    6    0    0 -0.10808419251E+03 -0.12243037283E+02  0.10849211915E+03  0.15363145690E+03  0.00000000000E+00 0. -1.
        -12    1    6    6    0    0 -0.18671893328E+03  0.66220457503E+02  0.29867094513E+03  0.35840402133E+03  0.00000000000E+00 0.  1.
</event>
<event>
12    1  0.2576962E-002  0.1820028E+03  0.7818608E-02  0.1165879E+00
         -2   -1    0    0    0  501 -0.00000000000E+00  0.00000000000E+00  0.21252897270E+02  0.21252897270E+02  0.00000000000E+00 0.  1.
          2   -1    0    0  502    0  0.00000000000E+00 -0.00000000000E+00 -0.22451225246E+04  0.22451225246E+04  0.00000000000E+00 0. -1.
          6    2    1    2  502    0 -0.28574154014E+02 -0.52275887487E+02 -0.17393104113E+04  0.17488254857E+04  0.17216452018E+03 0.  0.
         24    2    3    3    0    0 -0.18938524969E+02  0.31613741853E+02 -0.60124844048E+03  0.60762547930E+03  0.79692782074E+02 0.  0.
         -6    2    1    2    0  501  0.28574154014E+02  0.52275887487E+02 -0.48455921604E+03  0.51754993614E+03  0.17178781058E+03 0.  0.
        -24    2    5    5    0    0  0.20089409757E+01  0.87995097390E+02 -0.23064737405E+03  0.25972269553E+03  0.80687634793E+02 0.  0.
          5    1    3    3  502    0 -0.96356290448E+01 -0.83889629340E+02 -0.11380619708E+04  0.11412000064E+04  0.47000000000E+01 0. -1.
        -13    1    4    4    0    0 -0.40335879613E+01  0.38880761915E+02 -0.12240500594E+03  0.12849501530E+03  0.00000000000E+00 0.  1.
         14    1    4    4    0    0 -0.14904937008E+02 -0.72670200618E+01 -0.47884343454E+03  0.47913046400E+03  0.00000000000E+00 0. -1.
         -5    1    5    5    0  501  0.26565213038E+02 -0.35719209903E+02 -0.25391184199E+03  0.25782724061E+03  0.47000000000E+01 0.  1.
         13    1    6    6    0    0 -0.32521063202E+02  0.15304510682E+02 -0.46602583956E+02  0.58852769097E+02  0.00000000000E+00 0. -1.
        -14    1    6    6    0    0  0.34530004178E+02  0.72690586707E+02 -0.18404479009E+03  0.20086992643E+03  0.00000000000E+00 0.  1.
</event>
<event>
12    1  0.2576962E-002  0.2511026E+03  0.7818608E-02  0.1112610E+00
         -2   -1    0    0    0  501 -0.00000000000E+00  0.00000000000E+00  0.18466213295E+03  0.18466213295E+03  0.00000000000E+00 0. -1.
          2   -1    0    0  502    0  0.00000000000E+00 -0.00000000000E+00 -0.36241178579E+03  0.36241178579E+03  0.00000000000E+00 0.  1.
          6    2    1    2  502    0 -0.91602132299E+02 -0.15879092859E+03 -0.15463851566E+03  0.29483574402E+03  0.17149208665E+03 0.  0.
         24    2    3    3    0    0 -0.76602146871E+02 -0.26551105834E+02 -0.90292352201E+02  0.14693412457E+03  0.82849731269E+02 0.  0.
         -6    2    1    2    0  501  0.91602132299E+02  0.15879092859E+03 -0.23111137189E+02  0.25223817472E+03  0.17171040295E+03 0.  0.
        -24    2    5    5    0    0  0.79035896778E+02  0.80321255885E+02  0.47483532868E+02  0.14583752975E+03  0.79471517310E+02 0.  0.
          5    1    3    3  502    0 -0.14999985428E+02 -0.13223982275E+03 -0.64346163457E+02  0.14790161945E+03  0.47000000000E+01 0. -1.
        -13    1    4    4    0    0 -0.72897488541E+02 -0.18272312307E+01 -0.25110988076E+02  0.77122917033E+02  0.00000000000E+00 0.  1.
         14    1    4    4    0    0 -0.37046583299E+01 -0.24723874603E+02 -0.65181364125E+02  0.69811207538E+02  0.00000000000E+00 0. -1.
         -5    1    5    5    0  501  0.12566235521E+02  0.78469672702E+02 -0.70594670058E+02  0.10640064497E+03  0.47000000000E+01 0.  1.
         13    1    6    6    0    0 -0.14533610719E+02  0.21030570336E+02  0.17819164606E+02  0.31161408127E+02  0.00000000000E+00 0. -1.
        -14    1    6    6    0    0  0.93569507498E+02  0.59290685549E+02  0.29664368262E+02  0.11467612162E+03  0.00000000000E+00 0.  1.
</event>
<event>
12    1  0.2576962E-002  0.1974598E+03  0.7818608E-02  0.1151900E+00
         -2   -1    0    0    0  501 -0.00000000000E+00  0.00000000000E+00  0.13593276597E+04  0.13593276597E+04  0.00000000000E+00 0.  1.
          2   -1    0    0  502    0  0.00000000000E+00 -0.00000000000E+00 -0.35959730387E+02  0.35959730387E+02  0.00000000000E+00 0. -1.
          6    2    1    2  502    0  0.97891578800E+02  0.43536260106E+01  0.97484808677E+03  0.99459691108E+03  0.17115054190E+03 0.  0.
         24    2    3    3    0    0  0.99448218977E+02 -0.45609740635E+02  0.83577572303E+03  0.84673896070E+03  0.80471185277E+02 0.  0.
         -6    2    1    2    0  501 -0.97891578800E+02 -0.43536260106E+01  0.34851984254E+03  0.40069047900E+03  0.17171215466E+03 0.  0.
        -24    2    5    5    0    0 -0.23129506580E+02 -0.23778073856E+01  0.59287035232E+02  0.10190798600E+03  0.79559141657E+02 0.  0.
          5    1    3    3  502    0 -0.15566401767E+01  0.49963366645E+02  0.13907236374E+03  0.14785795038E+03  0.47000000000E+01 0. -1.
        -13    1    4    4    0    0 -0.13132945778E+02 -0.59539504015E+01  0.14617629280E+03  0.14688578000E+03  0.00000000000E+00 0.  1.
         14    1    4    4    0    0  0.11258116476E+03 -0.39655790233E+02  0.68959943024E+03  0.69985318070E+03  0.00000000000E+00 0. -1.
         -5    1    5    5    0  501 -0.74762072220E+02 -0.19758186250E+01  0.28923280731E+03  0.29878249300E+03  0.47000000000E+01 0.  1.
         11    1    6    6    0    0  0.19776944163E+02 -0.26606618704E+02  0.18647133950E+02  0.38036236457E+02  0.00000000000E+00 0. -1.
        -12    1    6    6    0    0 -0.42906450744E+02  0.24228811319E+02  0.40639901283E+02  0.63871749542E+02  0.00000000000E+00 0.  1.
</event>
<event>
12    1  0.2576962E-002  0.2233769E+03  0.7818608E-02  0.1131390E+00
          1   -1    0    0  502    0  0.00000000000E+00  0.00000000000E+00  0.11859976059E+04  0.11859976059E+04  0.00000000000E+00 0. -1.
         -1   -1    0    0    0  501 -0.00000000000E+00 -0.00000000000E+00 -0.50983524234E+02  0.50983524234E+02  0.00000000000E+00 0.  1.
          6    2    1    2  502    0  0.13333398248E+03  0.50491315621E+02  0.82606505383E+03  0.85573126627E+03  0.17194534909E+03 0.  0.
         24    2    3    3    0    0  0.72355163081E+00  0.47362547234E+00  0.25782677355E+03  0.27006572274E+03  0.80374757191E+02 0.  0.
         -6    2    1    2    0  501 -0.13333398248E+03 -0.50491315621E+02  0.30894902779E+03  0.38124986382E+03  0.17197276834E+03 0.  0.
        -24    2    5    5    0    0 -0.12607944776E+03 -0.38195565920E+02  0.32492093527E+03  0.35931802478E+03  0.78618702299E+02 0.  0.
          5    1    3    3  502    0  0.13261043085E+03  0.50017690149E+02  0.56823828028E+03  0.58566554353E+03  0.47000000000E+01 0. -1.
        -11    1    4    4    0    0 -0.95168420290E+01 -0.35643470963E+02  0.76979973634E+02  0.85363596721E+02  0.00000000000E+00 0.  1.
         12    1    4    4    0    0  0.10240393660E+02  0.36117096435E+02  0.18084679992E+03  0.18470212602E+03  0.00000000000E+00 0. -1.
         -5    1    5    5    0  501 -0.72545347209E+01 -0.12295749701E+02 -0.15971907484E+02  0.21931839034E+02  0.47000000000E+01 0.  1.
         11    1    6    6    0    0 -0.65633839220E+02  0.20661873755E+02  0.13607536640E+03  0.15248350475E+03  0.00000000000E+00 0. -1.
        -12    1    6    6    0    0 -0.60445608541E+02 -0.58857439675E+02  0.18884556887E+03  0.20683452004E+03  0.00000000000E+00 0.  1.
</event>
<event>
12    1  0.2576962E-002  0.1814546E+03  0.7818608E-02  0.1166403E+00
         -1   -1    0    0    0  501 -0.00000000000E+00  0.00000000000E+00  0.40996799464E+02  0.40996799464E+02  0.00000000000E+00 0. -1.
          1   -1    0    0  502    0  0.00000000000E+00 -0.00000000000E+00 -0.85462253770E+03  0.85462253770E+03  0.00000000000E+00 0.  1.
          6    2    1    2  502    0  0.12376006624E+02 -0.51640790873E+02 -0.51576267787E+03  0.54659959081E+03  0.17303189293E+03 0.  0.
         24    2    3    3    0    0  0.40599720714E+02  0.68579248637E+01 -0.42861728977E+03  0.43781040731E+03  0.79182088911E+02 0.  0.
         -6    2    1    2    0  501 -0.12376006624E+02  0.51640790873E+02 -0.29786306037E+03  0.34901974636E+03  0.17398978071E+03 0.  0.
        -24    2    5    5    0    0 -0.36805611101E+02  0.53094823522E+02 -0.30572488208E+03  0.32288895941E+03  0.81337957246E+02 0.  0.
          5    1    3    3  502    0 -0.28223714091E+02 -0.58498715737E+02 -0.87145388098E+02  0.10878918350E+03  0.47000000000E+01 0. -1.
        -11    1    4    4    0    0 -0.14753781321E+02  0.15310726213E+02 -0.24306457605E+03  0.24399278787E+03  0.00000000000E+00 0.  1.
         12    1    4    4    0    0  0.55353502035E+02 -0.84528013496E+01 -0.18555271372E+03  0.19381761944E+03  0.00000000000E+00 0. -1.
         -5    1    5    5    0  501  0.24429604478E+02 -0.14540326494E+01  0.78618217129E+01  0.26130786948E+02  0.47000000000E+01 0.  1.
         11    1    6    6    0    0 -0.31938810977E+02 -0.57579008040E+01 -0.19222553731E+03  0.19494588547E+03  0.00000000000E+00 0. -1.
        -12    1    6    6    0    0 -0.48668001245E+01  0.58852724326E+02 -0.11349934477E+03  0.12794307393E+03  0.00000000000E+00 0.  1.
</event>
<event>
12    1  0.2576962E-002  0.1752793E+03  0.7818608E-02  0.1172452E+00
          1   -1    0    0  502    0  0.00000000000E+00  0.00000000000E+00  0.12875834846E+04  0.12875834846E+04  0.00000000000E+00 0.  1.
         -1   -1    0    0    0  501 -0.00000000000E+00 -0.00000000000E+00 -0.31310450064E+02  0.31310450064E+02  0.00000000000E+00 0. -1.
          6    2    1    2  502    0 -0.33191613104E+00 -0.15491466414E+02  0.95682969200E+03  0.97323191601E+03  0.17724899755E+03 0.  0.
         24    2    3    3    0    0 -0.50647513616E+02  0.20120027766E+02  0.33374385875E+03  0.34708665852E+03  0.78193344464E+02 0.  0.
         -6    2    1    2    0  501  0.33191613104E+00  0.15491466414E+02  0.29944334252E+03  0.34566201864E+03  0.17197621944E+03 0.  0.
        -24    2    5    5    0    0  0.35499853018E+02  0.66203616320E+02  0.19762309613E+03  0.22650683199E+03  0.81285290389E+02 0.  0.
          5    1    3    3  502    0  0.50315597485E+02 -0.35611494180E+02  0.62308583325E+03  0.62614525748E+03  0.47000000000E+01 0. -1.
        -13    1    4    4    0    0 -0.40559815657E+02 -0.25842694650E+02  0.15859439737E+03  0.16572605827E+03  0.00000000000E+00 0.  1.
         14    1    4    4    0    0 -0.10087697959E+02  0.45962722416E+02  0.17514946139E+03  0.18136060026E+03  0.00000000000E+00 0. -1.
         -5    1    5    5    0  501 -0.35167936887E+02 -0.50712149906E+02  0.10182024639E+03  0.11915518666E+03  0.47000000000E+01 0.  1.
         11    1    6    6    0    0 -0.13912994393E+02  0.58982646447E+02  0.11404263361E+03  0.12914428471E+03  0.00000000000E+00 0. -1.
        -12    1    6    6    0    0  0.49412847410E+02  0.72209698736E+01  0.83580462528E+02  0.97362547274E+02  0.00000000000E+00 0.  1.
</event>
<event>
12    1  0.2576962E-002  0.2509674E+03  0.7818608E-02  0.1112695E+00
          1   -1    0    0  502    0  0.00000000000E+00  0.00000000000E+00  0.12877289274E+04  0.12877289274E+04  0.00000000000E+00 0.  1.
         -1   -1    0    0    0  501 -0.00000000000E+00 -0.00000000000E+00 -0.55991710548E+02  0.55991710548E+02  0.00000000000E+00 0. -1.
          6    2    1    2  502    0  0.18179274851E+03 -0.84589391442E+01  0.37613492731E+03  0.45196252030E+03  0.17225701480E+03 0.  0.
         24    2    3    3    0    0  0.76418161971E+02 -0.59120916577E+02  0.18376851406E+03  0.22680176352E+03  0.91286115697E+02 0.  0.
         -6    2    1    2    0  501 -0.18179274851E+03  0.84589391442E+01  0.85560228951E+03  0.89175811762E+03  0.17336985168E+03 0.  0.
        -24    2    5    5    0    0 -0.19368299953E+03  0.19753575354E+02  0.60993759810E+03  0.64550179287E+03  0.82130280489E+02 0.  0.
          5    1    3    3  502    0  0.10537458654E+03  0.50661977433E+02  0.19236641326E+03  0.22516075678E+03  0.47000000000E+01 0. -1.
        -13    1    4    4    0    0  0.67923249983E+02  0.11190578335E+01  0.68550724639E+02  0.96509181052E+02  0.00000000000E+00 0.  1.
         14    1    4    4    0    0  0.84949119871E+01 -0.60239974410E+02  0.11521778942E+03  0.13029258247E+03  0.00000000000E+00 0. -1.
         -5    1    5    5    0  501  0.11890251027E+02 -0.11294636210E+02  0.24566469141E+03  0.24625632475E+03  0.47000000000E+01 0.  1.
         11    1    6    6    0    0 -0.85509640596E+02  0.29748285632E+02  0.38773963824E+03  0.39816941896E+03  0.00000000000E+00 0. -1.
        -12    1    6    6    0    0 -0.10817335894E+03 -0.99947102779E+01  0.22219795987E+03  0.24733237392E+03  0.00000000000E+00 0.  1.
</event>
<event>
12    1  0.2576962E-002  0.2560532E+03  0.7818608E-02  0.1109538E+00
         -2   -1    0    0    0  501 -0.00000000000E+00  0.00000000000E+00  0.99296642376E+02  0.99296642376E+02  0.00000000000E+00 0. -1.
          2   -1    0    0  502    0  0.00000000000E+00 -0.00000000000E+00 -0.93571691610E+03  0.93571691610E+03  0.00000000000E+00 0.  1.
          6    2    1    2  502    0  0.16926210644E+03  0.84342636553E+02 -0.13605415701E+03  0.28889225148E+03  0.17083517879E+03 0.  0.
         24    2    3    3    0    0  0.13874800402E+03  0.68557039641E+02 -0.16770215135E+03  0.24194567481E+03  0.80390432806E+02 0.  0.
         -6    2    1    2    0  501 -0.16926210644E+03 -0.84342636553E+02 -0.70036611672E+03  0.74612130700E+03  0.17441607233E+03 0.  0.
        -24    2    5    5    0    0 -0.11309760615E+03 -0.27975553871E+01 -0.26819226587E+03  0.30272489438E+03  0.83164748401E+02 0.  0.
          5    1    3    3  502    0  0.30514102415E+02  0.15785596912E+02  0.31647994340E+02  0.46946576678E+02  0.47000000000E+01 0. -1.
        -13    1    4    4    0    0  0.12755310387E+03  0.25731533492E+02 -0.12411996278E+03  0.17982678133E+03  0.00000000000E+00 0.  1.
         14    1    4    4    0    0  0.11194900149E+02  0.42825506149E+02 -0.43582188570E+02  0.62118893477E+02  0.00000000000E+00 0. -1.
         -5    1    5    5    0  501 -0.56164500290E+02 -0.81545081166E+02 -0.43217385085E+03  0.44339641261E+03  0.47000000000E+01 0.  1.
         11    1    6    6    0    0 -0.20190469977E+02 -0.28244767663E+02 -0.30345148549E+02  0.46111278649E+02  0.00000000000E+00 0. -1.
        -12    1    6    6    0    0 -0.92907136171E+02  0.25447212276E+02 -0.23784711732E+03  0.25661361574E+03  0.00000000000E+00 0.  1.
</event>
<event>
12    1  0.2576962E-002  0.2592638E+03  0.7818608E-02  0.1107586E+00
          2   -1    0    0  502    0  0.00000000000E+00  0.00000000000E+00  0.14992656403E+04  0.14992656403E+04  0.00000000000E+00 0.  1.
         -2   -1    0    0    0  501 -0.00000000000E+00 -0.00000000000E+00 -0.45815117201E+02  0.45815117201E+02  0.00000000000E+00 0. -1.
          6    2    1    2  502    0  0.14162476145E+03 -0.11816871836E+03  0.85672314806E+03  0.89712733972E+03  0.19194137701E+03 0.  0.
         24    2    3    3    0    0  0.11310240408E+03 -0.12297613502E+03  0.84586852050E+03  0.86587755470E+03  0.79593355078E+02 0.  0.
         -6    2    1    2    0  501 -0.14162476145E+03  0.11816871836E+03  0.59672737502E+03  0.64795341775E+03  0.17244898500E+03 0.  0.
        -24    2    5    5    0    0 -0.15854236331E+03  0.13053345223E+03  0.46529927089E+03  0.51478236815E+03  0.79516111317E+02 0.  0.
          5    1    3    3  502    0  0.28522357365E+02  0.48074166559E+01  0.10854627559E+02  0.31249785023E+02  0.47000000000E+01 0. -1.
        -13    1    4    4    0    0  0.52846493836E+02 -0.56182456999E+01  0.24443219146E+03  0.25014278486E+03  0.00000000000E+00 0.  1.
         14    1    4    4    0    0  0.60255910246E+02 -0.11735788932E+03  0.60143632904E+03  0.61573476985E+03  0.00000000000E+00 0. -1.
         -5    1    5    5    0  501  0.16917601865E+02 -0.12364733864E+02  0.13142810413E+03  0.13317104960E+03  0.47000000000E+01 0.  1.
         13    1    6    6    0    0 -0.12537461064E+03  0.57662874462E+02  0.25857368243E+03  0.29309409637E+03  0.00000000000E+00 0. -1.
        -14    1    6    6    0    0 -0.33167752670E+02  0.72870577764E+02  0.20672558846E+03  0.22168827178E+03  0.00000000000E+00 0.  1.
</event>
<event>
12    1  0.2576962E-002  0.2092152E+03  0.7818608E-02  0.1142189E+00
         -2   -1    0    0    0  501 -0.00000000000E+00  0.00000000000E+00  0.15453400323E+02  0.15453400323E+02  0.00000000000E+00 0. -1.
          2   -1    0    0  502    0  0.00000000000E+00 -0.00000000000E+00 -0.29798161230E+04  0.29798161230E+04  0.00000000000E+00 0.  1.
          6    2    1    2  502    0  0.73430064203E+02  0.95650497805E+02 -0.18160063606E+04  0.18280313162E+04  0.17110931952E+03 0.  0.
         24    2    3    3    0    0  0.78447572524E+02 -0.25942586586E+01 -0.88668026372E+03  0.89350133172E+03  0.77343311923E+02 0.  0.
         -6    2    1    2    0  501 -0.73430064203E+02 -0.95650497805E+02 -0.11483563621E+04  0.11672382071E+04  0.17082653709E+03 0.  0.
        -24    2    5    5    0    0 -0.92124169937E+02 -0.12021823822E+03 -0.10554514358E+04  0.10692256631E+04  0.79539284695E+02 0.  0.
          5    1    3    3  502    0 -0.50175083211E+01  0.98244756463E+02 -0.92932609691E+03  0.93452998452E+03  0.47000000000E+01 0. -1.
        -11    1    4    4    0    0  0.55456279358E+02 -0.20701196002E+02 -0.79638596229E+03  0.79858283188E+03  0.00000000000E+00 0.  1.
         12    1    4    4    0    0  0.22991293166E+02  0.18106937344E+02 -0.90294301430E+02  0.94918499842E+02  0.00000000000E+00 0. -1.
         -5    1    5    5    0  501  0.18694105734E+02  0.24567740419E+02 -0.92904926268E+02  0.98012544010E+02  0.47000000000E+01 0.  1.
         13    1    6    6    0    0 -0.22502510793E+01 -0.46609850673E+02 -0.17387343604E+03  0.18002642464E+03  0.00000000000E+00 0. -1.
        -14    1    6    6    0    0 -0.89873918858E+02 -0.73608387551E+02 -0.88157799979E+03  0.88919923849E+03  0.00000000000E+00 0.  1.
</event>
<event>
12    1  0.2576962E-002  0.1779920E+03  0.7818608E-02  0.1169761E+00
         -1   -1    0    0    0  501 -0.00000000000E+00  0.00000000000E+00  0.33819703923E+02  0.33819703923E+02  0.00000000000E+00 0. -1.
          1   -1    0    0  502    0  0.00000000000E+00 -0.00000000000E+00 -0.11680829648E+04  0.11680829648E+04  0.00000000000E+00 0.  1.
          6    2    1    2  502    0 -0.28748185470E+02  0.38670796420E+02 -0.29931955831E+03  0.34816624646E+03  0.17118892640E+03 0.  0.
         24    2    3    3    0    0  0.46927569304E+02  0.82279532185E+01 -0.12746124209E+03  0.15787447728E+03  0.80050523838E+02 0.  0.
         -6    2    1    2    0  501  0.28748185470E+02 -0.38670796420E+02 -0.83494370253E+03  0.85373642222E+03  0.17150219701E+03 0.  0.
        -24    2    5    5    0    0 -0.58744737563E+01 -0.14988447453E+02 -0.17998531293E+03  0.19741930048E+03  0.79501599571E+02 0.  0.
          5    1    3    3  502    0 -0.75675754774E+02  0.30442843201E+02 -0.17185831622E+03  0.19029176918E+03  0.47000000000E+01 0. -1.
        -13    1    4    4    0    0 -0.15635416387E+02 -0.14733528993E+02 -0.56880156646E+02  0.60802099818E+02  0.00000000000E+00 0.  1.
         14    1    4    4    0    0  0.62562985691E+02  0.22961482211E+02 -0.70581085442E+02  0.97072377462E+02  0.00000000000E+00 0. -1.
         -5    1    5    5    0  501  0.34622659226E+02 -0.23682348967E+02 -0.65495838960E+03  0.65631712174E+03  0.47000000000E+01 0.  1.
         13    1    6    6    0    0  0.16070698160E+02  0.18299143212E+02 -0.17182531182E+02  0.29805458551E+02  0.00000000000E+00 0. -1.
        -14    1    6    6    0    0 -0.21945171916E+02 -0.33287590666E+02 -0.16280278175E+03  0.16761384193E+03  0.00000000000E+00 0.  1.
</event>
<event>
12    1  0.2576962E-002  0.2587840E+03  0.7818608E-02  0.1107876E+00
         -1   -1    0    0    0  501 -0.00000000000E+00  0.00000000000E+00  0.19955468598E+03  0.19955468598E+03  0.00000000000E+00 0.  1.
          1   -1    0    0  502    0  0.00000000000E+00 -0.00000000000E+00 -0.33570754333E+03  0.33570754333E+03  0.00000000000E+00 0. -1.
          6    2    1    2  502    0  0.11767604780E+03 -0.15344082320E+03 -0.72877817711E+02  0.26841639784E+03  0.17130221208E+03 0.  0.
         24    2    3    3    0    0  0.31188205245E+02 -0.14793586572E+03 -0.55787805708E+02  0.17995957234E+03  0.80096466204E+02 0.  0.
         -6    2    1    2    0  501 -0.11767604780E+03  0.15344082320E+03 -0.63275039640E+02  0.26684583147E+03  0.17265928496E+03 0.  0.
        -24    2    5    5    0    0 -0.25885362864E+02  0.22537436711E+01 -0.13845066170E+02  0.83138250969E+02  0.77750572640E+02 0.  0.
          5    1    3    3  502    0  0.86487842553E+02 -0.55049574745E+01 -0.17090012003E+02  0.88456825494E+02  0.47000000000E+01 0. -1.
        -11    1    4    4    0    0  0.48089815528E+01 -0.14948779587E+02  0.19375818897E+02  0.24940221985E+02  0.00000000000E+00 0.  1.
         12    1    4    4    0    0  0.26379223692E+02 -0.13298708613E+03 -0.75163624605E+02  0.15501935036E+03  0.00000000000E+00 0. -1.
         -5    1    5    5    0  501 -0.91790684934E+02  0.15118707953E+03 -0.49429973470E+02  0.18370758050E+03  0.47000000000E+01 0.  1.
         13    1    6    6    0    0 -0.24056479090E+02  0.27439905215E+02 -0.34723511022E+02  0.50372460751E+02  0.00000000000E+00 0. -1.
        -14    1    6    6    0    0 -0.18288837746E+01 -0.25186161544E+02  0.20878444852E+02  0.32765790218E+02  0.00000000000E+00 0.  1.
</event>
<event>
12    1  0.2576962E-002  0.1756976E+03  0.7818608E-02  0.1172033E+00
          2   -1    0    0  502    0  0.00000000000E+00  0.00000000000E+00  0.74789390749E+03  0.74789390749E+03  0.00000000000E+00 0. -1.
         -2   -1    0    0    0  501 -0.00000000000E+00 -0.00000000000E+00 -0.43091501175E+02  0.43091501175E+02  0.00000000000E+00 0.  1.
          6    2    1    2  502    0 -0.25747615222E+02  0.25005940818E+02  0.43354806084E+03  0.46778791710E+03  0.17196911805E+03 0.  0.
         24    2    3    3    0    0  0.27957644799E+02  0.53616110510E+02  0.35436804547E+03  0.36781611308E+03  0.77818148193E+02 0.  0.
         -6    2    1    2    0  501  0.25747615222E+02 -0.25005940818E+02  0.27125434547E+03  0.32319749156E+03  0.17201587673E+03 0.  0.
        -24    2    5    5    0    0  0.42103304875E+01  0.40795502477E+02  0.22063201547E+03  0.23729990796E+03  0.77141170348E+02 0.  0.
          5    1    3    3  502    0 -0.53705260021E+02 -0.28610169692E+02  0.79180015375E+02  0.99971804018E+02  0.47000000000E+01 0. -1.
        -13    1    4    4    0    0  0.18682666074E+02 -0.18183612619E+02  0.10059612607E+03  0.10391951867E+03  0.00000000000E+00 0.  1.
         14    1    4    4    0    0  0.92749787252E+01  0.71799723128E+02  0.25377191940E+03  0.26389659442E+03  0.00000000000E+00 0. -1.
         -5    1    5    5    0  501  0.21537284734E+02 -0.65801443294E+02  0.50622329998E+02  0.85897583597E+02  0.47000000000E+01 0.  1.
         13    1    6    6    0    0  0.29500579644E+02  0.38355218329E+02  0.73552152430E+02  0.88041615725E+02  0.00000000000E+00 0. -1.
        -14    1    6    6    0    0 -0.25290249157E+02  0.24402841476E+01  0.14707986304E+03  0.14925829224E+03  0.00000000000E+00 0.  1.
</event>
<event>
12    1  0.2576962E-002  0.2074390E+03  0.7818608E-02  0.1143610E+00
          2   -1    0    0  502    0  0.00000000000E+00  0.00000000000E+00  0.11301825798E+04  0.11301825798E+04  0.00000000000E+00 0. -1.
         -2   -1    0    0    0  501 -0.00000000000E+00 -0.00000000000E+00 -0.38458945613E+02  0.38458945613E+02  0.00000000000E+00 0.  1.
          6    2    1    2  502    0  0.46937359356E+02  0.10597909324E+03  0.60187983366E+03  0.63632990377E+03  0.17094364091E+03 0.  0.
         24    2    3    3    0    0  0.15912759257E+02  0.37605855186E+02  0.12698283073E+03  0.15551114490E+03  0.79947861994E+02 0.  0.
         -6    2    1    2    0  501 -0.46937359356E+02 -0.10597909324E+03  0.48984380052E+03  0.53231162163E+03  0.17313009474E+03 0.  0.
        -24    2    5    5    0    0 -0.61021594264E+02 -0.44067484263E+02  0.13419486258E+03  0.17100888145E+03  0.74633760844E+02 0.  0.
          5    1    3    3  502    0  0.31024600100E+02  0.68373238052E+02  0.47489700293E+03  0.48081875887E+03  0.47000000000E+01 0. -1.
        -11    1    4    4    0    0  0.83333535643E+01  0.54730046389E+02  0.12496181149E+03  0.13667581019E+03  0.00000000000E+00 0.  1.
         12    1    4    4    0    0  0.75794056925E+01 -0.17124191203E+02  0.20210192375E+01  0.18835334714E+02  0.00000000000E+00 0. -1.
         -5    1    5    5    0  501  0.14084234907E+02 -0.61911608975E+02  0.35564893794E+03  0.36130274018E+03  0.47000000000E+01 0.  1.
         11    1    6    6    0    0 -0.78539437973E+01 -0.39357919379E+01  0.91426853007E+02  0.91847941414E+02  0.00000000000E+00 0. -1.
        -12    1    6    6    0    0 -0.53167650466E+02 -0.40131692325E+02  0.42768009569E+02  0.79160940036E+02  0.00000000000E+00 0.  1.
</event>
<event>
12    1  0.2576962E-002  0.1860250E+03  0.7818608E-02  0.1162096E+00
         -2   -1    0    0    0  501 -0.00000000000E+00  0.00000000000E+00  0.13672838493E+03  0.13672838493E+03  0.00000000000E+00 0.  1.
          2   -1    0    0  502    0  0.00000000000E+00 -0.00000000000E+00 -0.25318133992E+03  0.25318133992E+03  0.00000000000E+00 0. -1.
          6    2    1    2  502    0 -0.44330262918E+02 -0.41474022765E+02 -0.56115734070E+02  0.19120318400E+03  0.17240770049E+03 0.  0.
         24    2    3    3    0    0 -0.38884910040E+02 -0.94328480109E+02 -0.42887713522E+02  0.13624578180E+03  0.79458534467E+02 0.  0.
         -6    2    1    2    0  501  0.44330262918E+02  0.41474022765E+02 -0.60337220926E+02  0.19870654085E+03  0.17932775126E+03 0.  0.
        -24    2    5    5    0    0  0.19790075430E+02 -0.46492778090E+02 -0.11799932512E+02  0.95177138158E+02  0.79788618992E+02 0.  0.
          5    1    3    3  502    0 -0.54453528784E+01  0.52854457344E+02 -0.13228020548E+02  0.54957402201E+02  0.47000000000E+01 0. -1.
        -13    1    4    4    0    0 -0.29375000048E+02 -0.97333706714E+01  0.13890514433E+02  0.33920134488E+02  0.00000000000E+00 0.  1.
         14    1    4    4    0    0 -0.95099099915E+01 -0.84595109438E+02 -0.56778227955E+02  0.10232564732E+03  0.00000000000E+00 0. -1.
         -5    1    5    5    0  501  0.24540187488E+02  0.87966800855E+02 -0.48537288414E+02  0.10352940269E+03  0.47000000000E+01 0.  1.
         13    1    6    6    0    0  0.10860194886E+02 -0.25187506061E+02 -0.46206672654E+02  0.53734634011E+02  0.00000000000E+00 0. -1.
        -14    1    6    6    0    0  0.89298805446E+01 -0.21305272029E+02  0.34406740143E+02  0.41442504148E+02  0.00000000000E+00 0.  1.
</event>
<event>
12    1  0.2576962E-002  0.1778894E+03  0.7818608E-02  0.1169861E+00
          2   -1    0    0  502    0  0.00000000000E+00  0.00000000000E+00  0.14327088475E+04  0.14327088475E+04  0.00000000000E+00 0.  1.
         -2   -1    0    0    0  501 -0.00000000000E+00 -0.00000000000E+00 -0.24962656229E+02  0.24962656229E+02  0.00000000000E+00 0. -1.
          6    2    1    2  502    0 -0.38985300559E+02  0.22676905387E+02  0.45755927836E+03  0.49103098872E+03  0.17238573890E+03 0.  0.
         24    2    3    3    0    0  0.26163971780E+02  0.21646216318E+02  0.37837426731E+03  0.38837697769E+03  0.80724708347E+02 0.  0.
         -6    2    1    2    0  501  0.38985300559E+02 -0.22676905387E+02  0.95018691287E+03  0.96664051497E+03  0.17176908943E+03 0.  0.
        -24    2    5    5    0    0  0.60594829918E+02 -0.21003981973E+00  0.31282577833E+03  0.32850021877E+03  0.79878962273E+02 0.  0.
          5    1    3    3  502    0 -0.65149272339E+02  0.10306890690E+01  0.79185011053E+02  0.10265401104E+03  0.47000000000E+01 0. -1.
        -11    1    4    4    0    0 -0.88182523003E+01 -0.26420731952E+02  0.10683895366E+03  0.11041004787E+03  0.00000000000E+00 0.  1.
         12    1    4    4    0    0  0.34982224080E+02  0.48066948270E+02  0.27153531365E+03  0.27796692982E+03  0.00000000000E+00 0. -1.
         -5    1    5    5    0  501 -0.21609529359E+02 -0.22466865568E+02  0.63736113454E+03  0.63814029619E+03  0.47000000000E+01 0.  1.
         11    1    6    6    0    0  0.78521668212E+02 -0.17869978686E+01  0.28270775444E+03  0.29341526913E+03  0.00000000000E+00 0. -1.
        -12    1    6    6    0    0 -0.17926838294E+02  0.15769580489E+01  0.30118023898E+02  0.35084949642E+02  0.00000000000E+00 0.  1.
</event>
<event>
12    1  0.2576962E-002  0.2288492E+03  0.7818608E-02  0.1127452E+00
         -2   -1    0    0    0  501 -0.00000000000E+00  0.00000000000E+00  0.30387529467E+02  0.30387529467E+02  0.00000000000E+00 0. -1.
          2   -1    0    0  502    0  0.00000000000E+00 -0.00000000000E+00 -0.17448975742E+04  0.17448975742E+04  0.00000000000E+00 0.  1.
          6    2    1    2  502    0  0.11123329177E+03  0.10077889307E+03 -0.75467839496E+03  0.78827694721E+03  0.17120699517E+03 0.  0.
         24    2    3    3    0    0  0.70234070742E+01  0.94147030997E+02 -0.50079513572E+03  0.51371824496E+03  0.64789470933E+02 0.  0.
         -6    2    1    2    0  501 -0.11123329177E+03 -0.10077889307E+03 -0.95983164979E+03  0.98700815647E+03  0.17429593949E+03 0.  0.
        -24    2    5    5    0    0 -0.60239768264E+02 -0.13361798758E+03 -0.75289897019E+03  0.77131863551E+03  0.81197179062E+02 0.  0.
          5    1    3    3  502    0  0.10420988469E+03  0.66318620717E+01 -0.25388325923E+03  0.27455870225E+03  0.47000000000E+01 0. -1.
        -11    1    4    4    0    0 -0.20344255248E+02  0.68830931586E+02 -0.24760363781E+03  0.25779671705E+03  0.00000000000E+00 0.  1.
         12    1    4    4    0    0  0.27367662323E+02  0.25316099411E+02 -0.25319149791E+03  0.25592152791E+03  0.00000000000E+00 0. -1.
         -5    1    5    5    0  501 -0.50993523502E+02  0.32839094510E+02 -0.20693267960E+03  0.21568952096E+03  0.47000000000E+01 0.  1.
         11    1    6    6    0    0  0.15849459288E+02 -0.40889143614E+02 -0.28162921111E+03  0.28502305166E+03  0.00000000000E+00 0. -1.
        -12    1    6    6    0    0 -0.76089227552E+02 -0.92728843964E+02 -0.47126975907E+03  0.48629558385E+03  0.00000000000E+00 0.  1.
</event>
<event>
12    1  0.2576962E-002  0.2059891E+03  0.7818608E-02  0.1144782E+00
          2   -1    0    0  502    0  0.00000000000E+00  0.00000000000E+00  0.87940981999E+03  0.87940981999E+03  0.00000000000E+00 0. -1.
         -2   -1    0    0    0  501 -0.00000000000E+00 -0.00000000000E+00 -0.55508546517E+02  0.55508546517E+02  0.00000000000E+00 0.  1.
          6    2    1    2  502    0  0.86444625848E+02  0.72344932906E+02  0.24401079579E+03  0.31973872213E+03  0.17316211858E+03 0.  0.
         24    2    3    3    0    0  0.10999571176E+03  0.10271666865E+02  0.12774563678E+03  0.18577073638E+03  0.77377354792E+02 0.  0.
         -6    2    1    2    0  501 -0.86444625848E+02 -0.72344932906E+02  0.57989047768E+03  0.61517964437E+03  0.17165828291E+03 0.  0.
        -24    2    5    5    0    0 -0.62258560983E+02 -0.10496852566E+03  0.53481745279E+03  0.55432792204E+03  0.79719618372E+02 0.  0.
          5    1    3    3  502    0 -0.23551085915E+02  0.62073266041E+02  0.11626515901E+03  0.13396798575E+03  0.47000000000E+01 0. -1.
        -13    1    4    4    0    0  0.91225341163E+01  0.27123820701E+02  0.48808811320E+02  0.56579345530E+02  0.00000000000E+00 0.  1.
         14    1    4    4    0    0  0.10087317765E+03 -0.16852153837E+02  0.78936825455E+02  0.12919139085E+03  0.00000000000E+00 0. -1.
         -5    1    5    5    0  501 -0.24186064865E+02  0.32623592752E+02  0.45073024891E+02  0.60851722330E+02  0.47000000000E+01 0.  1.
         11    1    6    6    0    0  0.19153842002E+02 -0.16194377471E+02  0.80774948633E+02  0.84579665711E+02  0.00000000000E+00 0. -1.
        -12    1    6    6    0    0 -0.81412402985E+02 -0.88774148187E+02  0.45404250416E+03  0.46974825633E+03  0.00000000000E+00 0.  1.
</event>
<event>
12    1  0.2576962E-002  0.2016723E+03  0.7818608E-02  0.1148336E+00
          2   -1    0    0  502    0  0.00000000000E+00  0.00000000000E+00  0.18275738693E+04  0.18275738693E+04  0.00000000000E+00 0.  1.
         -2   -1    0    0    0  501 -0.00000000000E+00 -0.00000000000E+00 -0.25238049798E+02  0.25238049798E+02  0.00000000000E+00 0. -1.
          6    2    1    2  502    0 -0.10441986942E+03  0.21369742201E+01  0.58718060425E+03  0.62122086313E+03  0.17385690376E+03 0.  0.
         24    2    3    3    0    0  0.54336317614E+01  0.19536643164E+02  0.34971651033E+03  0.35895796811E+03  0.78345264631E+02 0.  0.
         -6    2    1    2    0  501  0.10441986942E+03 -0.21369742201E+01  0.12151552152E+04  0.12315910560E+04  0.17119070128E+03 0.  0.
        -24    2    5    5    0    0  0.42843044021E+02  0.46032882532E+01  0.27917354750E+03  0.29355006063E+03  0.79856444896E+02 0.  0.
          5    1    3    3  502    0 -0.10985350119E+03 -0.17399668944E+02  0.23746409392E+03  0.26226289502E+03  0.47000000000E+01 0. -1.
        -13    1    4    4    0    0 -0.32275767902E+02  0.14873185685E+01  0.22763584061E+03  0.22991740526E+03  0.00000000000E+00 0.  1.
         14    1    4    4    0    0  0.37709399664E+02  0.18049324595E+02  0.12208066973E+03  0.12904056286E+03  0.00000000000E+00 0. -1.
         -5    1    5    5    0  501  0.61576825403E+02 -0.67402624733E+01  0.93598166774E+03  0.93804099532E+03  0.47000000000E+01 0.  1.
         13    1    6    6    0    0  0.22780353683E+02  0.30449435435E+02  0.23770670958E+03  0.24072929280E+03  0.00000000000E+00 0. -1.
        -14    1    6    6    0    0  0.20062690338E+02 -0.25846147182E+02  0.41466837922E+02  0.52820767838E+02  0.00000000000E+00 0.  1.
</event>
<event>
12    1  0.2576962E-002  0.1949691E+03  0.7818608E-02  0.1154054E+00
         -2   -1    0    0    0  501 -0.00000000000E+00  0.00000000000E+00  0.22787554210E+02  0.22787554210E+02  0.00000000000E+00 0. -1.
          2   -1    0    0  502    0  0.00000000000E+00 -0.00000000000E+00 -0.17273967256E+04  0.17273967256E+04  0.00000000000E+00 0.  1.
          6    2    1    2  502    0 -0.82598746602E+02 -0.40252726762E+02 -0.69209268719E+03  0.71914969975E+03  0.17245627863E+03 0.  0.
         24    2    3    3    0    0  0.20370004902E+01  0.23831717453E+02 -0.22289922593E+03  0.23807317802E+03  0.80141581232E+02 0.  0.
         -6    2    1    2    0  501  0.82598746602E+02  0.40252726762E+02 -0.10125164842E+04  0.10310345801E+04  0.17146381412E+03 0.  0.
        -24    2    5    5    0    0  0.81708070778E+02 -0.22504539726E+02 -0.43733674335E+03  0.45242150374E+03  0.78988143584E+02 0.  0.
          5    1    3    3  502    0 -0.84635747092E+02 -0.64084444214E+02 -0.46919346126E+03  0.48107652174E+03  0.47000000000E+01 0. -1.
        -13    1    4    4    0    0  0.37637040839E+02  0.28093301534E+02 -0.14254108434E+03  0.15007911633E+03  0.00000000000E+00 0.  1.
         14    1    4    4    0    0 -0.35600040349E+02 -0.42615840811E+01 -0.80358141590E+02  0.87994061683E+02  0.00000000000E+00 0. -1.
         -5    1    5    5    0  501  0.89067582420E+00  0.62757266488E+02 -0.57517974089E+03  0.57861307636E+03  0.47000000000E+01 0.  1.
         11    1    6    6    0    0  0.38088732908E+02  0.21173114828E+02 -0.94394862152E+02  0.10396846814E+03  0.00000000000E+00 0. -1.
        -12    1    6    6    0    0  0.43619337870E+02 -0.43677654554E+02 -0.34294188120E+03  0.34845303561E+03  0.00000000000E+00 0.  1.
</event>
<event>
12    1  0.2576962E-002  0.1932096E+03  0.7818608E-02  0.1155598E+00
         -2   -1    0    0    0  501 -0.00000000000E+00  0.00000000000E+00  0.47188365914E+02  0.47188365914E+02  0.00000000000E+00 0.  1.
          2   -1    0    0  502    0  0.00000000000E+00 -0.00000000000E+00 -0.13351857713E+04  0.13351857713E+04  0.00000000000E+00 0. -1.
          6    2    1    2  502    0  0.85081844943E+02 -0.21470774242E+02 -0.20381693331E+03  0.28120503752E+03  0.17272815733E+03 0.  0.
         24    2    3    3    0    0  0.34321857786E+02 -0.71411886028E+02 -0.81122394669E+02  0.13926585774E+03  0.80848554895E+02 0.  0.
         -6    2    1    2    0  501 -0.85081844943E+02  0.21470774242E+02 -0.10841804721E+04  0.11011690997E+04  0.17154059464E+03 0.  0.
        -24    2    5    5    0    0 -0.37898038408E+02 -0.42921429487E+02 -0.38788982634E+03  0.40030147964E+03  0.80648910726E+02 0.  0.
          5    1    3    3  502    0  0.50759987157E+02  0.49941111785E+02 -0.12269453864E+03  0.14193917977E+03  0.47000000000E+01 0. -1.
        -11    1    4    4    0    0  0.38498059042E+02  0.30065352324E+01 -0.25758113641E+02  0.46417886881E+02  0.00000000000E+00 0.  1.
         12    1    4    4    0    0 -0.41762012564E+01 -0.74418421260E+02 -0.55364281028E+02  0.92847970864E+02  0.00000000000E+00 0. -1.
         -5    1    5    5    0  501 -0.47183806535E+02  0.64392203729E+02 -0.69629064574E+03  0.70086762006E+03  0.47000000000E+01 0.  1.
         13    1    6    6    0    0 -0.31464355817E+02  0.72629410506E+01 -0.27119160767E+03  0.27310738560E+03  0.00000000000E+00 0. -1.
        -14    1    6    6    0    0 -0.64336825917E+01 -0.50184370538E+02 -0.11669821867E+03  0.12719409404E+03  0.00000000000E+00 0.  1.
</event>
<event>
12    1  0.2576962E-002  0.1988335E+03  0.7818608E-02  0.1150727E+00
         -2   -1    0    0    0  501 -0.00000000000E+00  0.00000000000E+00  0.17059948486E+03  0.17059948486E+03  0.00000000000E+00 0.  1.
          2   -1    0    0  502    0  0.00000000000E+00 -0.00000000000E+00 -0.49863264512E+03  0.49863264512E+03  0.00000000000E+00 0. -1.
          6    2    1    2  502    0 -0.31919318423E+02 -0.97044888646E+02  0.80877287056E+02  0.21444368183E+03  0.17031853632E+03 0.  0.
         24    2    3    3    0    0 -0.11846338333E+02 -0.12910520224E+03  0.88038156661E+02  0.17566022799E+03  0.79355590179E+02 0.  0.
         -6    2    1    2    0  501  0.31919318423E+02  0.97044888646E+02 -0.40891044731E+03  0.45478844816E+03  0.17084561849E+03 0.  0.
        -24    2    5    5    0    0  0.82594329722E+02  0.52124084976E+02 -0.28474671300E+03  0.31328029189E+03  0.86747375666E+02 0.  0.
          5    1    3    3  502    0 -0.20072980090E+02  0.32060313597E+02 -0.71608696049E+01  0.38783453832E+02  0.47000000000E+01 0. -1.
        -11    1    4    4    0    0  0.79792994587E+01 -0.92885290546E+02  0.95768040898E+02  0.13365202609E+03  0.00000000000E+00 0.  1.
         12    1    4    4    0    0 -0.19825637792E+02 -0.36219911697E+02 -0.77298842369E+01  0.42008201908E+02  0.00000000000E+00 0. -1.
         -5    1    5    5    0  501 -0.50675011299E+02  0.44920803669E+02 -0.12416373430E+03  0.14150815626E+03  0.47000000000E+01 0.  1.
         13    1    6    6    0    0  0.64268985024E+01  0.49760937563E+02 -0.76088864836E+02  0.91142587650E+02  0.00000000000E+00 0. -1.
        -14    1    6    6    0    0  0.76167431220E+02  0.23631474139E+01 -0.20865784817E+03  0.22213770424E+03  0.00000000000E+00 0.  1.
</event>
<event>
12    1  0.2576962E-002  0.2282100E+03  0.7818608E-02  0.1127906E+00
          1   -1    0    0  502    0  0.00000000000E+00  0.00000000000E+00  0.14180249668E+04  0.14180249668E+04  0.00000000000E+00 0. -1.
         -1   -1    0    0    0  501 -0.00000000000E+00 -0.00000000000E+00 -0.37524066697E+02  0.37524066697E+02  0.00000000000E+00 0.  1.
          6    2    1    2  502    0 -0.10027824420E+03 -0.11624406788E+03  0.58006978466E+03  0.62282898883E+03  0.16693287475E+03 0.  0.
         24    2    3    3    0    0 -0.58519451611E+02 -0.93744473652E+01  0.25452263210E+03  0.27762187550E+03  0.93700208264E+02 0.  0.
         -6    2    1    2    0  501  0.10027824420E+03  0.11624406788E+03  0.80043111545E+03  0.83272004467E+03  0.17077556219E+03 0.  0.
        -24    2    5    5    0    0 -0.71220710805E+01  0.34880969207E+02  0.41717405750E+03  0.42644077616E+03  0.80932906892E+02 0.  0.
          5    1    3    3  502    0 -0.41758792594E+02 -0.10686962052E+03  0.32554715257E+03  0.34520711333E+03  0.47000000000E+01 0. -1.
        -13    1    4    4    0    0 -0.58948553206E+02 -0.13003461086E+02  0.26223193260E+03  0.26909033502E+03  0.00000000000E+00 0.  1.
         14    1    4    4    0    0  0.42910159520E+00  0.36290137205E+01 -0.77093005045E+01  0.85315404841E+01  0.00000000000E+00 0. -1.
         -5    1    5    5    0  501  0.10740031528E+03  0.81363098676E+02  0.38325705795E+03  0.40627926851E+03  0.47000000000E+01 0.  1.
         13    1    6    6    0    0  0.13613104577E+01  0.58133172247E+02  0.35110308867E+03  0.35588579314E+03  0.00000000000E+00 0. -1.
        -14    1    6    6    0    0 -0.84833815382E+01 -0.23252203040E+02  0.66070968821E+02  0.70554983024E+02  0.00000000000E+00 0.  1.
</event>
<event>
12    1  0.2576962E-002  0.1997715E+03  0.7818608E-02  0.1149932E+00
         -2   -1    0    0    0  501 -0.00000000000E+00  0.00000000000E+00  0.20779641265E+03  0.20779641265E+03  0.00000000000E+00 0. -1.
          2   -1    0    0  502    0  0.00000000000E+00 -0.00000000000E+00 -0.20711571415E+03  0.20711571415E+03  0.00000000000E+00 0.  1.
          6    2    1    2  502    0  0.36139614316E+02  0.95472328584E+02  0.56278384718E+02  0.20720079267E+03  0.17130053896E+03 0.  0.
         24    2    3    3    0    0  0.85956782986E+02  0.55345087200E+02  0.80847806265E+01  0.12697199939E+03  0.74865731373E+02 0.  0.
         -6    2    1    2    0  501 -0.36139614316E+02 -0.95472328584E+02 -0.55597686222E+02  0.20771133413E+03  0.17213906694E+03 0.  0.
        -24    2    5    5    0    0 -0.25724587716E+02  0.94788689062E+01  0.68691154831E+01  0.85043416774E+02  0.80209691560E+02 0.  0.
          5    1    3    3  502    0 -0.49817168671E+02  0.40127241385E+02  0.48193604091E+02  0.80228793278E+02  0.47000000000E+01 0. -1.
        -13    1    4    4    0    0 -0.60148870728E+01  0.59542555866E+01 -0.17542813554E+02  0.19477739434E+02  0.00000000000E+00 0.  1.
         14    1    4    4    0    0  0.91971670059E+02  0.49390831613E+02  0.25627594180E+02  0.10749425996E+03  0.00000000000E+00 0. -1.
         -5    1    5    5    0  501 -0.10415026599E+02 -0.10495119749E+03 -0.62466801705E+02  0.12266791736E+03  0.47000000000E+01 0.  1.
         13    1    6    6    0    0  0.28112870652E+02 -0.29245551285E+00 -0.61941277170E+01  0.28788647844E+02  0.00000000000E+00 0. -1.
        -14    1    6    6    0    0 -0.53837458368E+02  0.97713244190E+01  0.13063243200E+02  0.56254768930E+02  0.00000000000E+00 0.  1.
</event>
<event>
12    1  0.2576962E-002  0.2240247E+03  0.7818608E-02  0.1130918E+00
          2   -1    0    0  502    0  0.00000000000E+00  0.00000000000E+00  0.71318061515E+03  0.71318061515E+03  0.00000000000E+00 0.  1.
         -2   -1    0    0    0  501 -0.00000000000E+00 -0.00000000000E+00 -0.82185170099E+02  0.82185170099E+02  0.00000000000E+00 0. -1.
          6    2    1    2  502    0  0.11159714456E+03  0.89864128240E+02  0.16499179828E+03  0.27840861647E+03  0.17250965192E+03 0.  0.
         24    2    3    3    0    0  0.58653550338E+02  0.41301094338E+02  0.17456761257E+03  0.20577819137E+03  0.82004837198E+02 0.  0.
         -6    2    1    2    0  501 -0.11159714456E+03 -0.89864128240E+02  0.46600364678E+03  0.51695716879E+03  0.17191809484E+03 0.  0.
        -24    2    5    5    0    0 -0.14344019701E+03 -0.87241332973E+02  0.43283363852E+03  0.47066247695E+03  0.77408450934E+02 0.  0.
          5    1    3    3  502    0  0.52943594220E+02  0.48563033902E+02 -0.95758142886E+01  0.72630425099E+02  0.47000000000E+01 0. -1.
        -11    1    4    4    0    0  0.78931240641E+02  0.28322754539E+02  0.12299255793E+03  0.14886063442E+03  0.00000000000E+00 0.  1.
         12    1    4    4    0    0 -0.20277690302E+02  0.12978339798E+02  0.51575054640E+02  0.56917556949E+02  0.00000000000E+00 0. -1.
         -5    1    5    5    0  501  0.31843052455E+02 -0.26227952671E+01  0.33170008258E+02  0.46294691839E+02  0.47000000000E+01 0.  1.
         11    1    6    6    0    0 -0.40376784160E+02 -0.22245296354E+02  0.46126680171E+02  0.65213560956E+02  0.00000000000E+00 0. -1.
        -12    1    6    6    0    0 -0.10306341285E+03 -0.64996036619E+02  0.38670695835E+03  0.40544891599E+03  0.00000000000E+00 0.  1.
</event>
<event>
12    1  0.2576962E-002  0.1944806E+03  0.7818608E-02  0.1154481E+00
          1   -1    0    0  502    0  0.00000000000E+00  0.00000000000E+00  0.16065220874E+04  0.16065220874E+04  0.00000000000E+00 0.  1.
         -1   -1    0    0    0  501 -0.00000000000E+00 -0.00000000000E+00 -0.23673028948E+02  0.23673028948E+02  0.00000000000E+00 0. -1.
          6    2    1    2  502    0 -0.84096644921E+02  0.23407521920E+02  0.85914528428E+03  0.88131861382E+03  0.17598784560E+03 0.  0.
         24    2    3    3    0    0 -0.24038885884E+02  0.24569763170E+02  0.18233497878E+03  0.20183162729E+03  0.79425562599E+02 0.  0.
         -6    2    1    2    0  501  0.84096644921E+02 -0.23407521920E+02  0.72370377418E+03  0.74887650253E+03  0.17160625139E+03 0.  0.
        -24    2    5    5    0    0  0.42964738424E+02 -0.41004841971E+02  0.20528470575E+03  0.22850940142E+03  0.80915822382E+02 0.  0.
          5    1    3    3  502    0 -0.60057759037E+02 -0.11622412496E+01  0.67681030551E+03  0.67948698653E+03  0.47000000000E+01 0. -1.
        -13    1    4    4    0    0 -0.15792530031E+02  0.52073370832E+02  0.90368263013E+02  0.10548679024E+03  0.00000000000E+00 0.  1.
         14    1    4    4    0    0 -0.82463558527E+01 -0.27503607662E+02  0.91966715763E+02  0.96344837056E+02  0.00000000000E+00 0. -1.
         -5    1    5    5    0  501  0.41131906496E+02  0.17597320050E+02  0.51841906843E+03  0.52036710111E+03  0.47000000000E+01 0.  1.
         11    1    6    6    0    0 -0.12085961171E+02 -0.35791335794E+01 -0.10118471101E+00  0.12605193094E+02  0.00000000000E+00 0. -1.
        -12    1    6    6    0    0  0.55050699595E+02 -0.37425708391E+02  0.20538589046E+03  0.21590420833E+03  0.00000000000E+00 0.  1.
</event>
<event>
12    1  0.2576962E-002  0.2001512E+03  0.7818608E-02  0.1149611E+00
          1   -1    0    0  502    0  0.00000000000E+00  0.00000000000E+00  0.73321528232E+03  0.73321528232E+03  0.00000000000E+00 0.  1.
         -1   -1    0    0    0  501 -0.00000000000E+00 -0.00000000000E+00 -0.58438064477E+02  0.58438064477E+02  0.00000000000E+00 0. -1.
          6    2    1    2  502    0 -0.53476347957E+02  0.86771856938E+02  0.23621151095E+03  0.30951518667E+03  0.17208921502E+03 0.  0.
         24    2    3    3    0    0  0.33098014165E+02  0.60964002099E+02  0.16000160474E+03  0.19123076102E+03  0.78464019427E+02 0.  0.
         -6    2    1    2    0  501  0.53476347957E+02 -0.86771856938E+02  0.43856570690E+03  0.48213816013E+03  0.17241882508E+03 0.  0.
        -24    2    5    5    0    0  0.27406135638E+02 -0.85815419653E+02  0.43844585622E+03  0.45563014046E+03  0.85139142216E+02 0.  0.
          5    1    3    3  502    0 -0.86574362122E+02  0.25807854839E+02  0.76209906205E+02  0.11828442565E+03  0.47000000000E+01 0. -1.
        -11    1    4    4    0    0 -0.10473251007E+02 -0.42746967127E+01  0.73852294609E+02  0.74713609454E+02  0.00000000000E+00 0.  1.
         12    1    4    4    0    0  0.43571265173E+02  0.65238698812E+02  0.86149310134E+02  0.11651715156E+03  0.00000000000E+00 0. -1.
         -5    1    5    5    0  501  0.26070212319E+02 -0.95643728459E+00  0.11985067458E+00  0.26508019670E+02  0.47000000000E+01 0.  1.
         11    1    6    6    0    0  0.29642508111E+02 -0.35388685873E+02  0.70701529550E+02  0.84437809397E+02  0.00000000000E+00 0. -1.
        -12    1    6    6    0    0 -0.22363724731E+01 -0.50426733780E+02  0.36774432667E+03  0.37119233107E+03  0.00000000000E+00 0.  1.
</event>
<event>
12    1  0.2576962E-002  0.1776432E+03  0.7818608E-02  0.1170104E+00
          1   -1    0    0  502    0  0.00000000000E+00  0.00000000000E+00  0.98599654030E+03  0.98599654030E+03  0.00000000000E+00 0. -1.
         -1   -1    0    0    0  501 -0.00000000000E+00 -0.00000000000E+00 -0.33479095032E+02  0.33479095032E+02  0.00000000000E+00 0.  1.
          6    2    1    2  502    0  0.25316914614E+02 -0.27502184012E+02  0.37547495585E+03  0.41638365119E+03  0.17605847386E+03 0.  0.
         24    2    3    3    0    0  0.60532983698E+02  0.12350461550E+02  0.12769694542E+03  0.16291878710E+03  0.80120192850E+02 0.  0.
         -6    2    1    2    0  501 -0.25316914614E+02  0.27502184012E+02  0.57704248941E+03  0.60309198414E+03  0.17130262827E+03 0.  0.
        -24    2    5    5    0    0  0.49769224599E+02  0.35100073877E+02  0.34524029467E+03  0.35926826970E+03  0.78573772015E+02 0.  0.
          5    1    3    3  502    0 -0.35216069084E+02 -0.39852645562E+02  0.24777801043E+03  0.25346486410E+03  0.47000000000E+01 0. -1.
        -11    1    4    4    0    0  0.49594033540E+02 -0.28703277539E+02  0.86361274845E+02  0.10364225054E+03  0.00000000000E+00 0.  1.
         12    1    4    4    0    0  0.10938950158E+02  0.41053739090E+02  0.41335670579E+02  0.59276536556E+02  0.00000000000E+00 0. -1.
         -5    1    5    5    0  501 -0.75086139213E+02 -0.75978898654E+01  0.23180219474E+03  0.24382371443E+03  0.47000000000E+01 0.  1.
         13    1    6    6    0    0  0.78750074115E+00  0.20994498678E+02  0.25308501172E+03  0.25395553211E+03  0.00000000000E+00 0. -1.
        -14    1    6    6    0    0  0.48981723858E+02  0.14105575199E+02  0.92155282948E+02  0.10531273759E+03  0.00000000000E+00 0.  1.
</event>
<event>
12    1  0.2576962E-002  0.1907090E+03  0.7818608E-02  0.1157823E+00
         -2   -1    0    0    0  501 -0.00000000000E+00  0.00000000000E+00  0.75143022387E+02  0.75143022387E+02  0.00000000000E+00 0. -1.
          2   -1    0    0  502    0  0.00000000000E+00 -0.00000000000E+00 -0.58539139498E+03  0.58539139498E+03  0.00000000000E+00 0.  1.
          6    2    1    2  502    0 -0.28073611939E+01 -0.77525542828E+02 -0.39295445917E+03  0.43694097323E+03  0.17460273779E+03 0.  0.
         24    2    3    3    0    0 -0.21079252333E+02  0.22820272229E+02 -0.14269294893E+03  0.16665213123E+03  0.80290444423E+02 0.  0.
         -6    2    1    2    0  501  0.28073611939E+01  0.77525542828E+02 -0.11729391343E+03  0.22359344413E+03  0.17383346935E+03 0.  0.
        -24    2    5    5    0    0  0.46340642614E+02  0.90256755616E+02 -0.40385927695E+02  0.13418338520E+03  0.77977051845E+02 0.  0.
          5    1    3    3  502    0  0.18271891139E+02 -0.10034581506E+03 -0.25026151024E+03  0.27028884200E+03  0.47000000000E+01 0. -1.
        -11    1    4    4    0    0  0.17090219538E+02 -0.48262986860E+01 -0.10447584504E+03  0.10597438823E+03  0.00000000000E+00 0.  1.
         12    1    4    4    0    0 -0.38169471870E+02  0.27646570915E+02 -0.38217103885E+02  0.60677743000E+02  0.00000000000E+00 0. -1.
         -5    1    5    5    0  501 -0.43533281421E+02 -0.12731212788E+02 -0.76907985731E+02  0.89410058939E+02  0.47000000000E+01 0.  1.
         13    1    6    6    0    0 -0.93013508144E+01  0.29527816309E+02  0.15526225155E+02  0.34633375962E+02  0.00000000000E+00 0. -1.
        -14    1    6    6    0    0  0.55641993429E+02  0.60728939306E+02 -0.55912152850E+02  0.99550009233E+02  0.00000000000E+00 0.  1.
</event>
<event>
12    1  0.2576962E-002  0.2606820E+03  0.7818608E-02  0.1106734E+00
         -2   -1    0    0    0  501 -0.00000000000E+00  0.00000000000E+00  0.33724194383E+03  0.33724194383E+03  0.00000000000E+00 0. -1.
          2   -1    0    0  502    0  0.00000000000E+00 -0.00000000000E+00 -0.30992825823E+03  0.30992825823E+03  0.00000000000E+00 0.  1.
          6    2    1    2  502    0 -0.82708600206E+02  0.17299373720E+03 -0.17776550590E+03  0.31470961510E+03  0.17514000424E+03 0.  0.
         24    2    3    3    0    0 -0.29364655299E+00  0.96443901503E+02 -0.15542204162E+03  0.19993408492E+03  0.80722456141E+02 0.  0.
         -6    2    1    2    0  501  0.82708600206E+02 -0.17299373720E+03  0.20507919150E+03  0.33246058696E+03  0.17805903920E+03 0.  0.
        -24    2    5    5    0    0  0.56033192149E+02 -0.35684805230E+02  0.14707870982E+03  0.18096317422E+03  0.81868184258E+02 0.  0.
          5    1    3    3  502    0 -0.82414953653E+02  0.76549835700E+02 -0.22343464284E+02  0.11477553018E+03  0.47000000000E+01 0. -1.
        -11    1    4    4    0    0 -0.21582247865E+02  0.99989599746E+02 -0.14008546962E+03  0.17345792654E+03  0.00000000000E+00 0.  1.
         12    1    4    4    0    0  0.21288601312E+02 -0.35456982432E+01 -0.15336571999E+02  0.26476158379E+02  0.00000000000E+00 0. -1.
         -5    1    5    5    0  501  0.26675408057E+02 -0.13730893197E+03  0.58000481673E+02  0.15149741275E+03  0.47000000000E+01 0.  1.
         13    1    6    6    0    0 -0.30489960352E+01 -0.44105590521E+02  0.47665362941E+02  0.65012201288E+02  0.00000000000E+00 0. -1.
        -14    1    6    6    0    0  0.59082188184E+02  0.84207852908E+01  0.99413346880E+02  0.11595097293E+03  0.00000000000E+00 0.  1.
</event>
<event>
12    1  0.2576962E-002  0.2483692E+03  0.7818608E-02  0.1114340E+00
          1   -1    0    0  502    0  0.00000000000E+00  0.00000000000E+00  0.14824487550E+03  0.14824487550E+03  0.00000000000E+00 0. -1.
         -1   -1    0    0    0  501 -0.00000000000E+00 -0.00000000000E+00 -0.41868506427E+03  0.41868506427E+03  0.00000000000E+00 0.  1.
          6    2    1    2  502    0  0.57494799440E+02 -0.16900602687E+03 -0.15742881476E+03  0.29407607562E+03  0.17270847534E+03 0.  0.
         24    2    3    3    0    0 -0.10805955843E+02 -0.33116541007E+02 -0.10054050050E+03  0.13162818909E+03  0.77486217816E+02 0.  0.
         -6    2    1    2    0  501 -0.57494799440E+02  0.16900602687E+03 -0.11301137400E+03  0.27285386414E+03  0.17265274815E+03 0.  0.
        -24    2    5    5    0    0 -0.57671556287E+02  0.17134296360E+03 -0.42451128292E+02  0.20209843473E+03  0.79732424064E+02 0.  0.
          5    1    3    3  502    0  0.68300755283E+02 -0.13588948586E+03 -0.56888314258E+02  0.16244788653E+03  0.47000000000E+01 0. -1.
        -13    1    4    4    0    0 -0.33686947318E+02 -0.43108557205E+02 -0.45382839482E+02  0.71082770369E+02  0.00000000000E+00 0.  1.
         14    1    4    4    0    0  0.22880991475E+02  0.99920161977E+01 -0.55157661022E+02  0.60545418720E+02  0.00000000000E+00 0. -1.
         -5    1    5    5    0  501  0.17675684711E+00 -0.23369367374E+01 -0.70560245712E+02  0.70755429412E+02  0.47000000000E+01 0.  1.
         11    1    6    6    0    0  0.77035095580E+01  0.57755116908E+02  0.13153441241E+02  0.59732826863E+02  0.00000000000E+00 0. -1.
        -12    1    6    6    0    0 -0.65375065845E+02  0.11358784670E+03 -0.55604569533E+02  0.14236560787E+03  0.00000000000E+00 0.  1.
</event>
<event>
12    1  0.2576962E-002  0.3053573E+03  0.7818608E-02  0.1082593E+00
          2   -1    0    0  502    0  0.00000000000E+00  0.00000000000E+00  0.37531324500E+03  0.37531324500E+03  0.00000000000E+00 0. -1.
         -2   -1    0    0    0  501 -0.00000000000E+00 -0.00000000000E+00 -0.34212089457E+03  0.34212089457E+03  0.00000000000E+00 0.  1.
          6    2    1    2  502    0  0.11953688238E+03  0.22335469165E+03 -0.17114653399E+03  0.34925435534E+03  0.16885225522E+03 0.  0.
         24    2    3    3    0    0  0.73985790230E+02  0.48184349377E+02 -0.39043963301E+02  0.12512776167E+03  0.79604629189E+02 0.  0.
         -6    2    1    2    0  501 -0.11953688238E+03 -0.22335469165E+03  0.20433888442E+03  0.36817978423E+03  0.17212085666E+03 0.  0.
        -24    2    5    5    0    0 -0.11720922829E+03 -0.23848241617E+03  0.15822020531E+03  0.31936084747E+03  0.79660853060E+02 0.  0.
          5    1    3    3  502    0  0.45551092146E+02  0.17517034227E+03 -0.13210257069E+03  0.22412659367E+03  0.47000000000E+01 0. -1.
        -13    1    4    4    0    0 -0.16946034861E+02  0.25854133532E+01 -0.63023521606E+01  0.18263956376E+02  0.00000000000E+00 0.  1.
         14    1    4    4    0    0  0.90931825091E+02  0.45598936023E+02 -0.32741611140E+02  0.10686380529E+03  0.00000000000E+00 0. -1.
         -5    1    5    5    0  501 -0.23276540838E+01  0.15127724524E+02  0.46118679115E+02  0.48818936757E+02  0.47000000000E+01 0.  1.
         11    1    6    6    0    0  0.97728521098E+01 -0.33381801786E+02  0.98251929698E+01  0.36143986301E+02  0.00000000000E+00 0. -1.
        -12    1    6    6    0    0 -0.12698208040E+03 -0.20510061439E+03  0.14839501234E+03  0.28321686117E+03  0.00000000000E+00 0.  1.
</event>
<event>
12    1  0.2576962E-002  0.3283050E+03  0.7818608E-02  0.1071889E+00
         -1   -1    0    0    0  501 -0.00000000000E+00  0.00000000000E+00  0.23080435453E+04  0.23080435453E+04  0.00000000000E+00 0. -1.
          1   -1    0    0  502    0  0.00000000000E+00 -0.00000000000E+00 -0.49907222659E+02  0.49907222659E+02  0.00000000000E+00 0.  1.
          6    2    1    2  502    0  0.21848092176E+03  0.17457332251E+03  0.14274762100E+04  0.14647087611E+04  0.17167896386E+03 0.  0.
         24    2    3    3    0    0  0.81566532541E+02  0.39403519707E+02  0.35628503441E+03  0.37636642055E+03  0.80665483210E+02 0.  0.
         -6    2    1    2    0  501 -0.21848092176E+03 -0.17457332251E+03  0.83066011259E+03  0.89324200681E+03  0.17226520825E+03 0.  0.
        -24    2    5    5    0    0 -0.86748277956E+02 -0.12933878325E+02  0.34346454054E+03  0.36327746574E+03  0.79435996703E+02 0.  0.
          5    1    3    3  502    0  0.13691438922E+03  0.13516980280E+03  0.10711911756E+04  0.10883423406E+04  0.47000000000E+01 0. -1.
        -13    1    4    4    0    0  0.33258670639E+02  0.14830317219E+02  0.28237770281E+03  0.28471607704E+03  0.00000000000E+00 0.  1.
         14    1    4    4    0    0  0.48307861901E+02  0.24573202487E+02  0.73907331595E+02  0.91650343510E+02  0.00000000000E+00 0. -1.
         -5    1    5    5    0  501 -0.13173264380E+03 -0.16163944418E+03  0.48719557205E+03  0.52996454107E+03  0.47000000000E+01 0.  1.
         13    1    6    6    0    0 -0.79644230325E+02  0.77633511315E+01  0.16397522117E+03  0.18245916311E+03  0.00000000000E+00 0. -1.
        -14    1    6    6    0    0 -0.71040476313E+01 -0.20697229457E+02  0.17948931936E+03  0.18081830263E+03  0.00000000000E+00 0.  1.
</event>
<event>
12    1  0.2576962E-002  0.2447695E+03  0.7818608E-02  0.1116656E+00
          2   -1    0    0  502    0  0.00000000000E+00  0.00000000000E+00  0.26580475285E+04  0.26580475285E+04  0.00000000000E+00 0.  1.
         -2   -1    0    0    0  501 -0.00000000000E+00 -0.00000000000E+00 -0.22541970693E+02  0.22541970693E+02  0.00000000000E+00 0. -1.
          6    2    1    2  502    0  0.85488323291E+02  0.15430800466E+03  0.12999795540E+04  0.13225772804E+04  0.16776354818E+03 0.  0.
         24    2    3    3    0    0  0.96528167327E+02  0.62252335349E+02  0.95561419301E+03  0.96591817670E+03  0.81279750499E+02 0.  0.
         -6    2    1    2    0  501 -0.85488323291E+02 -0.15430800466E+03  0.13355260038E+04  0.13580122188E+04  0.17160497026E+03 0.  0.
        -24    2    5    5    0    0 -0.66051089359E+02 -0.17446387014E+03  0.12746745926E+04  0.12908627645E+04  0.82042496025E+02 0.  0.
          5    1    3    3  502    0 -0.11039844037E+02  0.92055669313E+02  0.34436536102E+03  0.35665910374E+03  0.47000000000E+01 0. -1.
        -13    1    4    4    0    0  0.31435039065E+02  0.63922292747E+01  0.81196027137E+02  0.87303018842E+02  0.00000000000E+00 0.  1.
         14    1    4    4    0    0  0.65093128262E+02  0.55860106075E+02  0.87441816588E+03  0.87861515786E+03  0.00000000000E+00 0. -1.
         -5    1    5    5    0  501 -0.19437233932E+02  0.20155865479E+02  0.60851411175E+02  0.67149454339E+02  0.47000000000E+01 0.  1.
         13    1    6    6    0    0 -0.42213513602E+01 -0.11094193299E+03  0.57747835575E+03  0.58805372516E+03  0.00000000000E+00 0. -1.
        -14    1    6    6    0    0 -0.61829737999E+02 -0.63521937149E+02  0.69719623688E+03  0.70280903930E+03  0.00000000000E+00 0.  1.
</event>
<event>
12    1  0.2576962E-002  0.1944827E+03  0.7818608E-02  0.1154479E+00
          2   -1    0    0  502    0  0.00000000000E+00  0.00000000000E+00  0.19593077598E+04  0.19593077598E+04  0.00000000000E+00 0.  1.
         -2   -1    0    0    0  501 -0.00000000000E+00 -0.00000000000E+00 -0.19472467435E+02  0.19472467435E+02  0.00000000000E+00 0. -1.
          6    2    1    2  502    0 -0.76686620577E+02  0.51753543707E+02  0.10638841870E+04  0.10815911879E+04  0.17155368667E+03 0.  0.
         24    2    3    3    0    0 -0.46399113500E+02  0.86588697940E+02  0.95206548761E+03  0.96052784671E+03  0.80836695027E+02 0.  0.
         -6    2    1    2    0  501  0.76686620577E+02 -0.51753543707E+02  0.87595110542E+03  0.89718903935E+03  0.17058301847E+03 0.  0.
        -24    2    5    5    0    0  0.57192454124E+02 -0.76660369294E+00  0.24726316505E+03  0.26611827712E+03  0.80051859054E+02 0.  0.
          5    1    3    3  502    0 -0.30287507077E+02 -0.34835154233E+02  0.11181869937E+03  0.12106334121E+03  0.47000000000E+01 0. -1.
        -13    1    4    4    0    0  0.12065901586E+02  0.52687254616E+02  0.28766875922E+03  0.29270266109E+03  0.00000000000E+00 0.  1.
         14    1    4    4    0    0 -0.58465015086E+02  0.33901443324E+02  0.66439672839E+03  0.66782518561E+03  0.00000000000E+00 0. -1.
         -5    1    5    5    0  501  0.19494166453E+02 -0.50986940014E+02  0.62868794037E+03  0.63107076223E+03  0.47000000000E+01 0.  1.
         11    1    6    6    0    0 -0.13995196813E+02 -0.27487750158E+01  0.77296706654E+01  0.16222487679E+02  0.00000000000E+00 0. -1.
        -12    1    6    6    0    0  0.71187650936E+02  0.19821713228E+01  0.23953349439E+03  0.24989578944E+03  0.00000000000E+00 0.  1.
</event>
<event>
12    1  0.2576962E-002  0.1807348E+03  0.7818608E-02  0.1167094E+00
         -2   -1    0    0    0  501 -0.00000000000E+00  0.00000000000E+00  0.93782066161E+02  0.93782066161E+02  0.00000000000E+00 0. -1.
          2   -1    0    0  502    0  0.00000000000E+00 -0.00000000000E+00 -0.43993737968E+03  0.43993737968E+03  0.00000000000E+00 0.  1.
          6    2    1    2  502    0  0.50293161285E+02 -0.25552795761E+02 -0.50727328895E+02  0.18700011062E+03  0.17091937290E+03 0.  0.
         24    2    3    3    0    0 -0.30353919306E+02  0.15701969813E+02 -0.41550937321E+02  0.95828824285E+02  0.79301771092E+02 0.  0.
         -6    2    1    2    0  501 -0.50293161285E+02  0.25552795761E+02 -0.29542798463E+03  0.34671933522E+03  0.17249421982E+03 0.  0.
        -24    2    5    5    0    0  0.32660245270E+02 -0.81930870243E+01 -0.18475935573E+03  0.20427746046E+03  0.80370660223E+02 0.  0.
          5    1    3    3  502    0  0.80647080591E+02 -0.41254765575E+02 -0.91763915742E+01  0.91171286339E+02  0.47000000000E+01 0. -1.
        -13    1    4    4    0    0  0.15401812396E+02  0.25283354852E+00 -0.44851209954E+02  0.47422682171E+02  0.00000000000E+00 0.  1.
         14    1    4    4    0    0 -0.45755731702E+02  0.15449136265E+02  0.33002726335E+01  0.48406142114E+02  0.00000000000E+00 0. -1.
         -5    1    5    5    0  501 -0.82953406555E+02  0.33745882786E+02 -0.11066862889E+03  0.14244187476E+03  0.47000000000E+01 0.  1.
         11    1    6    6    0    0  0.29094275872E+02 -0.42591676574E+02 -0.95245382661E+02  0.10831533003E+03  0.00000000000E+00 0. -1.
        -12    1    6    6    0    0  0.35659693976E+01  0.34398589550E+02 -0.89513973073E+02  0.95962130427E+02  0.00000000000E+00 0.  1.
</event>
<event>
12    1  0.2576962E-002  0.1728888E+03  0.7818608E-02  0.1174868E+00
         -2   -1    0    0    0  501 -0.00000000000E+00  0.00000000000E+00  0.17691657982E+02  0.17691657982E+02  0.00000000000E+00 0. -1.
          2   -1    0    0  502    0  0.00000000000E+00 -0.00000000000E+00 -0.25645269517E+04  0.25645269517E+04  0.00000000000E+00 0.  1.
          6    2    1    2  502    0 -0.20577920953E+02 -0.15129461664E+02 -0.53165750690E+03  0.55984974709E+03  0.17355023260E+03 0.  0.
         24    2    3    3    0    0  0.17147581754E+02  0.23251963230E+02 -0.47292169661E+03  0.48004791289E+03  0.77177549809E+02 0.  0.
         -6    2    1    2    0  501  0.20577920953E+02  0.15129461664E+02 -0.20151777869E+04  0.20223688626E+04  0.16846944070E+03 0.  0.
        -24    2    5    5    0    0  0.10836809921E+02 -0.15467477525E+02 -0.53594539947E+03  0.54278053887E+03  0.83764926100E+02 0.  0.
          5    1    3    3  502    0 -0.37725502708E+02 -0.38381424894E+02 -0.58735810298E+02  0.79801834206E+02  0.47000000000E+01 0. -1.
        -13    1    4    4    0    0  0.43316014786E+02  0.29924748310E+02 -0.36606211242E+03  0.36982866013E+03  0.00000000000E+00 0.  1.
         14    1    4    4    0    0 -0.26168433032E+02 -0.66727850805E+01 -0.10685958418E+03  0.11021925276E+03  0.00000000000E+00 0. -1.
         -5    1    5    5    0  501  0.97411110328E+01  0.30596939190E+02 -0.14792323874E+04  0.14795883238E+04  0.47000000000E+01 0.  1.
         11    1    6    6    0    0  0.38489881014E+02 -0.27334542368E+02 -0.20026358756E+03  0.20575264919E+03  0.00000000000E+00 0. -1.
        -12    1    6    6    0    0 -0.27653071093E+02  0.11867064843E+02 -0.33568181192E+03  0.33702788968E+03  0.00000000000E+00 0.  1.
</event>
<event>
12    1  0.2576962E-002  0.3290773E+03  0.7818608E-02  0.1071546E+00
          2   -1    0    0  502    0  0.00000000000E+00  0.00000000000E+00  0.14425163949E+04  0.14425163949E+04  0.00000000000E+00 0.  1.
         -2   -1    0    0    0  501 -0.00000000000E+00 -0.00000000000E+00 -0.14702297842E+03  0.14702297842E+03  0.00000000000E+00 0. -1.
          6    2    1    2  502    0 -0.13498357897E+03  0.24597001177E+03  0.91884575029E+02  0.34178894663E+03  0.17220654932E+03 0.  0.
         24    2    3    3    0    0 -0.25326732333E+02  0.29263639817E+02 -0.81879814085E+00  0.81784560019E+02  0.72043319198E+02 0.  0.
         -6    2    1    2    0  501  0.13498357897E+03 -0.24597001177E+03  0.12036088414E+04  0.12477504266E+04  0.17171217426E+03 0.  0.
        -24    2    5    5    0    0  0.16182610299E+03 -0.17272955981E+03  0.95300305725E+03  0.98524321921E+03  0.80412595005E+02 0.  0.
          5    1    3    3  502    0 -0.10965684664E+03  0.21670637195E+03  0.92703373170E+02  0.26000438661E+03  0.47000000000E+01 0. -1.
        -11    1    4    4    0    0 -0.14182248852E+02  0.30258801890E+02  0.32513384037E+02  0.46624579525E+02  0.00000000000E+00 0.  1.
         12    1    4    4    0    0 -0.11144483480E+02 -0.99516207281E+00 -0.33332182178E+02  0.35159980494E+02  0.00000000000E+00 0. -1.
         -5    1    5    5    0  501 -0.26842524021E+02 -0.73240451961E+02  0.25060578416E+03  0.26250720744E+03  0.47000000000E+01 0.  1.
         11    1    6    6    0    0  0.74464783490E+02 -0.32448606673E+02  0.24128684017E+03  0.25459233157E+03  0.00000000000E+00 0. -1.
        -12    1    6    6    0    0  0.87361319502E+02 -0.14028095314E+03  0.71171621708E+03  0.73065088764E+03  0.00000000000E+00 0.  1.
</event>
<event>
12    1  0.2576962E-002  0.2226979E+03  0.7818608E-02  0.1131888E+00
          2   -1    0    0  502    0  0.00000000000E+00  0.00000000000E+00  0.18001848319E+04  0.18001848319E+04  0.00000000000E+00 0. -1.
         -2   -1    0    0    0  501 -0.00000000000E+00 -0.00000000000E+00 -0.35852671842E+02  0.35852671842E+02  0.00000000000E+00 0.  1.
          6    2    1    2  502    0 -0.47600790952E+02 -0.13645482395E+03  0.13197548955E+04  0.13381861282E+04  0.16764061388E+03 0.  0.
         24    2    3    3    0    0  0.24434965312E+02 -0.29712587550E+02  0.36934383167E+03  0.37907907717E+03  0.76198263564E+02 0.  0.
         -6    2    1    2    0  501  0.47600790952E+02  0.13645482395E+03  0.44457726458E+03  0.49785137549E+03  0.17123461572E+03 0.  0.
        -24    2    5    5    0    0  0.91169294012E+02  0.65707553452E+02  0.31807370676E+03  0.34642934644E+03  0.78823133601E+02 0.  0.
          5    1    3    3  502    0 -0.72035756265E+02 -0.10674223640E+03  0.95041106379E+03  0.95910705106E+03  0.47000000000E+01 0. -1.
        -13    1    4    4    0    0 -0.21571480775E+01 -0.40200324774E+02  0.94036093842E+02  0.10229128186E+03  0.00000000000E+00 0.  1.
         14    1    4    4    0    0  0.26592113390E+02  0.10487737223E+02  0.27530773782E+03  0.27678779531E+03  0.00000000000E+00 0. -1.
         -5    1    5    5    0  501 -0.43568503059E+02  0.70747270498E+02  0.12650355782E+03  0.15142202906E+03  0.47000000000E+01 0.  1.
         11    1    6    6    0    0  0.67453407582E+02  0.75203474104E+02  0.29566568643E+03  0.31244795222E+03  0.00000000000E+00 0. -1.
        -12    1    6    6    0    0  0.23715886430E+02 -0.94959206518E+01  0.22408020328E+02  0.33981394221E+02  0.00000000000E+00 0.  1.
</event>
<event>
12    1  0.2576962E-002  0.1894221E+03  0.7818608E-02  0.1158984E+00
          2   -1    0    0  502    0  0.00000000000E+00  0.00000000000E+00  0.71338692554E+03  0.71338692554E+03  0.00000000000E+00 0. -1.
         -2   -1    0    0    0  501 -0.00000000000E+00 -0.00000000000E+00 -0.56447505148E+02  0.56447505148E+02  0.00000000000E+00 0.  1.
          6    2    1    2  502    0 -0.33579763066E+02  0.70577161036E+02  0.20211087414E+03  0.27731247766E+03  0.17304527925E+03 0.  0.
         24    2    3    3    0    0 -0.47663508517E+02 -0.23568033341E+02  0.10358527696E+03  0.14023201658E+03  0.78152713524E+02 0.  0.
         -6    2    1    2    0  501  0.33579763066E+02 -0.70577161036E+02  0.45482854625E+03  0.49252195303E+03  0.17204688775E+03 0.  0.
        -24    2    5    5    0    0  0.67513034498E+02 -0.11188583171E+02  0.36075455747E+03  0.37611544352E+03  0.81460308734E+02 0.  0.
          5    1    3    3  502    0  0.14083745451E+02  0.94145194376E+02  0.98525597179E+02  0.13708046108E+03  0.47000000000E+01 0. -1.
        -11    1    4    4    0    0 -0.42194219736E+02  0.65111783654E+01  0.13003408786E+02  0.44629992862E+02  0.00000000000E+00 0.  1.
         12    1    4    4    0    0 -0.54692887809E+01 -0.30079211706E+02  0.90581868176E+02  0.95602023717E+02  0.00000000000E+00 0. -1.
         -5    1    5    5    0  501 -0.33933271432E+02 -0.59388577865E+02  0.94073988785E+02  0.11640650951E+03  0.47000000000E+01 0.  1.
         13    1    6    6    0    0  0.18537375772E+02 -0.51877902940E+01  0.28537008360E+03  0.28601858695E+03  0.00000000000E+00 0. -1.
        -14    1    6    6    0    0  0.48975658726E+02 -0.60007928768E+01  0.75384473869E+02  0.90096856567E+02  0.00000000000E+00 0.  1.
</event>
<event>
12    1  0.2576962E-002  0.1738617E+03  0.7818608E-02  0.1173879E+00
         -2   -1    0    0    0  501 -0.00000000000E+00  0.00000000000E+00  0.21787297248E+02  0.21787297248E+02  0.00000000000E+00 0.  1.
          2   -1    0    0  502    0  0.00000000000E+00 -0.00000000000E+00 -0.36809274767E+04  0.36809274767E+04  0.00000000000E+00 0. -1.
          6    2    1    2  502    0  0.47521371654E+01  0.29341014921E+02 -0.32946101679E+04  0.32992436390E+04  0.17224677954E+03 0.  0.
         24    2    3    3    0    0 -0.44553182872E+01  0.69338538243E+02 -0.13372850300E+04  0.13414825798E+04  0.80103545064E+02 0.  0.
         -6    2    1    2    0  501 -0.47521371654E+01 -0.29341014921E+02 -0.36453001148E+03  0.40347113488E+03  0.17036240620E+03 0.  0.
        -24    2    5    5    0    0 -0.17500846412E+02  0.45820266392E+02 -0.23518028445E+03  0.25325399312E+03  0.80137646582E+02 0.  0.
          5    1    3    3  502    0  0.92074554526E+01 -0.39997523322E+02 -0.19573251380E+04  0.19577610592E+04  0.47000000000E+01 0. -1.
        -11    1    4    4    0    0  0.28565912383E+02  0.11085250879E+02 -0.21152390585E+03  0.21373174047E+03  0.00000000000E+00 0.  1.
         12    1    4    4    0    0 -0.33021230670E+02  0.58253287364E+02 -0.11257611241E+04  0.11277508394E+04  0.00000000000E+00 0. -1.
         -5    1    5    5    0  501  0.12748709247E+02 -0.75161281313E+02 -0.12934972704E+03  0.15021714177E+03  0.47000000000E+01 0.  1.
         13    1    6    6    0    0 -0.94544512953E+01 -0.22864332309E+02 -0.58047838407E+02  0.63100839019E+02  0.00000000000E+00 0. -1.
        -14    1    6    6    0    0 -0.80463951166E+01  0.68684598701E+02 -0.17713244604E+03  0.19015315410E+03  0.00000000000E+00 0.  1.
</event>
<event>
12    1  0.2576962E-002  0.5009546E+03  0.7818608E-02  0.1013530E+00
          4   -1    0    0  502    0  0.00000000000E+00  0.00000000000E+00  0.91070572313E+02  0.91070572313E+02  0.00000000000E+00 0.  1.
         -4   -1    0    0    0  501 -0.00000000000E+00 -0.00000000000E+00 -0.27928070939E+04  0.27928070939E+04  0.00000000000E+00 0. -1.
          6    2    1    2  502    0 -0.31402869260E+03  0.35056815420E+03 -0.15164065358E+04  0.15969102723E+04  0.17065047826E+03 0.  0.
         24    2    3    3    0    0 -0.84027924927E+02  0.17482215284E+03 -0.69058107319E+03  0.72181210943E+03  0.80542072085E+02 0.  0.
         -6    2    1    2    0  501  0.31402869260E+03 -0.35056815420E+03 -0.11853299858E+04  0.12869673939E+04  0.17252781527E+03 0.  0.
        -24    2    5    5    0    0  0.67900022227E+02 -0.11385895601E+03 -0.44767884105E+03  0.47409479113E+03  0.82311915086E+02 0.  0.
          5    1    3    3  502    0 -0.23000076768E+03  0.17574600136E+03 -0.82582546256E+03  0.87509816291E+03  0.47000000000E+01 0. -1.
        -11    1    4    4    0    0 -0.51077978010E+02  0.26315879077E+02 -0.16895111458E+03  0.17845437637E+03  0.00000000000E+00 0.  1.
         12    1    4    4    0    0 -0.32949946916E+02  0.14850627376E+03 -0.52162995861E+03  0.54335773306E+03  0.00000000000E+00 0. -1.
         -5    1    5    5    0  501  0.24612867038E+03 -0.23670919819E+03 -0.73765114479E+03  0.81287260275E+03  0.47000000000E+01 0.  1.
         13    1    6    6    0    0  0.52680904579E+02 -0.11130438584E+03 -0.43990475987E+03  0.45681521622E+03  0.00000000000E+00 0. -1.
        -14    1    6    6    0    0  0.15219117648E+02 -0.25545701721E+01 -0.77740811842E+01  0.17279574908E+02  0.00000000000E+00 0.  1.
</event>
<event>
12    1  0.2576962E-002  0.2131555E+03  0.7818608E-02  0.1139091E+00
         -2   -1    0    0    0  501 -0.00000000000E+00  0.00000000000E+00  0.35997838736E+03  0.35997838736E+03  0.00000000000E+00 0. -1.
          2   -1    0    0  502    0  0.00000000000E+00 -0.00000000000E+00 -0.46399950741E+03  0.46399950741E+03  0.00000000000E+00 0.  1.
          6    2    1    2  502    0 -0.13510919404E+03 -0.16459185098E+02 -0.40301577079E+03  0.45307309765E+03  0.15597474546E+03 0.  0.
         24    2    3    3    0    0 -0.76886729977E+02 -0.61288340547E+02 -0.20649805453E+03  0.24321407044E+03  0.82727308673E+02 0.  0.
         -6    2    1    2    0  501  0.13510919404E+03  0.16459185098E+02  0.29899465074E+03  0.37090479712E+03  0.17218353077E+03 0.  0.
        -24    2    5    5    0    0  0.56968943008E+01  0.33337340226E+02  0.98901066210E+02  0.13196558306E+03  0.80558434427E+02 0.  0.
          5    1    3    3  502    0 -0.58222464066E+02  0.44829155449E+02 -0.19651771626E+03  0.20985902722E+03  0.47000000000E+01 0. -1.
        -11    1    4    4    0    0 -0.29546754309E+02 -0.54354109210E+02 -0.17579894945E+03  0.18636697805E+03  0.00000000000E+00 0.  1.
         12    1    4    4    0    0 -0.47339975668E+02 -0.69342313372E+01 -0.30699105076E+02  0.56847092388E+02  0.00000000000E+00 0. -1.
         -5    1    5    5    0  501  0.12941229974E+03 -0.16878155128E+02  0.20009358453E+03  0.23893921406E+03  0.47000000000E+01 0.  1.
         11    1    6    6    0    0  0.29914990325E+02  0.23540120249E+02  0.10074457448E+02  0.39376879007E+02  0.00000000000E+00 0. -1.
        -12    1    6    6    0    0 -0.24218096024E+02  0.97972199767E+01  0.88826608761E+02  0.92588704054E+02  0.00000000000E+00 0.  1.
</event>
<event>
12    1  0.2576962E-002  0.1766239E+03  0.7818608E-02  0.1171111E+00
         -2   -1    0    0    0  501 -0.00000000000E+00  0.00000000000E+00  0.10382618520E+03  0.10382618520E+03  0.00000000000E+00 0. -1.
          2   -1    0    0  502    0  0.00000000000E+00 -0.00000000000E+00 -0.46814626277E+03  0.46814626277E+03  0.00000000000E+00 0.  1.
          6    2    1    2  502    0  0.95612643533E+01  0.34668626025E+02 -0.11316992854E+02  0.17745988824E+03  0.17340878351E+03 0.  0.
         24    2    3    3    0    0  0.13100789693E+02 -0.11469852777E+02 -0.65965295179E+02  0.10569768082E+03  0.80730362009E+02 0.  0.
         -6    2    1    2    0  501 -0.95612643533E+01 -0.34668626025E+02 -0.35300308472E+03  0.39451255973E+03  0.17244028114E+03 0.  0.
        -24    2    5    5    0    0  0.12973227796E+02 -0.61837892921E+02 -0.11444122793E+03  0.15330762214E+03  0.80088717796E+02 0.  0.
          5    1    3    3  502    0 -0.35395253401E+01  0.46138478802E+02  0.54648302325E+02  0.71762207413E+02  0.47000000000E+01 0. -1.
        -11    1    4    4    0    0 -0.23593116152E+02 -0.24598321143E+02 -0.55859475386E+02  0.65436943107E+02  0.00000000000E+00 0.  1.
         12    1    4    4    0    0  0.36693905845E+02  0.13128468366E+02 -0.10105819793E+02  0.40260737717E+02  0.00000000000E+00 0. -1.
         -5    1    5    5    0  501 -0.22534492150E+02  0.27169266896E+02 -0.23856185679E+03  0.24120493759E+03  0.47000000000E+01 0.  1.
         11    1    6    6    0    0 -0.27480018220E+02 -0.12847914087E+02 -0.11708087937E+02  0.32516144004E+02  0.00000000000E+00 0. -1.
        -12    1    6    6    0    0  0.40453246017E+02 -0.48989978834E+02 -0.10273313999E+03  0.12079147814E+03  0.00000000000E+00 0.  1.
</event>
<event>
12    1  0.2576962E-002  0.5356587E+03  0.7818608E-02  0.1004869E+00
          2   -1    0    0  502    0  0.00000000000E+00  0.00000000000E+00  0.87209764095E+03  0.87209764095E+03  0.00000000000E+00 0.  1.
         -2   -1    0    0    0  501 -0.00000000000E+00 -0.00000000000E+00 -0.44819068984E+03  0.44819068984E+03  0.00000000000E+00 0. -1.
          6    2    1    2  502    0  0.23635673924E+03  0.44796575989E+03  0.55221134314E+03  0.76895694542E+03  0.17268348562E+03 0.  0.
         24    2    3    3    0    0  0.17458501204E+03  0.35395393220E+03  0.32581475786E+03  0.51611020557E+03  0.66717129064E+02 0.  0.
         -6    2    1    2    0  501 -0.23635673924E+03 -0.44796575989E+03 -0.12830439202E+03  0.55133138536E+03  0.17597286509E+03 0.  0.
        -24    2    5    5    0    0 -0.15827272921E+03 -0.29370170774E+03 -0.12572309953E+02  0.34321959995E+03  0.79565575884E+02 0.  0.
          5    1    3    3  502    0  0.61771727205E+02  0.94011827696E+02  0.22639658528E+03  0.25284673985E+03  0.47000000000E+01 0. -1.
        -13    1    4    4    0    0  0.84527371004E+02  0.12078339536E+03  0.15138476144E+03  0.21130747985E+03  0.00000000000E+00 0.  1.
         14    1    4    4    0    0  0.90057641034E+02  0.23317053684E+03  0.17442999641E+03  0.30480272572E+03  0.00000000000E+00 0. -1.
         -5    1    5    5    0  501 -0.78084010030E+02 -0.15426405215E+03 -0.11573208207E+03  0.20811178542E+03  0.47000000000E+01 0.  1.
         11    1    6    6    0    0 -0.12570688005E+03 -0.16031192059E+03  0.10481226187E+02  0.20399016564E+03  0.00000000000E+00 0. -1.
        -12    1    6    6    0    0 -0.32565849162E+02 -0.13338978716E+03 -0.23053536140E+02  0.13922943431E+03  0.00000000000E+00 0.  1.
</event>
<event>
12    1  0.2576962E-002  0.2209107E+03  0.7818608E-02  0.1133206E+00
         -2   -1    0    0    0  501 -0.00000000000E+00  0.00000000000E+00  0.86863448245E+03  0.86863448245E+03  0.00000000000E+00 0. -1.
          2   -1    0    0  502    0  0.00000000000E+00 -0.00000000000E+00 -0.72296793453E+02  0.72296793453E+02  0.00000000000E+00 0.  1.
          6    2    1    2  502    0 -0.10738948214E+03  0.80952139564E+02  0.61812063455E+03  0.65589894473E+03  0.17333365819E+03 0.  0.
         24    2    3    3    0    0 -0.69090278677E+02  0.93831384186E+02  0.27099518192E+03  0.30639805232E+03  0.82846741496E+02 0.  0.
         -6    2    1    2    0  501  0.10738948214E+03 -0.80952139564E+02  0.17821705444E+03  0.28503233117E+03  0.17719018468E+03 0.  0.
        -24    2    5    5    0    0 -0.18222622084E+02 -0.35342809144E+02  0.64936815516E+02  0.10978075691E+03  0.79081264945E+02 0.  0.
          5    1    3    3  502    0 -0.38299203464E+02 -0.12879244622E+02  0.34712545263E+03  0.34950089240E+03  0.47000000000E+01 0. -1.
        -13    1    4    4    0    0 -0.36344704375E+01 -0.13769942907E+02  0.50478411068E+02  0.52448934088E+02  0.00000000000E+00 0.  1.
         14    1    4    4    0    0 -0.65455808240E+02  0.10760132709E+03  0.22051677086E+03  0.25394911824E+03  0.00000000000E+00 0. -1.
         -5    1    5    5    0  501  0.12561210423E+03 -0.45609330420E+02  0.11328023893E+03  0.17525157426E+03  0.47000000000E+01 0.  1.
         11    1    6    6    0    0  0.91880089861E+01  0.76268884185E+01  0.56952859472E+02  0.58191211864E+02  0.00000000000E+00 0. -1.
        -12    1    6    6    0    0 -0.27410631070E+02 -0.42969697563E+02  0.79839560433E+01  0.51589545050E+02  0.00000000000E+00 0.  1.
</event>
<event>
12    1  0.2576962E-002  0.2508300E+03  0.7818608E-02  0.1112781E+00
          2   -1    0    0  502    0  0.00000000000E+00  0.00000000000E+00  0.32306884177E+03  0.32306884177E+03  0.00000000000E+00 0. -1.
         -2   -1    0    0    0  501 -0.00000000000E+00 -0.00000000000E+00 -0.21134009597E+03  0.21134009597E+03  0.00000000000E+00 0.  1.
          6    2    1    2  502    0  0.13722806331E+03 -0.11734159654E+03  0.13062549277E+03  0.28230914035E+03  0.17330562519E+03 0.  0.
         24    2    3    3    0    0  0.11386150941E+03 -0.12285197183E+03  0.50217361814E+02  0.19826202498E+03  0.93429100460E+02 0.  0.
         -6    2    1    2    0  501 -0.13722806331E+03  0.11734159654E+03 -0.18896746971E+02  0.25209979740E+03  0.17491892169E+03 0.  0.
        -24    2    5    5    0    0 -0.14983538940E+03  0.42942379866E+02 -0.37810502763E+01  0.17499751209E+03  0.79467861374E+02 0.  0.
          5    1    3    3  502    0  0.23366553899E+02  0.55103752914E+01  0.80408130960E+02  0.84047115367E+02  0.47000000000E+01 0. -1.
        -11    1    4    4    0    0 -0.91235436358E+01 -0.45728354670E+02  0.12004596614E+02  0.48150096668E+02  0.00000000000E+00 0.  1.
         12    1    4    4    0    0  0.12298505304E+03 -0.77123617165E+02  0.38212765200E+02  0.15011192831E+03  0.00000000000E+00 0. -1.
         -5    1    5    5    0  501  0.12607326091E+02  0.74399216677E+02 -0.15115696695E+02  0.77102285309E+02  0.47000000000E+01 0.  1.
         13    1    6    6    0    0 -0.17317816674E+01 -0.85311836550E+01  0.14735154805E+02  0.17114466086E+02  0.00000000000E+00 0. -1.
        -14    1    6    6    0    0 -0.14810360773E+03  0.51473563521E+02 -0.18516205081E+02  0.15788304600E+03  0.00000000000E+00 0.  1.
</event>
<event>
12    1  0.2576962E-002  0.2313774E+03  0.7818608E-02  0.1125674E+00
         -2   -1    0    0    0  501 -0.00000000000E+00  0.00000000000E+00  0.19069927288E+03  0.19069927288E+03  0.00000000000E+00 0. -1.
          2   -1    0    0  502    0  0.00000000000E+00 -0.00000000000E+00 -0.34575067520E+03  0.34575067520E+03  0.00000000000E+00 0.  1.
          6    2    1    2  502    0 -0.90562893288E+02  0.12546992463E+03 -0.19383148645E+03  0.30181257937E+03  0.17197630156E+03 0.  0.
         24    2    3    3    0    0 -0.10990603003E+02  0.11779829725E+02 -0.28489109748E+02  0.85901999281E+02  0.79422706850E+02 0.  0.
         -6    2    1    2    0  501  0.90562893288E+02 -0.12546992463E+03  0.38780084122E+02  0.23463736871E+03  0.17206527901E+03 0.  0.
        -24    2    5    5    0    0  0.64607832290E+02 -0.11250877952E+03 -0.33540382820E+02  0.15657331544E+03  0.80980543131E+02 0.  0.
          5    1    3    3  502    0 -0.79572290285E+02  0.11369009491E+03 -0.16534237670E+03  0.21591058009E+03  0.47000000000E+01 0. -1.
        -13    1    4    4    0    0  0.18922569110E+02 -0.97451310050E+00  0.19979457429E+02  0.27535286755E+02  0.00000000000E+00 0.  1.
         14    1    4    4    0    0 -0.29913172113E+02  0.12754342825E+02 -0.48468567178E+02  0.58366712525E+02  0.00000000000E+00 0. -1.
         -5    1    5    5    0  501  0.25955060998E+02 -0.12961145111E+02  0.72320466942E+02  0.78064053268E+02  0.47000000000E+01 0.  1.
         11    1    6    6    0    0  0.69193319209E+01 -0.86217804254E+02 -0.34622530597E+02  0.93167089413E+02  0.00000000000E+00 0. -1.
        -12    1    6    6    0    0  0.57688500369E+02 -0.26290975268E+02  0.10821477774E+01  0.63406226028E+02  0.00000000000E+00 0.  1.
</event>
<event>
12    1  0.2576962E-002  0.2068760E+03  0.7818608E-02  0.1144064E+00
         -3   -1    0    0    0  501 -0.00000000000E+00  0.00000000000E+00  0.24160049858E+03  0.24160049858E+03  0.00000000000E+00 0.  1.
          3   -1    0    0  502    0  0.00000000000E+00 -0.00000000000E+00 -0.22594437353E+03  0.22594437353E+03  0.00000000000E+00 0. -1.
          6    2    1    2  502    0  0.96352906809E+02  0.61617280560E+02  0.11647823820E+03  0.23755941561E+03  0.17258830800E+03 0.  0.
         24    2    3    3    0    0  0.11918991702E+03  0.26399288538E+02  0.12779813275E+03  0.19383223859E+03  0.79595321647E+02 0.  0.
         -6    2    1    2    0  501 -0.96352906809E+02 -0.61617280560E+02 -0.10082211315E+03  0.22998545650E+03  0.17218490000E+03 0.  0.
        -24    2    5    5    0    0 -0.40082763012E+01 -0.56281169862E+02 -0.10421610179E+03  0.13730528591E+03  0.69340531499E+02 0.  0.
          5    1    3    3  502    0 -0.22837010215E+02  0.35217992022E+02 -0.11319894546E+02  0.43727177020E+02  0.47000000000E+01 0. -1.
        -11    1    4    4    0    0  0.17500141261E+02 -0.15566644397E+02  0.60489255396E+02  0.64865440569E+02  0.00000000000E+00 0.  1.
         12    1    4    4    0    0  0.10168977576E+03  0.41965932935E+02  0.67308877355E+02  0.12896679802E+03  0.00000000000E+00 0. -1.
         -5    1    5    5    0  501 -0.92344630508E+02 -0.53361106974E+01  0.33939886353E+01  0.92680170586E+02  0.47000000000E+01 0.  1.
         11    1    6    6    0    0  0.13945126807E+02  0.12215124259E+02 -0.19831339359E+02  0.27146967475E+02  0.00000000000E+00 0. -1.
        -12    1    6    6    0    0 -0.17953403108E+02 -0.68496294121E+02 -0.84384762426E+02  0.11015831844E+03  0.00000000000E+00 0.  1.
</event>
<event>
12    1  0.2576962E-002  0.2011198E+03  0.7818608E-02  0.1148798E+00
          1   -1    0    0  502    0  0.00000000000E+00  0.00000000000E+00  0.11177886059E+04  0.11177886059E+04  0.00000000000E+00 0. -1.
         -1   -1    0    0    0  501 -0.00000000000E+00 -0.00000000000E+00 -0.36212518442E+02  0.36212518442E+02  0.00000000000E+00 0.  1.
          6    2    1    2  502    0 -0.10341068900E+03 -0.14660319179E+02  0.52592301474E+03  0.56313409292E+03  0.17209385121E+03 0.  0.
         24    2    3    3    0    0 -0.64985119819E+02  0.16866658878E+02  0.14352543864E+03  0.17749116103E+03  0.79975063160E+02 0.  0.
         -6    2    1    2    0  501  0.10341068900E+03  0.14660319179E+02  0.55565307272E+03  0.59086703142E+03  0.17165318534E+03 0.  0.
        -24    2    5    5    0    0  0.14005133467E+03  0.26474987267E+02  0.44021499731E+03  0.46908787659E+03  0.77064199288E+02 0.  0.
          5    1    3    3  502    0 -0.38425569179E+02 -0.31526978057E+02  0.38239757610E+03  0.38564293190E+03  0.47000000000E+01 0. -1.
        -13    1    4    4    0    0  0.12124764517E+02 -0.16083638742E+02  0.34478033738E+02  0.39930291262E+02  0.00000000000E+00 0.  1.
         14    1    4    4    0    0 -0.77109884336E+02  0.32950297620E+02  0.10904740490E+03  0.13756086976E+03  0.00000000000E+00 0. -1.
         -5    1    5    5    0  501 -0.36640645669E+02 -0.11814668089E+02  0.11543807541E+03  0.12177915483E+03  0.47000000000E+01 0.  1.
         11    1    6    6    0    0  0.12231382748E+03  0.56825283148E+01  0.41198357490E+03  0.42979463643E+03  0.00000000000E+00 0. -1.
        -12    1    6    6    0    0  0.17737507190E+02  0.20792458953E+02  0.28231422418E+02  0.39293240161E+02  0.00000000000E+00 0.  1.
</event>
<event>
12    1  0.2576962E-002  0.3377022E+03  0.7818608E-02  0.1067779E+00
         -2   -1    0    0    0  501 -0.00000000000E+00  0.00000000000E+00  0.25952990200E+03  0.25952990200E+03  0.00000000000E+00 0.  1.
          2   -1    0    0  502    0  0.00000000000E+00 -0.00000000000E+00 -0.46289639871E+03  0.46289639871E+03  0.00000000000E+00 0. -1.
          6    2    1    2  502    0 -0.12887310759E+03 -0.26211539917E+03 -0.18263975910E+03  0.38277112639E+03  0.16686429591E+03 0.  0.
         24    2    3    3    0    0 -0.20188728096E+02 -0.12335867529E+03 -0.37716370333E+02  0.15453747116E+03  0.82670175331E+02 0.  0.
         -6    2    1    2    0  501  0.12887310759E+03  0.26211539917E+03 -0.20726737610E+02  0.33965517432E+03  0.17211414657E+03 0.  0.
        -24    2    5    5    0    0  0.12519411719E+02  0.17327774396E+03  0.32059394341E+01  0.19124636543E+03  0.79893566827E+02 0.  0.
          5    1    3    3  502    0 -0.10868437950E+03 -0.13875672388E+03 -0.14492338877E+03  0.22823365523E+03  0.47000000000E+01 0. -1.
        -11    1    4    4    0    0 -0.40677942746E+02 -0.12241980169E+03 -0.28824513299E+02  0.13218228111E+03  0.00000000000E+00 0.  1.
         12    1    4    4    0    0  0.20489214650E+02 -0.93887359821E+00 -0.88918570338E+01  0.22355190048E+02  0.00000000000E+00 0. -1.
         -5    1    5    5    0  501  0.11635369587E+03  0.88837655217E+02 -0.23932677044E+02  0.14840880890E+03  0.47000000000E+01 0.  1.
         11    1    6    6    0    0 -0.13626542952E+01  0.11344074970E+03 -0.35221394548E+02  0.11879060213E+03  0.00000000000E+00 0. -1.
        -12    1    6    6    0    0  0.13882066014E+02  0.59836994253E+02  0.38427333982E+02  0.72455763297E+02  0.00000000000E+00 0.  1.
</event>
<event>
12    1  0.2576962E-002  0.3656744E+03  0.7818608E-02  0.1056359E+00
         -2   -1    0    0    0  501 -0.00000000000E+00  0.00000000000E+00  0.19170602487E+03  0.19170602487E+03  0.00000000000E+00 0.  1.
          2   -1    0    0  502    0  0.00000000000E+00 -0.00000000000E+00 -0.23463507849E+04  0.23463507849E+04  0.00000000000E+00 0. -1.
          6    2    1    2  502    0  0.31060435544E+03 -0.86775627747E+02 -0.21412533982E+04  0.21722766769E+04  0.17266954100E+03 0.  0.
         24    2    3    3    0    0  0.13744065940E+03 -0.90534557801E+02 -0.86459260505E+03  0.88391156327E+03  0.81809766908E+02 0.  0.
         -6    2    1    2    0  501 -0.31060435544E+03  0.86775627747E+02 -0.13391361808E+02  0.36578013287E+03  0.17207760413E+03 0.  0.
        -24    2    5    5    0    0 -0.15488640284E+03 -0.24846572811E+01  0.39811136627E+02  0.17851541360E+03  0.79289690287E+02 0.  0.
          5    1    3    3  502    0  0.17316369603E+03  0.37589300543E+01 -0.12766607932E+04  0.12883651136E+04  0.47000000000E+01 0. -1.
        -11    1    4    4    0    0  0.24767375416E+02 -0.60477471949E+02 -0.37259214064E+03  0.37828012209E+03  0.00000000000E+00 0.  1.
         12    1    4    4    0    0  0.11267328399E+03 -0.30057085852E+02 -0.49200046441E+03  0.50563144118E+03  0.00000000000E+00 0. -1.
         -5    1    5    5    0  501 -0.15571795260E+03  0.89260285028E+02 -0.53202498435E+02  0.18726471927E+03  0.47000000000E+01 0.  1.
         13    1    6    6    0    0 -0.48416855832E+02 -0.24060701565E+02 -0.16000050244E+02  0.56383604854E+02  0.00000000000E+00 0. -1.
        -14    1    6    6    0    0 -0.10646954701E+03  0.21576044284E+02  0.55811186872E+02  0.12213180874E+03  0.00000000000E+00 0.  1.
</event>
<event>
12    1  0.2576962E-002  0.1783936E+03  0.7818608E-02  0.1169367E+00
         -2   -1    0    0    0  501 -0.00000000000E+00  0.00000000000E+00  0.31404198607E+02  0.31404198607E+02  0.00000000000E+00 0. -1.
          2   -1    0    0  502    0  0.00000000000E+00 -0.00000000000E+00 -0.11916312245E+04  0.11916312245E+04  0.00000000000E+00 0.  1.
          6    2    1    2  502    0  0.18554060327E+02 -0.43457592468E+02 -0.81759991846E+03  0.83691089240E+03  0.17238735351E+03 0.  0.
         24    2    3    3    0    0  0.49184077281E+02 -0.62227555430E+02 -0.76411018340E+03  0.77230631667E+03  0.79380931467E+02 0.  0.
         -6    2    1    2    0  501 -0.18554060327E+02  0.43457592468E+02 -0.34262710744E+03  0.38612453071E+03  0.17165664266E+03 0.  0.
        -24    2    5    5    0    0  0.45071156312E+02 -0.51823532277E+01 -0.20694761711E+03  0.22850147845E+03  0.85599903680E+02 0.  0.
          5    1    3    3  502    0 -0.30630016955E+02  0.18769962962E+02 -0.53489735064E+02  0.64604575732E+02  0.47000000000E+01 0. -1.
        -13    1    4    4    0    0 -0.15935422618E+02 -0.32162323997E+02 -0.36874558305E+03  0.37048840441E+03  0.00000000000E+00 0.  1.
         14    1    4    4    0    0  0.65119499899E+02 -0.30065231433E+02 -0.39536460035E+03  0.40181791226E+03  0.00000000000E+00 0. -1.
         -5    1    5    5    0  501 -0.63625216639E+02  0.48639945695E+02 -0.13567949033E+03  0.15762305227E+03  0.47000000000E+01 0.  1.
         13    1    6    6    0    0  0.52453269499E+02  0.69054948830E+01 -0.56555564643E+02  0.77443936063E+02  0.00000000000E+00 0. -1.
        -14    1    6    6    0    0 -0.73821131873E+01 -0.12087848111E+02 -0.15039205246E+03  0.15105754238E+03  0.00000000000E+00 0.  1.
</event>
<event>
12    1  0.2576962E-002  0.1831027E+03  0.7818608E-02  0.1164834E+00
         -2   -1    0    0    0  501 -0.00000000000E+00  0.00000000000E+00  0.26630312424E+03  0.26630312424E+03  0.00000000000E+00 0. -1.
          2   -1    0    0  502    0  0.00000000000E+00 -0.00000000000E+00 -0.14795421417E+03  0.14795421417E+03  0.00000000000E+00 0.  1.
          6    2    1    2  502    0 -0.17264307037E+02 -0.61322459827E+02 -0.20863460120E+02  0.18406112894E+03  0.17141970377E+03 0.  0.
         24    2    3    3    0    0 -0.74682738259E+02 -0.14551769818E+02 -0.11754202711E+02  0.10929855636E+03  0.77580588700E+02 0.  0.
         -6    2    1    2    0  501  0.17264307037E+02  0.61322459827E+02  0.13921237019E+03  0.23019620947E+03  0.17190610945E+03 0.  0.
        -24    2    5    5    0    0  0.61794987056E+02 -0.88098758080E+01  0.72799469879E+02  0.12373359025E+03  0.78192098094E+02 0.  0.
          5    1    3    3  502    0  0.57418431222E+02 -0.46770690009E+02 -0.91092574083E+01  0.74762572577E+02  0.47000000000E+01 0. -1.
        -13    1    4    4    0    0  0.12388902557E+02 -0.55058824036E+01 -0.16829941676E+02  0.21611260593E+02  0.00000000000E+00 0.  1.
         14    1    4    4    0    0 -0.87071640816E+02 -0.90458874147E+01  0.50757389649E+01  0.87687295770E+02  0.00000000000E+00 0. -1.
         -5    1    5    5    0  501 -0.44530680018E+02  0.70132335635E+02  0.66412900311E+02  0.10646261922E+03  0.47000000000E+01 0.  1.
         13    1    6    6    0    0  0.67680014506E+01 -0.30500029931E+02  0.17561287683E+01  0.31291239312E+02  0.00000000000E+00 0. -1.
        -14    1    6    6    0    0  0.55026985605E+02  0.21690154123E+02  0.71043341111E+02  0.92442350937E+02  0.00000000000E+00 0.  1.
</event>
<event>
12    1  0.2576962E-002  0.1953739E+03  0.7818608E-02  0.1153702E+00
          2   -1    0    0  502    0  0.00000000000E+00  0.00000000000E+00  0.16102556510E+04  0.16102556510E+04  0.00000000000E+00 0. -1.
         -2   -1    0    0    0  501 -0.00000000000E+00 -0.00000000000E+00 -0.42338635738E+02  0.42338635738E+02  0.00000000000E+00 0.  1.
          6    2    1    2  502    0  0.31572342127E+02  0.87219074918E+02  0.13312259085E+04  0.13454280216E+04  0.17149391263E+03 0.  0.
         24    2    3    3    0    0  0.85267652387E+02  0.47139448737E+02  0.88582493094E+03  0.89499080780E+03  0.82644041524E+02 0.  0.
         -6    2    1    2    0  501 -0.31572342127E+02 -0.87219074918E+02  0.23669110679E+03  0.30716626515E+03  0.17240781478E+03 0.  0.
        -24    2    5    5    0    0 -0.10402981916E+02  0.22668186193E+02  0.92588246381E+02  0.12465304277E+03  0.79647529815E+02 0.  0.
          5    1    3    3  502    0 -0.53695310260E+02  0.40079626180E+02  0.44540097759E+03  0.45043721384E+03  0.47000000000E+01 0. -1.
        -13    1    4    4    0    0  0.18130905819E+02 -0.20320966421E+02  0.32578408449E+03  0.32692038959E+03  0.00000000000E+00 0.  1.
         14    1    4    4    0    0  0.67136746568E+02  0.67460415158E+02  0.56004084645E+03  0.56807041821E+03  0.00000000000E+00 0. -1.
         -5    1    5    5    0  501 -0.21169360211E+02 -0.10988726111E+03  0.14410286041E+03  0.18251322238E+03  0.47000000000E+01 0.  1.
         11    1    6    6    0    0  0.26496581151E+02 -0.10902965999E+02  0.55607002116E+02  0.62554633438E+02  0.00000000000E+00 0. -1.
        -12    1    6    6    0    0 -0.36899563067E+02  0.33571152192E+02  0.36981244265E+02  0.62098409331E+02  0.00000000000E+00 0.  1.
</event>
<event>
12    1  0.2576962E-002  0.2115057E+03  0.7818608E-02  0.1140379E+00
         -2   -1    0    0    0  501 -0.00000000000E+00  0.00000000000E+00  0.18586607016E+02  0.18586607016E+02  0.00000000000E+00 0.  1.
          2   -1    0    0  502    0  0.00000000000E+00 -0.00000000000E+00 -0.28991602311E+04  0.28991602311E+04  0.00000000000E+00 0. -1.
          6    2    1    2  502    0  0.90239152778E+02  0.74508927272E+02 -0.86119736052E+03  0.88771429516E+03  0.18077912252E+03 0.  0.
         24    2    3    3    0    0  0.11039641917E+03  0.10966679014E+03 -0.67112764128E+03  0.69331527541E+03  0.77843342728E+02 0.  0.
         -6    2    1    2    0  501 -0.90239152778E+02 -0.74508927272E+02 -0.20193762636E+04  0.20300325430E+04  0.17163026146E+03 0.  0.
        -24    2    5    5    0    0 -0.86119271193E+02 -0.39406139288E+02 -0.19260736753E+04  0.19301494006E+04  0.82143370243E+02 0.  0.
          5    1    3    3  502    0 -0.20157266389E+02 -0.35157862865E+02 -0.19006971924E+03  0.19439901975E+03  0.47000000000E+01 0. -1.
        -11    1    4    4    0    0  0.47253832554E+02  0.54665579135E+01 -0.26760171719E+03  0.27179677516E+03  0.00000000000E+00 0.  1.
         12    1    4    4    0    0  0.63142586613E+02  0.10420023222E+03 -0.40352592409E+03  0.42151850025E+03  0.00000000000E+00 0. -1.
         -5    1    5    5    0  501 -0.41198815851E+01 -0.35102787985E+02 -0.93302588276E+02  0.99883142359E+02  0.47000000000E+01 0.  1.
         13    1    6    6    0    0 -0.92836979199E+02 -0.11087155488E+02 -0.12738002427E+04  0.12772269525E+04  0.00000000000E+00 0. -1.
        -14    1    6    6    0    0  0.67177080061E+01 -0.28318983799E+02 -0.65227343258E+03  0.65292244814E+03  0.00000000000E+00 0.  1.
</event>
<event>
12    1  0.2576962E-002  0.2394054E+03  0.7818608E-02  0.1120190E+00
         -1   -1    0    0    0  501 -0.00000000000E+00  0.00000000000E+00  0.57302810346E+03  0.57302810346E+03  0.00000000000E+00 0.  1.
          1   -1    0    0  502    0  0.00000000000E+00 -0.00000000000E+00 -0.11011256885E+03  0.11011256885E+03  0.00000000000E+00 0. -1.
          6    2    1    2  502    0 -0.10590892047E+03 -0.12943221848E+03  0.33454460251E+03  0.41117268347E+03  0.17080247641E+03 0.  0.
         24    2    3    3    0    0 -0.10238912772E+03 -0.46468342087E+02  0.27950370592E+03  0.31143811562E+03  0.78921086827E+02 0.  0.
         -6    2    1    2    0  501  0.10590892047E+03  0.12943221848E+03  0.12837093211E+03  0.27196798884E+03  0.17180830052E+03 0.  0.
        -24    2    5    5    0    0  0.10304271776E+03  0.30169012818E+02  0.43426407682E+02  0.14120460961E+03  0.80776963766E+02 0.  0.
          5    1    3    3  502    0 -0.35197927458E+01 -0.82963876391E+02  0.55040896588E+02  0.99734567849E+02  0.47000000000E+01 0. -1.
        -13    1    4    4    0    0 -0.45160734969E+02 -0.41237879105E+02  0.22149862514E+03  0.22978619539E+03  0.00000000000E+00 0.  1.
         14    1    4    4    0    0 -0.57228392752E+02 -0.52304629819E+01  0.58005080784E+02  0.81651920226E+02  0.00000000000E+00 0. -1.
         -5    1    5    5    0  501  0.28662027106E+01  0.99263205660E+02  0.84944524424E+02  0.13076337922E+03  0.47000000000E+01 0.  1.
         11    1    6    6    0    0  0.10040255662E+03  0.27314465611E+02  0.66937960834E+01  0.10426677474E+03  0.00000000000E+00 0. -1.
        -12    1    6    6    0    0  0.26401611323E+01  0.28545472073E+01  0.36732611598E+02  0.36937834877E+02  0.00000000000E+00 0.  1.
</event>
<event>
12    1  0.2576962E-002  0.1864589E+03  0.7818608E-02  0.1161695E+00
          1   -1    0    0  502    0  0.00000000000E+00  0.00000000000E+00  0.15257151652E+03  0.15257151652E+03  0.00000000000E+00 0.  1.
         -1   -1    0    0    0  501 -0.00000000000E+00 -0.00000000000E+00 -0.24562810219E+03  0.24562810219E+03  0.00000000000E+00 0. -1.
          6    2    1    2  502    0  0.47319282131E+02  0.51526667962E+02 -0.10025444468E+03  0.21248373314E+03  0.17379376053E+03 0.  0.
         24    2    3    3    0    0  0.42989019311E+01 -0.14147531774E+02  0.36172863943E+01  0.82194515866E+02  0.80772646759E+02 0.  0.
         -6    2    1    2    0  501 -0.47319282131E+02 -0.51526667962E+02  0.71978590093E+01  0.18571588557E+03  0.17188504590E+03 0.  0.
        -24    2    5    5    0    0 -0.72815583066E+02 -0.78687344495E+02  0.36671999304E+02  0.13798142572E+03  0.78741545506E+02 0.  0.
          5    1    3    3  502    0  0.43020380200E+02  0.65674199736E+02 -0.10387173107E+03  0.13028921728E+03  0.47000000000E+01 0. -1.
        -11    1    4    4    0    0  0.30352422681E+02 -0.12022813668E+02  0.30514812674E+02  0.44687485985E+02  0.00000000000E+00 0.  1.
         12    1    4    4    0    0 -0.26053520750E+02 -0.21247181061E+01 -0.26897526279E+02  0.37507029881E+02  0.00000000000E+00 0. -1.
         -5    1    5    5    0  501  0.25496300936E+02  0.27160676533E+02 -0.29474140295E+02  0.47734459851E+02  0.47000000000E+01 0.  1.
         11    1    6    6    0    0 -0.75113500614E+02 -0.29569289439E+02  0.81454552750E+01  0.81134020571E+02  0.00000000000E+00 0. -1.
        -12    1    6    6    0    0  0.22979175471E+01 -0.49118055055E+02  0.28526544029E+02  0.56847405145E+02  0.00000000000E+00 0.  1.
</event>
<event>
12    1  0.2576962E-002  0.3770757E+03  0.7818608E-02  0.1052020E+00
          2   -1    0    0  502    0  0.00000000000E+00  0.00000000000E+00  0.39979853604E+04  0.39979853604E+04  0.00000000000E+00 0.  1.
         -2   -1    0    0    0  501 -0.00000000000E+00 -0.00000000000E+00 -0.35869179828E+02  0.35869179828E+02  0.00000000000E+00 0. -1.
          6    2    1    2  502    0  0.33380207526E+03  0.29203832207E+02  0.21661147131E+04  0.21986623570E+04  0.17258771741E+03 0.  0.
         24    2    3    3    0    0  0.57267158954E+02  0.20340766521E+02  0.56391927811E+03  0.57274648710E+03  0.79626076002E+02 0.  0.
         -6    2    1    2    0  501 -0.33380207526E+03 -0.29203832207E+02  0.17960014674E+04  0.18351921832E+04  0.17329855512E+03 0.  0.
        -24    2    5    5    0    0 -0.20960838985E+03 -0.68286125563E+02  0.91434766256E+03  0.94396436794E+03  0.80239690129E+02 0.  0.
          5    1    3    3  502    0  0.27653491631E+03  0.88630656863E+01  0.16021954350E+04  0.16259158699E+04  0.47000000000E+01 0. -1.
        -13    1    4    4    0    0  0.37333253194E+02  0.36680144234E+02  0.51312176383E+03  0.51578401419E+03  0.00000000000E+00 0.  1.
         14    1    4    4    0    0  0.19933905760E+02 -0.16339377713E+02  0.50797514283E+02  0.56962472911E+02  0.00000000000E+00 0. -1.
         -5    1    5    5    0  501 -0.12419368541E+03  0.39082293356E+02  0.88165380486E+03  0.89122781531E+03  0.47000000000E+01 0.  1.
         11    1    6    6    0    0 -0.11671239710E+03 -0.70100583987E+02  0.43921855699E+03  0.45983564055E+03  0.00000000000E+00 0. -1.
        -12    1    6    6    0    0 -0.92895992751E+02  0.18144584245E+01  0.47512910557E+03  0.48412872739E+03  0.00000000000E+00 0.  1.
</event>
<event>
12    1  0.2576962E-002  0.2421172E+03  0.7818608E-02  0.1118390E+00
          2   -1    0    0  502    0  0.00000000000E+00  0.00000000000E+00  0.10495936825E+04  0.10495936825E+04  0.00000000000E+00 0.  1.
         -2   -1    0    0    0  501 -0.00000000000E+00 -0.00000000000E+00 -0.63080583050E+02  0.63080583050E+02  0.00000000000E+00 0. -1.
          6    2    1    2  502    0  0.13622277777E+03 -0.10602625864E+03  0.67556961911E+03  0.71655918272E+03  0.16511977282E+03 0.  0.
         24    2    3    3    0    0  0.18935721229E+02 -0.62807254354E+02  0.41647702576E+03  0.42885239119E+03  0.78472592087E+02 0.  0.
         -6    2    1    2    0  501 -0.13622277777E+03  0.10602625864E+03  0.31094348031E+03  0.39611508279E+03  0.17442218370E+03 0.  0.
        -24    2    5    5    0    0  0.25678651346E+01  0.46246928529E+02  0.15123348372E+03  0.17619286046E+03  0.77633659895E+02 0.  0.
          5    1    3    3  502    0  0.11728705654E+03 -0.43219004285E+02  0.25909259335E+03  0.28770679153E+03  0.47000000000E+01 0. -1.
        -11    1    4    4    0    0  0.47014294145E+02 -0.50902402223E+02  0.32881171874E+03  0.33603354711E+03  0.00000000000E+00 0.  1.
         12    1    4    4    0    0 -0.28078572915E+02 -0.11904852131E+02  0.87665307019E+02  0.92818844078E+02  0.00000000000E+00 0. -1.
         -5    1    5    5    0  501 -0.13879064291E+03  0.59779330109E+02  0.15970999658E+03  0.21992222233E+03  0.47000000000E+01 0.  1.
         11    1    6    6    0    0 -0.17814588420E+02  0.71272782762E+01  0.56052009971E+00  0.19195620308E+02  0.00000000000E+00 0. -1.
        -12    1    6    6    0    0  0.20382453555E+02  0.39119650253E+02  0.15067296362E+03  0.15699724015E+03  0.00000000000E+00 0.  1.
</event>
<event>
12    1  0.2576962E-002  0.1869094E+03  0.7818608E-02  0.1161279E+00
          2   -1    0    0  502    0  0.00000000000E+00  0.00000000000E+00  0.55683241173E+03  0.55683241173E+03  0.00000000000E+00 0. -1.
         -2   -1    0    0    0  501 -0.00000000000E+00 -0.00000000000E+00 -0.85970796211E+02  0.85970796211E+02  0.00000000000E+00 0.  1.
          6    2    1    2  502    0 -0.63529196124E+02  0.18009670753E+02  0.70191419837E+02  0.20150353995E+03  0.17696478235E+03 0.  0.
         24    2    3    3    0    0  0.61262789561E+01 -0.30115921686E+02  0.80221255825E+02  0.11611826331E+03  0.78124907400E+02 0.  0.
         -6    2    1    2    0  501  0.63529196124E+02 -0.18009670753E+02  0.40067019569E+03  0.44129966799E+03  0.17276713883E+03 0.  0.
        -24    2    5    5    0    0  0.20516985280E+02  0.53421205787E+02  0.26230789265E+03  0.27968705306E+03  0.78387787244E+02 0.  0.
          5    1    3    3  502    0 -0.69655475081E+02  0.48125592439E+02 -0.10029835988E+02  0.85385276636E+02  0.47000000000E+01 0. -1.
        -11    1    4    4    0    0 -0.88729541213E+01 -0.73824111916E+01 -0.13939285426E+02  0.18097872472E+02  0.00000000000E+00 0.  1.
         12    1    4    4    0    0  0.14999233077E+02 -0.22733510494E+02  0.94160541251E+02  0.98020390843E+02  0.00000000000E+00 0. -1.
         -5    1    5    5    0  501  0.43012210844E+02 -0.71430876540E+02  0.13836230303E+03  0.16161261493E+03  0.47000000000E+01 0.  1.
         11    1    6    6    0    0  0.42896722335E+02  0.39398133494E+02  0.23328722463E+03  0.24044806276E+03  0.00000000000E+00 0. -1.
        -12    1    6    6    0    0 -0.22379737055E+02  0.14023072293E+02  0.29020668019E+02  0.39238990296E+02  0.00000000000E+00 0.  1.
</event>
<event>
12    1  0.2576962E-002  0.1721355E+03  0.7818608E-02  0.1175639E+00
         -2   -1    0    0    0  501 -0.00000000000E+00  0.00000000000E+00  0.87695881420E+02  0.87695881420E+02  0.00000000000E+00 0. -1.
          2   -1    0    0  502    0  0.00000000000E+00 -0.00000000000E+00 -0.39683662969E+03  0.39683662969E+03  0.00000000000E+00 0.  1.
          6    2    1    2  502    0 -0.19947455786E+02 -0.28890681378E+02 -0.61868116411E+02  0.18374332315E+03  0.16941479425E+03 0.  0.
         24    2    3    3    0    0 -0.12747366127E+02 -0.53199679107E+02 -0.98731991578E+02  0.13875661451E+03  0.80701243540E+02 0.  0.
         -6    2    1    2    0  501  0.19947455786E+02  0.28890681378E+02 -0.24727263186E+03  0.30078918796E+03  0.16762400982E+03 0.  0.
        -24    2    5    5    0    0  0.20657064051E+01 -0.26418370757E+02 -0.22332794177E+03  0.23774724643E+03  0.77111517647E+02 0.  0.
          5    1    3    3  502    0 -0.72000896588E+01  0.24308997729E+02  0.36863875167E+02  0.44986708637E+02  0.47000000000E+01 0. -1.
        -11    1    4    4    0    0 -0.44764610976E+02 -0.14675415214E+02 -0.53247355571E+02  0.71095141064E+02  0.00000000000E+00 0.  1.
         12    1    4    4    0    0  0.32017244849E+02 -0.38524263893E+02 -0.45484636007E+02  0.67661473446E+02  0.00000000000E+00 0. -1.
         -5    1    5    5    0  501  0.17881749380E+02  0.55309052135E+02 -0.23944690093E+02  0.63041941536E+02  0.47000000000E+01 0.  1.
         11    1    6    6    0    0 -0.16958928433E+02 -0.41261529606E+02 -0.19719365131E+03  0.20217679193E+03  0.00000000000E+00 0. -1.
        -12    1    6    6    0    0  0.19024634838E+02  0.14843158849E+02 -0.26134290455E+02  0.35570454494E+02  0.00000000000E+00 0.  1.
</event>
<event>
12    1  0.2576962E-002  0.1756783E+03  0.7818608E-02  0.1172052E+00
         -2   -1    0    0    0  501 -0.00000000000E+00  0.00000000000E+00  0.67097108485E+03  0.67097108485E+03  0.00000000000E+00 0. -1.
          2   -1    0    0  502    0  0.00000000000E+00 -0.00000000000E+00 -0.49525371474E+02  0.49525371474E+02  0.00000000000E+00 0.  1.
          6    2    1    2  502    0  0.13362221620E+02  0.11016762129E+02  0.41132983167E+03  0.44839809998E+03  0.17767584988E+03 0.  0.
         24    2    3    3    0    0  0.74835891223E+02 -0.94753732992E+01  0.19012151616E+03  0.21784626521E+03  0.74970734568E+02 0.  0.
         -6    2    1    2    0  501 -0.13362221620E+02 -0.11016762129E+02  0.21011588171E+03  0.27209835634E+03  0.17201428361E+03 0.  0.
        -24    2    5    5    0    0 -0.28683498370E+02 -0.63852855363E+02  0.17992270364E+03  0.20916893340E+03  0.80495547708E+02 0.  0.
          5    1    3    3  502    0 -0.61473669603E+02  0.20492135428E+02  0.22120831551E+03  0.23055183478E+03  0.47000000000E+01 0. -1.
        -11    1    4    4    0    0  0.79229653136E+02 -0.38556605037E+01  0.19409662602E+03  0.20968000449E+03  0.00000000000E+00 0.  1.
         12    1    4    4    0    0 -0.43937619134E+01 -0.56197127955E+01 -0.39751098533E+01  0.81662607111E+01  0.00000000000E+00 0. -1.
         -5    1    5    5    0  501  0.15321276750E+02  0.52836093234E+02  0.30193178073E+02  0.62929422941E+02  0.47000000000E+01 0.  1.
         11    1    6    6    0    0  0.21329042005E+02  0.69994815820E-01  0.17472995621E+02  0.27572422964E+02  0.00000000000E+00 0. -1.
        -12    1    6    6    0    0 -0.50012540375E+02 -0.63922850179E+02  0.16244970801E+03  0.18159651044E+03  0.00000000000E+00 0.  1.
</event>
<event>
12    1  0.2576962E-002  0.3214143E+03  0.7818608E-02  0.1075000E+00
         -1   -1    0    0    0  501 -0.00000000000E+00  0.00000000000E+00  0.53414974588E+02  0.53414974588E+02  0.00000000000E+00 0. -1.
          1   -1    0    0  502    0  0.00000000000E+00 -0.00000000000E+00 -0.19347427269E+04  0.19347427269E+04  0.00000000000E+00 0.  1.
          6    2    1    2  502    0  0.16304170309E+03 -0.21286812483E+03 -0.93393151583E+03  0.98873782989E+03  0.18297263311E+03 0.  0.
         24    2    3    3    0    0  0.59886117713E+02 -0.47376401589E+02 -0.51734528355E+03  0.52874352103E+03  0.78055737092E+02 0.  0.
         -6    2    1    2    0  501 -0.16304170309E+03  0.21286812483E+03 -0.94739623644E+03  0.99941987156E+03  0.17142058027E+03 0.  0.
        -24    2    5    5    0    0 -0.11304386164E+03  0.22079741043E+03 -0.70742463086E+03  0.75412185036E+03  0.81974055280E+02 0.  0.
          5    1    3    3  502    0  0.10315558538E+03 -0.16549172324E+03 -0.41658623228E+03  0.45999430886E+03  0.47000000000E+01 0. -1.
        -13    1    4    4    0    0  0.66258074803E+02 -0.61389552165E+02 -0.47865889838E+03  0.48710691906E+03  0.00000000000E+00 0.  1.
         14    1    4    4    0    0 -0.63719570896E+01  0.14013150577E+02 -0.38686385167E+02  0.41636601969E+02  0.00000000000E+00 0. -1.
         -5    1    5    5    0  501 -0.49997841451E+02 -0.79292856045E+01 -0.23997160558E+03  0.24529802120E+03  0.47000000000E+01 0.  1.
         13    1    6    6    0    0  0.11601335565E+02  0.20151953302E+02 -0.41865166890E+02  0.47889293245E+02  0.00000000000E+00 0. -1.
        -14    1    6    6    0    0 -0.12464519720E+03  0.20064545713E+03 -0.66555946397E+03  0.70623255712E+03  0.00000000000E+00 0.  1.
</event>
<event>
12    1  0.2576962E-002  0.2654932E+03  0.7818608E-02  0.1103887E+00
          2   -1    0    0  502    0  0.00000000000E+00  0.00000000000E+00  0.14989479523E+03  0.14989479523E+03  0.00000000000E+00 0.  1.
         -2   -1    0    0    0  501 -0.00000000000E+00 -0.00000000000E+00 -0.66130648847E+03  0.66130648847E+03  0.00000000000E+00 0. -1.
          6    2    1    2  502    0 -0.20082289696E+03  0.16280234033E+02 -0.47367078130E+03  0.54296490050E+03  0.17277729064E+03 0.  0.
         24    2    3    3    0    0 -0.18403002992E+03 -0.32526682119E+02 -0.30548019209E+03  0.36696978765E+03  0.80147615887E+02 0.  0.
         -6    2    1    2    0  501  0.20082289696E+03 -0.16280234033E+02 -0.37740911950E+02  0.26823638320E+03  0.17300722203E+03 0.  0.
        -24    2    5    5    0    0  0.12856846153E+03  0.53268702236E+02 -0.23897990646E+02  0.16688810031E+03  0.88955720046E+02 0.  0.
          5    1    3    3  502    0 -0.16792867043E+02  0.48806916152E+02 -0.16819058921E+03  0.17599511285E+03  0.47000000000E+01 0. -1.
        -11    1    4    4    0    0  0.64507400080E+01 -0.69137338318E+01 -0.62563199445E+01  0.11338134829E+02  0.00000000000E+00 0.  1.
         12    1    4    4    0    0 -0.19048076993E+03 -0.25612948287E+02 -0.29922387214E+03  0.35563165282E+03  0.00000000000E+00 0. -1.
         -5    1    5    5    0  501  0.72254435431E+02 -0.69548936269E+02 -0.13842921303E+02  0.10134828290E+03  0.47000000000E+01 0.  1.
         13    1    6    6    0    0  0.18622326187E+02 -0.61879494868E+01 -0.36317060260E+02  0.41279663484E+02  0.00000000000E+00 0. -1.
        -14    1    6    6    0    0  0.10994613534E+03  0.59456651723E+02  0.12419069613E+02  0.12560843682E+03  0.00000000000E+00 0.  1.
</event>
<event>
12    1  0.2576962E-002  0.2317166E+03  0.7818608E-02  0.1125437E+00
         -2   -1    0    0    0  501 -0.00000000000E+00  0.00000000000E+00  0.19247870982E+03  0.19247870982E+03  0.00000000000E+00 0.  1.
          2   -1    0    0  502    0  0.00000000000E+00 -0.00000000000E+00 -0.27934345797E+03  0.27934345797E+03  0.00000000000E+00 0. -1.
          6    2    1    2  502    0  0.15137827858E+03  0.21798040824E+02 -0.34696249182E+02  0.23467879500E+03  0.17458456204E+03 0.  0.
         24    2    3    3    0    0  0.18980399915E+02  0.50185014323E+02 -0.17967302031E+01  0.95253234612E+02  0.78683919711E+02 0.  0.
         -6    2    1    2    0  501 -0.15137827858E+03 -0.21798040824E+02 -0.52168498967E+02  0.23714337280E+03  0.17356523030E+03 0.  0.
        -24    2    5    5    0    0 -0.71748643527E+01 -0.97690363218E+00 -0.41832602911E+02  0.91002806304E+02  0.80492925588E+02 0.  0.
          5    1    3    3  502    0  0.13239787867E+03 -0.28386973499E+02 -0.32899518979E+02  0.13942556039E+03  0.47000000000E+01 0. -1.
        -13    1    4    4    0    0 -0.11308796173E+01  0.16480734985E+02  0.36718592642E+02  0.40263489168E+02  0.00000000000E+00 0.  1.
         14    1    4    4    0    0  0.20111279532E+02  0.33704279338E+02 -0.38515322845E+02  0.54989745444E+02  0.00000000000E+00 0. -1.
         -5    1    5    5    0  501 -0.14420341423E+03 -0.20821137192E+02 -0.10335896057E+02  0.14614056650E+03  0.47000000000E+01 0.  1.
         11    1    6    6    0    0  0.30636076720E+02  0.20395210787E+02 -0.13785733314E+02  0.39301148365E+02  0.00000000000E+00 0. -1.
        -12    1    6    6    0    0 -0.37810941072E+02 -0.21372114419E+02 -0.28046869597E+02  0.51701657940E+02  0.00000000000E+00 0.  1.
</event>
<event>
12    1  0.2576962E-002  0.1807137E+03  0.7818608E-02  0.1167114E+00
          1   -1    0    0  502    0  0.00000000000E+00  0.00000000000E+00  0.10083595873E+04  0.10083595873E+04  0.00000000000E+00 0.  1.
         -1   -1    0    0    0  501 -0.00000000000E+00 -0.00000000000E+00 -0.54676448842E+02  0.54676448842E+02  0.00000000000E+00 0. -1.
          6    2    1    2  502    0  0.46058657044E+02  0.32828176659E+02  0.81667193243E+03  0.83649139426E+03  0.17194684754E+03 0.  0.
         24    2    3    3    0    0 -0.35509703683E+02  0.43620476298E+02  0.47530387546E+03  0.48531606551E+03  0.80338187711E+02 0.  0.
         -6    2    1    2    0  501 -0.46058657044E+02 -0.32828176659E+02  0.13701120605E+03  0.22654464190E+03  0.17132225518E+03 0.  0.
        -24    2    5    5    0    0 -0.88784510602E+02 -0.40905864583E+02  0.66041476815E+02  0.14318074041E+03  0.81137344575E+02 0.  0.
          5    1    3    3  502    0  0.81568360727E+02 -0.10792299639E+02  0.34136805697E+03  0.35117532875E+03  0.47000000000E+01 0. -1.
        -11    1    4    4    0    0 -0.28602738011E+02 -0.14681145320E+02  0.26594110832E+03  0.26787744538E+03  0.00000000000E+00 0.  1.
         12    1    4    4    0    0 -0.69069656721E+01  0.58301621618E+02  0.20936276714E+03  0.21743862013E+03  0.00000000000E+00 0. -1.
         -5    1    5    5    0  501  0.42725853558E+02  0.80776879243E+01  0.70969729231E+02  0.83363901489E+02  0.47000000000E+01 0.  1.
         11    1    6    6    0    0 -0.65486218443E+02 -0.56141945176E+02  0.74615987892E+02  0.11405221814E+03  0.00000000000E+00 0. -1.
        -12    1    6    6    0    0 -0.23298292159E+02  0.15236080593E+02 -0.85745110768E+01  0.29128522269E+02  0.00000000000E+00 0.  1.
</event>
<event>
12    1  0.2576962E-002  0.2064747E+03  0.7818608E-02  0.1144388E+00
          1   -1    0    0  502    0  0.00000000000E+00  0.00000000000E+00  0.13787252094E+04  0.13787252094E+04  0.00000000000E+00 0.  1.
         -1   -1    0    0    0  501 -0.00000000000E+00 -0.00000000000E+00 -0.32024895048E+02  0.32024895048E+02  0.00000000000E+00 0. -1.
          6    2    1    2  502    0  0.97655049148E+02  0.59944427798E+02  0.80656088274E+03  0.83275010099E+03  0.17263380342E+03 0.  0.
         24    2    3    3    0    0  0.18904509002E+02  0.91098907013E+02  0.51627709783E+03  0.53032818557E+03  0.77778861771E+02 0.  0.
         -6    2    1    2    0  501 -0.97655049148E+02 -0.59944427798E+02  0.54013943157E+03  0.57800000342E+03  0.17089047769E+03 0.  0.
        -24    2    5    5    0    0 -0.90824507780E+02 -0.86653578590E+02  0.28965574590E+03  0.32595992363E+03  0.81187971926E+02 0.  0.
          5    1    3    3  502    0  0.78750540146E+02 -0.31154479215E+02  0.29028378491E+03  0.30242191542E+03  0.47000000000E+01 0. -1.
        -11    1    4    4    0    0 -0.29296521656E+02  0.33403918578E+02  0.15132129584E+03  0.15770936095E+03  0.00000000000E+00 0.  1.
         12    1    4    4    0    0  0.48201030658E+02  0.57694988436E+02  0.36495580200E+03  0.37261882462E+03  0.00000000000E+00 0. -1.
         -5    1    5    5    0  501 -0.68305413675E+01  0.26709150791E+02  0.25048368567E+03  0.25204007978E+03  0.47000000000E+01 0.  1.
         13    1    6    6    0    0 -0.34812615552E+02 -0.86679119052E+02  0.18608933977E+03  0.20821726695E+03  0.00000000000E+00 0. -1.
        -14    1    6    6    0    0 -0.56011892228E+02  0.25540462032E-01  0.10356640613E+03  0.11774265668E+03  0.00000000000E+00 0.  1.
</event>
<event>
12    1  0.2576962E-002  0.1772063E+03  0.7818608E-02  0.1170535E+00
          1   -1    0    0  502    0  0.00000000000E+00  0.00000000000E+00  0.20596510184E+04  0.20596510184E+04  0.00000000000E+00 0.  1.
         -1   -1    0    0    0  501 -0.00000000000E+00 -0.00000000000E+00 -0.16324276307E+02  0.16324276307E+02  0.00000000000E+00 0. -1.
          6    2    1    2  502    0 -0.20706888665E+02 -0.18306698652E+02  0.13213840773E+04  0.13341306692E+04  0.18189241918E+03 0.  0.
         24    2    3    3    0    0 -0.83739711512E+02  0.20507622871E+01  0.65490296123E+03  0.66434956233E+03  0.73796391689E+02 0.  0.
         -6    2    1    2    0  501  0.20706888665E+02  0.18306698652E+02  0.72194266478E+03  0.74184462555E+03  0.16842899624E+03 0.  0.
        -24    2    5    5    0    0  0.67362471149E+02  0.24258252381E+02  0.33535639648E+03  0.35237935469E+03  0.81124174095E+02 0.  0.
          5    1    3    3  502    0  0.63032822847E+02 -0.20357460939E+02  0.66648111608E+03  0.66978110683E+03  0.47000000000E+01 0. -1.
        -13    1    4    4    0    0 -0.62521323621E+02  0.13311768046E+01  0.21436544389E+03  0.22330076460E+03  0.00000000000E+00 0.  1.
         14    1    4    4    0    0 -0.21218387891E+02  0.71958548248E+00  0.44053751734E+03  0.44104879772E+03  0.00000000000E+00 0. -1.
         -5    1    5    5    0  501 -0.46655582484E+02 -0.59515537300E+01  0.38658626830E+03  0.38946527086E+03  0.47000000000E+01 0.  1.
         11    1    6    6    0    0  0.23185448076E+02  0.49346546318E+02  0.13296935229E+03  0.14371323977E+03  0.00000000000E+00 0. -1.
        -12    1    6    6    0    0  0.44177023073E+02 -0.25088293937E+02  0.20238704419E+03  0.20866611492E+03  0.00000000000E+00 0.  1.
</event>
<event>
12    1  0.2576962E-002  0.2179585E+03  0.7818608E-02  0.1135414E+00
          2   -1    0    0  502    0  0.00000000000E+00  0.00000000000E+00  0.94637299221E+03  0.94637299221E+03  0.00000000000E+00 0. -1.
         -2   -1    0    0    0  501 -0.00000000000E+00 -0.00000000000E+00 -0.60474608784E+02  0.60474608784E+02  0.00000000000E+00 0.  1.
          6    2    1    2  502    0  0.20002705931E+01  0.13243193772E+03  0.23732132514E+03  0.32298077082E+03  0.17450772975E+03 0.  0.
         24    2    3    3    0    0 -0.57995634398E+02  0.12280256636E+03  0.16771862905E+03  0.23046667076E+03  0.80878822221E+02 0.  0.
         -6    2    1    2    0  501 -0.20002705931E+01 -0.13243193772E+03  0.64857705828E+03  0.68386683017E+03  0.17169572407E+03 0.  0.
        -24    2    5    5    0    0  0.63972505774E+02 -0.93622237880E+02  0.45277410398E+03  0.47358252991E+03  0.80115032780E+02 0.  0.
          5    1    3    3  502    0  0.59995904991E+02  0.96293713634E+01  0.69602696088E+02  0.92514100067E+02  0.47000000000E+01 0. -1.
        -11    1    4    4    0    0 -0.56760286757E+02  0.38876727842E+02  0.10564826920E+03  0.12607413258E+03  0.00000000000E+00 0.  1.
         12    1    4    4    0    0 -0.12353476406E+01  0.83925838517E+02  0.62070359853E+02  0.10439253818E+03  0.00000000000E+00 0. -1.
         -5    1    5    5    0  501 -0.65972776367E+02 -0.38809699842E+02  0.19580295430E+03  0.21028430026E+03  0.47000000000E+01 0.  1.
         11    1    6    6    0    0  0.23567789051E+02 -0.94882841392E+02  0.34025778614E+03  0.35402479475E+03  0.00000000000E+00 0. -1.
        -12    1    6    6    0    0  0.40404716723E+02  0.12606035123E+01  0.11251631784E+03  0.11955773516E+03  0.00000000000E+00 0.  1.
</event>
<event>
12    1  0.2576962E-002  0.2105230E+03  0.7818608E-02  0.1141152E+00
          2   -1    0    0  502    0  0.00000000000E+00  0.00000000000E+00  0.58454762515E+03  0.58454762515E+03  0.00000000000E+00 0.  1.
         -2   -1    0    0    0  501 -0.00000000000E+00 -0.00000000000E+00 -0.89119567986E+02  0.89119567986E+02  0.00000000000E+00 0. -1.
          6    2    1    2  502    0 -0.47216269429E+02 -0.11491970937E+03  0.11562463420E+03  0.23844194306E+03  0.16748011367E+03 0.  0.
         24    2    3    3    0    0 -0.59820134800E+02 -0.13601724666E+03  0.11609460854E+03  0.21341646848E+03  0.99947441042E+02 0.  0.
         -6    2    1    2    0  501  0.47216269429E+02  0.11491970937E+03  0.37980342296E+03  0.43522525007E+03  0.17243683628E+03 0.  0.
        -24    2    5    5    0    0  0.20873998817E+02  0.70773352113E+02  0.92188685388E+02  0.14301446425E+03  0.80683282507E+02 0.  0.
          5    1    3    3  502    0  0.12603865371E+02  0.21097537291E+02 -0.46997433807E+00  0.25025474579E+02  0.47000000000E+01 0. -1.
        -13    1    4    4    0    0  0.19563046255E+02 -0.76766989740E+02  0.61657531328E+02  0.10038692476E+03  0.00000000000E+00 0.  1.
         14    1    4    4    0    0 -0.79383181055E+02 -0.59250256920E+02  0.54437077208E+02  0.11302954372E+03  0.00000000000E+00 0. -1.
         -5    1    5    5    0  501  0.26342270612E+02  0.44146357255E+02  0.28761473757E+03  0.29221078582E+03  0.47000000000E+01 0.  1.
         13    1    6    6    0    0  0.17245084947E+02  0.62886265741E+02  0.10731538731E+03  0.12557335596E+03  0.00000000000E+00 0. -1.
        -14    1    6    6    0    0  0.36289138697E+01  0.78870863720E+01 -0.15126701924E+02  0.17441108291E+02  0.00000000000E+00 0.  1.
</event>
<event>
12    1  0.2576962E-002  0.2273430E+03  0.7818608E-02  0.1128524E+00
         -2   -1    0    0    0  501 -0.00000000000E+00  0.00000000000E+00  0.20415747284E+03  0.20415747284E+03  0.00000000000E+00 0. -1.
          2   -1    0    0  502    0  0.00000000000E+00 -0.00000000000E+00 -0.77886997689E+03  0.77886997689E+03  0.00000000000E+00 0.  1.
          6    2    1    2  502    0 -0.81943922024E+02  0.12396173487E+03 -0.69105113286E+03  0.72740020194E+03  0.17169178047E+03 0.  0.
         24    2    3    3    0    0 -0.91125130541E+02  0.21358439850E+02 -0.35343800124E+03  0.37438965339E+03  0.80555691794E+02 0.  0.
         -6    2    1    2    0  501  0.81943922024E+02 -0.12396173487E+03  0.11633862881E+03  0.25562724780E+03  0.17242185243E+03 0.  0.
        -24    2    5    5    0    0  0.22646223205E+02 -0.12957070113E+03  0.12100643223E+03  0.19569765597E+03  0.79709459260E+02 0.  0.
          5    1    3    3  502    0  0.91812085170E+01  0.10260329502E+03 -0.33761313162E+03  0.35301054855E+03  0.47000000000E+01 0. -1.
        -13    1    4    4    0    0 -0.43693265512E+02  0.46166827302E+02 -0.24960103049E+03  0.25756776160E+03  0.00000000000E+00 0.  1.
         14    1    4    4    0    0 -0.47431865029E+02 -0.24808387452E+02 -0.10383697075E+03  0.11682189179E+03  0.00000000000E+00 0. -1.
         -5    1    5    5    0  501  0.59297698819E+02  0.56089662579E+01 -0.46678034170E+01  0.59929591827E+02  0.47000000000E+01 0.  1.
         11    1    6    6    0    0 -0.27470918643E+02 -0.67121996194E+02  0.45354893479E+02  0.85539932819E+02  0.00000000000E+00 0. -1.
        -12    1    6    6    0    0  0.50117141847E+02 -0.62448704934E+02  0.75651538748E+02  0.11015772315E+03  0.00000000000E+00 0.  1.
</event>
<event>
12    1  0.2576962E-002  0.1801406E+03  0.7818608E-02  0.1167667E+00
         -1   -1    0    0    0  501 -0.00000000000E+00  0.00000000000E+00  0.49829630119E+03  0.49829630119E+03  0.00000000000E+00 0.  1.
          1   -1    0    0  502    0  0.00000000000E+00 -0.00000000000E+00 -0.65897597942E+02  0.65897597942E+02  0.00000000000E+00 0. -1.
          6    2    1    2  502    0 -0.79074591376E+01  0.53854680723E+02  0.24662318233E+03  0.30532929674E+03  0.17158126599E+03 0.  0.
         24    2    3    3    0    0 -0.42451926692E+02  0.53410603740E+02  0.24936432710E+03  0.27035614536E+03  0.79088678259E+02 0.  0.
         -6    2    1    2    0  501  0.79074591376E+01 -0.53854680723E+02  0.18577552092E+03  0.25886460239E+03  0.17185890623E+03 0.  0.
        -24    2    5    5    0    0 -0.34965143020E+02 -0.67449599646E+02  0.18250538095E+03  0.21352515321E+03  0.80701717813E+02 0.  0.
          5    1    3    3  502    0  0.34544467555E+02  0.44407698313E+00 -0.27411447751E+01  0.34973151383E+02  0.47000000000E+01 0. -1.
        -13    1    4    4    0    0 -0.59487806111E+02  0.41462086404E+02  0.12706347933E+03  0.14629774934E+03  0.00000000000E+00 0.  1.
         14    1    4    4    0    0  0.17035879419E+02  0.11948517336E+02  0.12230084778E+03  0.12405839601E+03  0.00000000000E+00 0. -1.
         -5    1    5    5    0  501  0.42872602158E+02  0.13594918923E+02  0.32701399632E+01  0.45339449177E+02  0.47000000000E+01 0.  1.
         13    1    6    6    0    0 -0.13368483985E+01 -0.29454855107E+02  0.62877283784E+01  0.30148153861E+02  0.00000000000E+00 0. -1.
        -14    1    6    6    0    0 -0.33628294622E+02 -0.37994744539E+02  0.17621765258E+03  0.18337699935E+03  0.00000000000E+00 0.  1.
</event>
<event>
12    1  0.2576962E-002  0.1927156E+03  0.7818608E-02  0.1156035E+00
         -2   -1    0    0    0  501 -0.00000000000E+00  0.00000000000E+00  0.10644502365E+03  0.10644502365E+03  0.00000000000E+00 0. -1.
          2   -1    0    0  502    0  0.00000000000E+00 -0.00000000000E+00 -0.69666630217E+03  0.69666630217E+03  0.00000000000E+00 0.  1.
          6    2    1    2  502    0 -0.12992587993E+02 -0.85814443699E+02 -0.10250000695E+02  0.19147745198E+03  0.17036908761E+03 0.  0.
         24    2    3    3    0    0 -0.83540953438E+01 -0.12554958648E+03 -0.18784306051E+02  0.15030316930E+03  0.80035635644E+02 0.  0.
         -6    2    1    2    0  501  0.12992587993E+02  0.85814443699E+02 -0.57997127783E+03  0.61163387385E+03  0.17377107482E+03 0.  0.
        -24    2    5    5    0    0  0.14537284832E+02  0.40326354262E+02 -0.12552868641E+03  0.15489356332E+03  0.79981356249E+02 0.  0.
          5    1    3    3  502    0 -0.46384926490E+01  0.39735142784E+02  0.85343053561E+01  0.41174282678E+02  0.47000000000E+01 0. -1.
        -13    1    4    4    0    0 -0.23954209466E+02 -0.82140444404E+02 -0.45592861204E+02  0.96951357653E+02  0.00000000000E+00 0.  1.
         14    1    4    4    0    0  0.15600114122E+02 -0.43409142079E+02  0.26808555153E+02  0.53351811647E+02  0.00000000000E+00 0. -1.
         -5    1    5    5    0  501 -0.15446968396E+01  0.45488089437E+02 -0.45444259142E+03  0.45674031053E+03  0.47000000000E+01 0.  1.
         13    1    6    6    0    0  0.23380195447E+02 -0.38304314655E+01 -0.24301191754E+01  0.23816196664E+02  0.00000000000E+00 0. -1.
        -14    1    6    6    0    0 -0.88429106146E+01  0.44156785727E+02 -0.12309856723E+03  0.13107736665E+03  0.00000000000E+00 0.  1.
</event>
<event>
12    1  0.2576962E-002  0.1788802E+03  0.7818608E-02  0.1168891E+00
          2   -1    0    0  502    0  0.00000000000E+00  0.00000000000E+00  0.82405600895E+03  0.82405600895E+03  0.00000000000E+00 0.  1.
         -2   -1    0    0    0  501 -0.00000000000E+00 -0.00000000000E+00 -0.38906623172E+02  0.38906623172E+02  0.00000000000E+00 0. -1.
          6    2    1    2  502    0  0.49598763297E+02 -0.16152141981E+02  0.37115314712E+03  0.41152370805E+03  0.16992991101E+03 0.  0.
         24    2    3    3    0    0  0.17574573843E+01  0.32015043980E+02  0.11447239772E+03  0.14597528408E+03  0.84716008090E+02 0.  0.
         -6    2    1    2    0  501 -0.49598763297E+02  0.16152141981E+02  0.41399623866E+03  0.45143892407E+03  0.17228838480E+03 0.  0.
        -24    2    5    5    0    0 -0.86972320819E+02  0.30610086533E+02  0.37917556073E+03  0.39814366562E+03  0.79013357301E+02 0.  0.
          5    1    3    3  502    0  0.47841305912E+02 -0.48167185961E+02  0.25668074941E+03  0.26554842397E+03  0.47000000000E+01 0. -1.
        -13    1    4    4    0    0 -0.24562815128E+02 -0.10115454099E+02  0.83050542936E+02  0.87195452752E+02  0.00000000000E+00 0.  1.
         14    1    4    4    0    0  0.26320272513E+02  0.42130498078E+02  0.31421854780E+02  0.58779831331E+02  0.00000000000E+00 0. -1.
         -5    1    5    5    0  501  0.37373557523E+02 -0.14457944552E+02  0.34820677927E+02  0.53295258455E+02  0.47000000000E+01 0.  1.
         13    1    6    6    0    0 -0.32643693607E+02  0.52563297958E+02  0.21957012978E+03  0.22812179404E+03  0.00000000000E+00 0. -1.
        -14    1    6    6    0    0 -0.54328627212E+02 -0.21953211425E+02  0.15960543095E+03  0.17002187158E+03  0.00000000000E+00 0.  1.
</event>
<event>
12    1  0.2576962E-002  0.2423742E+03  0.7818608E-02  0.1118221E+00
         -1   -1    0    0    0  501 -0.00000000000E+00  0.00000000000E+00  0.29407333946E+02  0.29407333946E+02  0.00000000000E+00 0.  1.
          1   -1    0    0  502    0  0.00000000000E+00 -0.00000000000E+00 -0.33089740347E+04  0.33089740347E+04  0.00000000000E+00 0. -1.
          6    2    1    2  502    0 -0.16438723005E+03 -0.43375921811E+02 -0.26930138050E+04  0.27039526065E+04  0.17358488605E+03 0.  0.
         24    2    3    3    0    0 -0.18612155254E+03 -0.47567223862E+02 -0.19260141005E+04  0.19366191820E+04  0.63715520861E+02 0.  0.
         -6    2    1    2    0  501  0.16438723005E+03  0.43375921811E+02 -0.58655289581E+03  0.63442876213E+03  0.17190381799E+03 0.  0.
        -24    2    5    5    0    0  0.52704541914E+02  0.68099296972E+02 -0.19428150400E+03  0.22579297939E+03  0.76301269687E+02 0.  0.
          5    1    3    3  502    0  0.21734322482E+02  0.41913020508E+01 -0.76699970442E+03  0.76733342451E+03  0.47000000000E+01 0. -1.
        -11    1    4    4    0    0 -0.60831744832E+01 -0.14610974669E+02 -0.79776018529E+02  0.81330798132E+02  0.00000000000E+00 0.  1.
         12    1    4    4    0    0 -0.18003837805E+03 -0.32956249193E+02 -0.18462380820E+04  0.18552883839E+04  0.00000000000E+00 0. -1.
         -5    1    5    5    0  501  0.11168268814E+03 -0.24723375161E+02 -0.39227139181E+03  0.40863578275E+03  0.47000000000E+01 0.  1.
         13    1    6    6    0    0  0.25784684306E+02 -0.87684102200E+01 -0.86586948333E+02  0.90769127924E+02  0.00000000000E+00 0. -1.
        -14    1    6    6    0    0  0.26919857608E+02  0.76867707192E+02 -0.10769455567E+03  0.13502385146E+03  0.00000000000E+00 0.  1.
</event>
<event>
12    1  0.2576962E-002  0.2029502E+03  0.7818608E-02  0.1147274E+00
         -1   -1    0    0    0  501 -0.00000000000E+00  0.00000000000E+00  0.28240934247E+02  0.28240934247E+02  0.00000000000E+00 0.  1.
          1   -1    0    0  502    0  0.00000000000E+00 -0.00000000000E+00 -0.15155914133E+04  0.15155914133E+04  0.00000000000E+00 0. -1.
          6    2    1    2  502    0  0.77818906411E+02  0.83899784780E+02 -0.90546464864E+03  0.92872247373E+03  0.17194256947E+03 0.  0.
         24    2    3    3    0    0  0.38522436865E+02  0.16270203773E+02 -0.20625397149E+03  0.22513478638E+03  0.79976706683E+02 0.  0.
         -6    2    1    2    0  501 -0.77818906411E+02 -0.83899784780E+02 -0.58188583044E+03  0.61510987384E+03  0.16332201673E+03 0.  0.
        -24    2    5    5    0    0 -0.55035718995E+02 -0.63353807787E+02 -0.18831718010E+03  0.22031931756E+03  0.77682726796E+02 0.  0.
          5    1    3    3  502    0  0.39296469546E+02  0.67629581007E+02 -0.69921067715E+03  0.70358768735E+03  0.47000000000E+01 0. -1.
        -11    1    4    4    0    0 -0.24778742929E+02  0.36177154118E-01 -0.51623552763E+02  0.57262366435E+02  0.00000000000E+00 0.  1.
         12    1    4    4    0    0  0.63301179794E+02  0.16234026618E+02 -0.15463041872E+03  0.16787241994E+03  0.00000000000E+00 0. -1.
         -5    1    5    5    0  501 -0.22783187416E+02 -0.20545976992E+02 -0.39356865034E+03  0.39479055628E+03  0.47000000000E+01 0.  1.
         11    1    6    6    0    0 -0.25300847594E+02 -0.15233023073E+02 -0.14784363056E+03  0.15076444202E+03  0.00000000000E+00 0. -1.
        -12    1    6    6    0    0 -0.29734871400E+02 -0.48120784715E+02 -0.40473549541E+02  0.69554875538E+02  0.00000000000E+00 0.  1.
</event>
<event>
12    1  0.2576962E-002  0.2505326E+03  0.7818608E-02  0.1112969E+00
          2   -1    0    0  502    0  0.00000000000E+00  0.00000000000E+00  0.18914523327E+04  0.18914523327E+04  0.00000000000E+00 0. -1.
         -2   -1    0    0    0  501 -0.00000000000E+00 -0.00000000000E+00 -0.34744856051E+02  0.34744856051E+02  0.00000000000E+00 0.  1.
          6    2    1    2  502    0  0.76372940911E+02 -0.16533591381E+03  0.72559532918E+03  0.76775380456E+03  0.17259354616E+03 0.  0.
         24    2    3    3    0    0  0.73268833549E+02 -0.28258194785E+02  0.40255428309E+03  0.41678721926E+03  0.74126835616E+02 0.  0.
         -6    2    1    2    0  501 -0.76372940911E+02  0.16533591381E+03  0.11311121475E+04  0.11584433842E+04  0.17148642437E+03 0.  0.
        -24    2    5    5    0    0  0.24492806166E+02  0.98413679972E+02  0.58279426273E+03  0.59690346839E+03  0.79746146950E+02 0.  0.
          5    1    3    3  502    0  0.31041073628E+01 -0.13707771903E+03  0.32304104609E+03  0.35096658530E+03  0.47000000000E+01 0. -1.
        -13    1    4    4    0    0  0.74041836908E+00 -0.43089945431E+01 -0.21963438612E+01  0.48928089775E+01  0.00000000000E+00 0.  1.
         14    1    4    4    0    0  0.72528415179E+02 -0.23949200242E+02  0.40475062695E+03  0.41189441028E+03  0.00000000000E+00 0. -1.
         -5    1    5    5    0  501 -0.10086574708E+03  0.66922233841E+02  0.54831788478E+03  0.56153991584E+03  0.47000000000E+01 0.  1.
         11    1    6    6    0    0 -0.18056063614E+02  0.78682128950E+02  0.32488565641E+03  0.33476497516E+03  0.00000000000E+00 0. -1.
        -12    1    6    6    0    0  0.42548869780E+02  0.19731551022E+02  0.25790860631E+03  0.26213849324E+03  0.00000000000E+00 0.  1.
</event>
<event>
12    1  0.2576962E-002  0.1751209E+03  0.7818608E-02  0.1172610E+00
         -2   -1    0    0    0  501 -0.00000000000E+00  0.00000000000E+00  0.17374809180E+04  0.17374809180E+04  0.00000000000E+00 0. -1.
          2   -1    0    0  502    0  0.00000000000E+00 -0.00000000000E+00 -0.20614637629E+02  0.20614637629E+02  0.00000000000E+00 0.  1.
          6    2    1    2  502    0 -0.11056274954E+01 -0.32136640319E+02  0.11912372432E+04  0.12040222318E+04  0.17201563587E+03 0.  0.
         24    2    3    3    0    0 -0.57559475167E+02  0.13035000196E+01  0.90776882520E+03  0.91302100514E+03  0.79046337900E+02 0.  0.
         -6    2    1    2    0  501  0.11056274954E+01  0.32136640319E+02  0.52562903721E+03  0.55407332388E+03  0.17227123212E+03 0.  0.
        -24    2    5    5    0    0  0.50350528528E+02  0.59529858003E+02  0.25635457413E+03  0.27892559062E+03  0.77477982089E+02 0.  0.
          5    1    3    3  502    0  0.56453847671E+02 -0.33440140339E+02  0.28346841796E+03  0.29100122661E+03  0.47000000000E+01 0. -1.
        -13    1    4    4    0    0 -0.39872577559E+02  0.97421590992E+01  0.16620301650E+03  0.17119630487E+03  0.00000000000E+00 0.  1.
         14    1    4    4    0    0 -0.17686897608E+02 -0.84386590796E+01  0.74156580870E+03  0.74182470028E+03  0.00000000000E+00 0. -1.
         -5    1    5    5    0  501 -0.49244901033E+02 -0.27393217684E+02  0.26927446308E+03  0.27514773326E+03  0.47000000000E+01 0.  1.
         13    1    6    6    0    0 -0.78370504873E+01  0.17770045634E+02  0.14652492895E+03  0.14780645685E+03  0.00000000000E+00 0. -1.
        -14    1    6    6    0    0  0.58187579015E+02  0.41759812369E+02  0.10982964518E+03  0.13111913377E+03  0.00000000000E+00 0.  1.
</event>
<event>
12    1  0.2576962E-002  0.3183876E+03  0.7818608E-02  0.1076394E+00
          1   -1    0    0  502    0  0.00000000000E+00  0.00000000000E+00  0.23731522477E+03  0.23731522477E+03  0.00000000000E+00 0. -1.
         -1   -1    0    0    0  501 -0.00000000000E+00 -0.00000000000E+00 -0.47202614700E+03  0.47202614700E+03  0.00000000000E+00 0.  1.
          6    2    1    2  502    0 -0.13949104395E+01  0.26669114198E+03 -0.77776849588E+01  0.31779329739E+03  0.17264407461E+03 0.  0.
         24    2    3    3    0    0  0.54314542855E+02  0.21594295300E+03 -0.30096811826E+02  0.23905858272E+03  0.81619601628E+02 0.  0.
         -6    2    1    2    0  501  0.13949104395E+01 -0.26669114198E+03 -0.22693323727E+03  0.39154807438E+03  0.17517159982E+03 0.  0.
        -24    2    5    5    0    0  0.37659144340E+01 -0.28578001650E+03 -0.22271091093E+03  0.37130147392E+03  0.81118646117E+02 0.  0.
          5    1    3    3  502    0 -0.55709453295E+02  0.50748188975E+02  0.22319126867E+02  0.78734714674E+02  0.47000000000E+01 0. -1.
        -13    1    4    4    0    0 -0.13083987579E+02  0.11145213540E+03 -0.22746641070E+02  0.11449968950E+03  0.00000000000E+00 0.  1.
         14    1    4    4    0    0  0.67398530434E+02  0.10449081760E+03 -0.73501707560E+01  0.12455889321E+03  0.00000000000E+00 0. -1.
         -5    1    5    5    0  501 -0.23710039946E+01  0.19088874519E+02 -0.42223263455E+01  0.20246600458E+02  0.47000000000E+01 0.  1.
         11    1    6    6    0    0 -0.33024600572E+02 -0.65638006134E+02 -0.63850717852E+02  0.97344163987E+02  0.00000000000E+00 0. -1.
        -12    1    6    6    0    0  0.36790515006E+02 -0.22014201036E+03 -0.15886019307E+03  0.27395730993E+03  0.00000000000E+00 0.  1.
</event>
<event>
12    1  0.2576962E-002  0.1862363E+03  0.7818608E-02  0.1161900E+00
         -2   -1    0    0    0  501 -0.00000000000E+00  0.00000000000E+00  0.13493863018E+03  0.13493863018E+03  0.00000000000E+00 0.  1.
          2   -1    0    0  502    0  0.00000000000E+00 -0.00000000000E+00 -0.27057641750E+03  0.27057641750E+03  0.00000000000E+00 0. -1.
          6    2    1    2  502    0  0.40866378194E+02 -0.60158555910E+02 -0.22477368509E+02  0.18763750732E+03  0.17150361321E+03 0.  0.
         24    2    3    3    0    0 -0.25568740390E+02 -0.39740015114E+02  0.32771766411E+02  0.98726885352E+02  0.80249485551E+02 0.  0.
         -6    2    1    2    0  501 -0.40866378194E+02  0.60158555910E+02 -0.11316041881E+03  0.21787754036E+03  0.17139495178E+03 0.  0.
        -24    2    5    5    0    0  0.39515891722E+02  0.37846014124E+02 -0.88713478243E+02  0.13082065241E+03  0.79057797785E+02 0.  0.
          5    1    3    3  502    0  0.66435118584E+02 -0.20418540796E+02 -0.55249134920E+02  0.88910621969E+02  0.47000000000E+01 0. -1.
        -11    1    4    4    0    0 -0.42744556447E+02 -0.55115924628E+02  0.20993136186E+02  0.72839371362E+02  0.00000000000E+00 0.  1.
         12    1    4    4    0    0  0.17175816057E+02  0.15375909515E+02  0.11778630225E+02  0.25887513990E+02  0.00000000000E+00 0. -1.
         -5    1    5    5    0  501 -0.80382269916E+02  0.22312541786E+02 -0.24446940563E+02  0.87056887956E+02  0.47000000000E+01 0.  1.
         11    1    6    6    0    0  0.34223591948E+02 -0.14301233190E+02 -0.61354516747E+02  0.71694882954E+02  0.00000000000E+00 0. -1.
        -12    1    6    6    0    0  0.52922997746E+01  0.52147247314E+02 -0.27358961496E+02  0.59125769453E+02  0.00000000000E+00 0.  1.
</event>
<event>
12    1  0.2576962E-002  0.2431189E+03  0.7818608E-02  0.1117732E+00
          2   -1    0    0  502    0  0.00000000000E+00  0.00000000000E+00  0.22858540889E+04  0.22858540889E+04  0.00000000000E+00 0.  1.
         -2   -1    0    0    0  501 -0.00000000000E+00 -0.00000000000E+00 -0.25992256759E+02  0.25992256759E+02  0.00000000000E+00 0. -1.
          6    2    1    2  502    0 -0.17002678390E+03 -0.14753766601E+02  0.12152842122E+04  0.12394571354E+04  0.17381453683E+03 0.  0.
         24    2    3    3    0    0 -0.10809290159E+03 -0.21433073203E+02  0.10988911868E+04  0.11073592729E+04  0.80865733654E+02 0.  0.
         -6    2    1    2    0  501  0.17002678390E+03  0.14753766601E+02  0.10445776200E+04  0.10723892103E+04  0.17248024037E+03 0.  0.
        -24    2    5    5    0    0  0.19563556531E+03  0.21887109659E+02  0.86184190885E+03  0.88767016853E+03  0.80215536289E+02 0.  0.
          5    1    3    3  502    0 -0.61933882307E+02  0.66793066013E+01  0.11639302544E+03  0.13209786253E+03  0.47000000000E+01 0. -1.
        -11    1    4    4    0    0 -0.43283048665E+02 -0.34835402023E+02  0.76238667944E+03  0.76440851416E+03  0.00000000000E+00 0.  1.
         12    1    4    4    0    0 -0.64809852929E+02  0.13402328820E+02  0.33650450732E+03  0.34295075872E+03  0.00000000000E+00 0. -1.
         -5    1    5    5    0  501 -0.25608781408E+02 -0.71333430577E+01  0.18273571111E+03  0.18471904174E+03  0.47000000000E+01 0.  1.
         11    1    6    6    0    0  0.12759171694E+03  0.11658931573E+02  0.38185584445E+03  0.40277718761E+03  0.00000000000E+00 0. -1.
        -12    1    6    6    0    0  0.68043848371E+02  0.10228178086E+02  0.47998606440E+03  0.48489298092E+03  0.00000000000E+00 0.  1.
</event>
<event>
12    1  0.2576962E-002  0.1799972E+03  0.7818608E-02  0.1167806E+00
          2   -1    0    0  502    0  0.00000000000E+00  0.00000000000E+00  0.20713121463E+04  0.20713121463E+04  0.00000000000E+00 0. -1.
         -2   -1    0    0    0  501 -0.00000000000E+00 -0.00000000000E+00 -0.23947240408E+02  0.23947240408E+02  0.00000000000E+00 0.  1.
          6    2    1    2  502    0 -0.48688429944E+02  0.21655326299E+02  0.16408352124E+04  0.16506838528E+04  0.17198102043E+03 0.  0.
         24    2    3    3    0    0  0.19602356187E+02  0.58135682155E+02  0.10243338620E+04  0.10293220799E+04  0.80498903082E+02 0.  0.
         -6    2    1    2    0  501  0.48688429944E+02 -0.21655326299E+02  0.40652969352E+03  0.44457553390E+03  0.17187640112E+03 0.  0.
        -24    2    5    5    0    0  0.52249812083E+02 -0.25571786146E+02  0.41896388284E+03  0.43026745350E+03  0.78837727655E+02 0.  0.
          5    1    3    3  502    0 -0.68290786131E+02 -0.36480355856E+02  0.61650135035E+03  0.62136177290E+03  0.47000000000E+01 0. -1.
        -11    1    4    4    0    0 -0.75589489639E+01  0.26254806075E+02  0.90133102302E+02  0.94182953245E+02  0.00000000000E+00 0.  1.
         12    1    4    4    0    0  0.27161305151E+02  0.31880876080E+02  0.93420075970E+03  0.93513912665E+03  0.00000000000E+00 0. -1.
         -5    1    5    5    0  501 -0.35613821390E+01  0.39164598473E+01 -0.12434189328E+02  0.14308080399E+02  0.47000000000E+01 0.  1.
         11    1    6    6    0    0  0.11855896367E+01  0.18938651010E+02  0.30350647737E+02  0.35794412175E+02  0.00000000000E+00 0. -1.
        -12    1    6    6    0    0  0.51064222447E+02 -0.44510437157E+02  0.38861323511E+03  0.39447304132E+03  0.00000000000E+00 0.  1.
</event>
<event>
12    1  0.2576962E-002  0.1944572E+03  0.7818608E-02  0.1154502E+00
          2   -1    0    0  502    0  0.00000000000E+00  0.00000000000E+00  0.81602650900E+02  0.81602650900E+02  0.00000000000E+00 0. -1.
         -2   -1    0    0    0  501 -0.00000000000E+00 -0.00000000000E+00 -0.73649415725E+03  0.73649415725E+03  0.00000000000E+00 0.  1.
          6    2    1    2  502    0 -0.49949828196E+02 -0.74189835998E+02 -0.57665717259E+03  0.60859810536E+03  0.17279769109E+03 0.  0.
         24    2    3    3    0    0  0.28745639763E+02 -0.17354731410E+01 -0.22384120450E+03  0.23989251995E+03  0.81327809650E+02 0.  0.
         -6    2    1    2    0  501  0.49949828196E+02  0.74189835998E+02 -0.78234333759E+02  0.20949870279E+03  0.17253978785E+03 0.  0.
        -24    2    5    5    0    0  0.73378121422E+02 -0.90649949484E+00 -0.70868156806E+02  0.13034887594E+03  0.81137928025E+02 0.  0.
          5    1    3    3  502    0 -0.78695467959E+02 -0.72454362857E+02 -0.35281596809E+03  0.36870558541E+03  0.47000000000E+01 0. -1.
        -13    1    4    4    0    0  0.12912772263E+01  0.22351796728E+02 -0.18584623864E+03  0.18718999607E+03  0.00000000000E+00 0.  1.
         14    1    4    4    0    0  0.27454362536E+02 -0.24087269869E+02 -0.37994965866E+02  0.52702523878E+02  0.00000000000E+00 0. -1.
         -5    1    5    5    0  501 -0.23428293226E+02  0.75096335492E+02 -0.73661769528E+01  0.79149826852E+02  0.47000000000E+01 0.  1.
         13    1    6    6    0    0 -0.89832968708E+01  0.51960271236E+00  0.11000100390E+02  0.14211678938E+02  0.00000000000E+00 0. -1.
        -14    1    6    6    0    0  0.82361418293E+02 -0.14261022072E+01 -0.81868257195E+02  0.11613719700E+03  0.00000000000E+00 0.  1.
</event>
<event>
12    1  0.2576962E-002  0.2032787E+03  0.7818608E-02  0.1147002E+00
          1   -1    0    0  502    0  0.00000000000E+00  0.00000000000E+00  0.26861202191E+03  0.26861202191E+03  0.00000000000E+00 0. -1.
         -1   -1    0    0    0  501 -0.00000000000E+00 -0.00000000000E+00 -0.21263618932E+03  0.21263618932E+03  0.00000000000E+00 0.  1.
          6    2    1    2  502    0 -0.24958704120E+02 -0.10361035866E+03 -0.98628923277E+02  0.22516749266E+03  0.17208919755E+03 0.  0.
         24    2    3    3    0    0 -0.77121265003E+02 -0.74757188689E+02 -0.97683025700E+02  0.16536429127E+03  0.79164692506E+02 0.  0.
         -6    2    1    2    0  501  0.24958704120E+02  0.10361035866E+03  0.15460475587E+03  0.25608071857E+03  0.17411680147E+03 0.  0.
        -24    2    5    5    0    0 -0.23618685570E+02  0.34506861932E+02  0.14775247456E+02  0.92650496544E+02  0.81346424285E+02 0.  0.
          5    1    3    3  502    0  0.52162560883E+02 -0.28853169972E+02 -0.94589757713E+00  0.59803201398E+02  0.47000000000E+01 0. -1.
        -13    1    4    4    0    0 -0.77678262897E+02 -0.47219206771E+02 -0.35930362907E+02  0.97747414254E+02  0.00000000000E+00 0.  1.
         14    1    4    4    0    0  0.55699789424E+00 -0.27537981918E+02 -0.61752662793E+02  0.67616877012E+02  0.00000000000E+00 0. -1.
         -5    1    5    5    0  501  0.48577389689E+02  0.69103496729E+02  0.13982950841E+03  0.16343022203E+03  0.47000000000E+01 0.  1.
         13    1    6    6    0    0 -0.31365886533E+02  0.58245501723E+02  0.71388640908E+01  0.66538114561E+02  0.00000000000E+00 0. -1.
        -14    1    6    6    0    0  0.77472009630E+01 -0.23738639791E+02  0.76363833651E+01  0.26112381982E+02  0.00000000000E+00 0.  1.
</event>
<event>
12    1  0.2576962E-002  0.2274690E+03  0.7818608E-02  0.1128434E+00
          2   -1    0    0  502    0  0.00000000000E+00  0.00000000000E+00  0.56280902655E+03  0.56280902655E+03  0.00000000000E+00 0.  1.
         -2   -1    0    0    0  501 -0.00000000000E+00 -0.00000000000E+00 -0.21652513683E+03  0.21652513683E+03  0.00000000000E+00 0. -1.
          6    2    1    2  502    0  0.89875234657E+02 -0.11512616788E+03 -0.12249496803E+03  0.25820949586E+03  0.17417099134E+03 0.  0.
         24    2    3    3    0    0  0.85889833680E+02 -0.66291590414E+01 -0.79048743406E+02  0.14117467718E+03  0.79123804033E+02 0.  0.
         -6    2    1    2    0  501 -0.89875234657E+02  0.11512616788E+03  0.46877885775E+03  0.52112466751E+03  0.17460157297E+03 0.  0.
        -24    2    5    5    0    0 -0.77528115508E+02  0.15112156311E+03  0.35795165803E+03  0.40385200222E+03  0.78222213462E+02 0.  0.
          5    1    3    3  502    0  0.39854009768E+01 -0.10849700884E+03 -0.43446224624E+02  0.11703481868E+03  0.47000000000E+01 0. -1.
        -13    1    4    4    0    0 -0.37624412289E+01  0.19129636895E+02 -0.30019512696E+02  0.35794833625E+02  0.00000000000E+00 0.  1.
         14    1    4    4    0    0  0.89652274909E+02 -0.25758795936E+02 -0.49029230710E+02  0.10537984356E+03  0.00000000000E+00 0. -1.
         -5    1    5    5    0  501 -0.12347119149E+02 -0.35995395224E+02  0.11082719972E+03  0.11727266529E+03  0.47000000000E+01 0.  1.
         11    1    6    6    0    0 -0.70052676683E+02  0.53226206638E+02  0.15022500421E+03  0.17409181047E+03  0.00000000000E+00 0. -1.
        -12    1    6    6    0    0 -0.74754388252E+01  0.97895356471E+02  0.20772665382E+03  0.22976019175E+03  0.00000000000E+00 0.  1.
</event>
<event>
12    1  0.2576962E-002  0.1822373E+03  0.7818608E-02  0.1165655E+00
         -2   -1    0    0    0  501 -0.00000000000E+00  0.00000000000E+00  0.50211811164E+02  0.50211811164E+02  0.00000000000E+00 0.  1.
          2   -1    0    0  502    0  0.00000000000E+00 -0.00000000000E+00 -0.89224842410E+03  0.89224842410E+03  0.00000000000E+00 0. -1.
          6    2    1    2  502    0 -0.52999395369E+02 -0.18075081703E+02 -0.18418456586E+03  0.26026879653E+03  0.17515777932E+03 0.  0.
         24    2    3    3    0    0  0.53272677144E+00  0.48587113547E+02 -0.65393827400E+02  0.11383496874E+03  0.79505069305E+02 0.  0.
         -6    2    1    2    0  501  0.52999395369E+02  0.18075081703E+02 -0.65785204707E+03  0.68219143873E+03  0.17169798705E+03 0.  0.
        -24    2    5    5    0    0  0.20294328893E+02 -0.24005467775E+02 -0.16275805001E+03  0.18421498352E+03  0.80354558323E+02 0.  0.
          5    1    3    3  502    0 -0.53532122141E+02 -0.66662195250E+02 -0.11879073847E+03  0.14643382779E+03  0.47000000000E+01 0. -1.
        -13    1    4    4    0    0  0.24977149405E+01  0.41834482076E+02 -0.84038166935E+02  0.93908338141E+02  0.00000000000E+00 0.  1.
         14    1    4    4    0    0 -0.19649881691E+01  0.67526314708E+01  0.18644339536E+02  0.19926630598E+02  0.00000000000E+00 0. -1.
         -5    1    5    5    0  501  0.32705066477E+02  0.42080549478E+02 -0.49509399706E+03  0.49797645521E+03  0.47000000000E+01 0.  1.
         13    1    6    6    0    0 -0.18652333040E+02 -0.15764447997E+02 -0.13109230958E+03  0.13334774456E+03  0.00000000000E+00 0. -1.
        -14    1    6    6    0    0  0.38946661933E+02 -0.82410197781E+01 -0.31665740429E+02  0.50867238962E+02  0.00000000000E+00 0.  1.
</event>
<event>
12    1  0.2576962E-002  0.1737152E+03  0.7818608E-02  0.1174028E+00
          1   -1    0    0  502    0  0.00000000000E+00  0.00000000000E+00  0.42878458154E+02  0.42878458154E+02  0.00000000000E+00 0. -1.
         -1   -1    0    0    0  501 -0.00000000000E+00 -0.00000000000E+00 -0.70635229755E+03  0.70635229755E+03  0.00000000000E+00 0.  1.
          6    2    1    2  502    0 -0.85790317539E+01 -0.18257552105E+02 -0.35185389133E+03  0.39186006256E+03  0.17130735474E+03 0.  0.
         24    2    3    3    0    0 -0.12918560691E+01 -0.49447393826E+02 -0.81065438751E+02  0.11914338685E+03  0.71950174586E+02 0.  0.
         -6    2    1    2    0  501  0.85790317539E+01  0.18257552105E+02 -0.31161994806E+03  0.35737069315E+03  0.17378113330E+03 0.  0.
        -24    2    5    5    0    0  0.63809480570E+02  0.29573828641E+02 -0.24186902355E+03  0.26756121669E+03  0.90233690883E+02 0.  0.
          5    1    3    3  502    0 -0.72871756849E+01  0.31189841721E+02 -0.27078845258E+03  0.27271667571E+03  0.47000000000E+01 0. -1.
        -13    1    4    4    0    0 -0.31300864385E+02 -0.46666628886E+02 -0.61001480178E+02  0.82937922248E+02  0.00000000000E+00 0.  1.
         14    1    4    4    0    0  0.30009008316E+02 -0.27807649394E+01 -0.20063958573E+02  0.36205464607E+02  0.00000000000E+00 0. -1.
         -5    1    5    5    0  501 -0.55230448816E+02 -0.11316276536E+02 -0.69750924510E+02  0.89809476455E+02  0.47000000000E+01 0.  1.
         11    1    6    6    0    0 -0.25262575707E+01 -0.12296796677E+02  0.74979161966E+00  0.12575983989E+02  0.00000000000E+00 0. -1.
        -12    1    6    6    0    0  0.66335738141E+02  0.41870625318E+02 -0.24261881517E+03  0.25498523270E+03  0.00000000000E+00 0.  1.
</event>
<event>
12    1  0.2576962E-002  0.3842358E+03  0.7818608E-02  0.1049379E+00
         -2   -1    0    0    0  501 -0.00000000000E+00  0.00000000000E+00  0.27174351292E+03  0.27174351292E+03  0.00000000000E+00 0.  1.
          2   -1    0    0  502    0  0.00000000000E+00 -0.00000000000E+00 -0.54523497852E+03  0.54523497852E+03  0.00000000000E+00 0. -1.
          6    2    1    2  502    0 -0.32670026555E+03 -0.11024650067E+03 -0.16078027746E+03  0.41571739420E+03  0.16758072622E+03 0.  0.
         24    2    3    3    0    0 -0.10442944165E+03  0.34093249706E+01 -0.76238326163E+02  0.15210518396E+03  0.80041069655E+02 0.  0.
         -6    2    1    2    0  501  0.32670026555E+03  0.11024650067E+03 -0.11271118814E+03  0.40126109724E+03  0.17152055797E+03 0.  0.
        -24    2    5    5    0    0  0.32224708838E+03  0.63512959516E+02 -0.94952282782E+02  0.35084955715E+03  0.78755277585E+02 0.  0.
          5    1    3    3  502    0 -0.22227082391E+03 -0.11365582564E+03 -0.84541951296E+02  0.26361221025E+03  0.47000000000E+01 0. -1.
        -11    1    4    4    0    0 -0.70152470944E+02 -0.35453783646E+02 -0.35782971319E+02  0.86364118653E+02  0.00000000000E+00 0.  1.
         12    1    4    4    0    0 -0.34276970701E+02  0.38863108616E+02 -0.40455354844E+02  0.65741065304E+02  0.00000000000E+00 0. -1.
         -5    1    5    5    0  501  0.44531771725E+01  0.46733541152E+02 -0.17758905354E+02  0.50411540096E+02  0.47000000000E+01 0.  1.
         13    1    6    6    0    0  0.23267038027E+03  0.11516226742E+02 -0.79395922914E+02  0.24611347364E+03  0.00000000000E+00 0. -1.
        -14    1    6    6    0    0  0.89576708109E+02  0.51996732773E+02 -0.15556359868E+02  0.10473608350E+03  0.00000000000E+00 0.  1.
</event>
<event>
12    1  0.2576962E-002  0.1888955E+03  0.7818608E-02  0.1159461E+00
          4   -1    0    0  502    0  0.00000000000E+00  0.00000000000E+00  0.49913296583E+02  0.49913296583E+02  0.00000000000E+00 0.  1.
         -4   -1    0    0    0  501 -0.00000000000E+00 -0.00000000000E+00 -0.71560274855E+03  0.71560274855E+03  0.00000000000E+00 0. -1.
          6    2    1    2  502    0 -0.30265678228E+02 -0.74579218814E+02 -0.34647516947E+03  0.39503265797E+03  0.17183622042E+03 0.  0.
         24    2    3    3    0    0  0.40772323289E+02 -0.73465802823E+02 -0.17888783109E+03  0.21294684485E+03  0.79283643269E+02 0.  0.
         -6    2    1    2    0  501  0.30265678228E+02  0.74579218814E+02 -0.31921428250E+03  0.37048338716E+03  0.16994737672E+03 0.  0.
        -24    2    5    5    0    0 -0.28994835135E+02  0.59287363487E+01 -0.21960043697E+03  0.23568833752E+03  0.80304359449E+02 0.  0.
          5    1    3    3  502    0 -0.71038001517E+02 -0.11134159904E+01 -0.16758733838E+03  0.18208581312E+03  0.47000000000E+01 0. -1.
        -13    1    4    4    0    0  0.44857475826E+02 -0.13313249857E+02 -0.40078939812E+02  0.61609716569E+02  0.00000000000E+00 0.  1.
         14    1    4    4    0    0 -0.40851525367E+01 -0.60152552967E+02 -0.13880889128E+03  0.15133712828E+03  0.00000000000E+00 0. -1.
         -5    1    5    5    0  501  0.59260513363E+02  0.68650482465E+02 -0.99613845535E+02  0.13479504965E+03  0.47000000000E+01 0.  1.
         13    1    6    6    0    0  0.16510768803E+02 -0.11680183440E+02 -0.14592809504E+03  0.14732291436E+03  0.00000000000E+00 0. -1.
        -14    1    6    6    0    0 -0.45505603938E+02  0.17608919789E+02 -0.73672341924E+02  0.88365423161E+02  0.00000000000E+00 0.  1.
</event>
<event>
12    1  0.2576962E-002  0.1876558E+03  0.7818608E-02  0.1160593E+00
          2   -1    0    0  502    0  0.00000000000E+00  0.00000000000E+00  0.27845216737E+03  0.27845216737E+03  0.00000000000E+00 0.  1.
         -2   -1    0    0    0  501 -0.00000000000E+00 -0.00000000000E+00 -0.12997170840E+03  0.12997170840E+03  0.00000000000E+00 0. -1.
          6    2    1    2  502    0  0.69123858863E+02 -0.37243648184E+01  0.10859341397E+03  0.21888229049E+03  0.17698855549E+03 0.  0.
         24    2    3    3    0    0 -0.23884687682E+02 -0.12930737785E+02  0.95681590632E+02  0.12441455941E+03  0.74741778963E+02 0.  0.
         -6    2    1    2    0  501 -0.69123858863E+02  0.37243648184E+01  0.39887045008E+02  0.18954158528E+03  0.17188093970E+03 0.  0.
        -24    2    5    5    0    0  0.28248220278E+02  0.14901497859E+02  0.32599504086E+02  0.91147234057E+02  0.78899138285E+02 0.  0.
          5    1    3    3  502    0  0.93008546545E+02  0.92063729661E+01  0.12911823338E+02  0.94467731080E+02  0.47000000000E+01 0. -1.
        -13    1    4    4    0    0 -0.51103239934E+01  0.10762703859E+02  0.93336315965E+02  0.94093671857E+02  0.00000000000E+00 0.  1.
         14    1    4    4    0    0 -0.18774363688E+02 -0.23693441644E+02  0.23452746670E+01  0.30320887555E+02  0.00000000000E+00 0. -1.
         -5    1    5    5    0  501 -0.97372079141E+02 -0.11177133041E+02  0.72875409219E+01  0.98394351220E+02  0.47000000000E+01 0.  1.
         11    1    6    6    0    0 -0.24605870154E+02  0.19843248562E+02  0.16600579260E+02  0.35704097683E+02  0.00000000000E+00 0. -1.
        -12    1    6    6    0    0  0.52854090432E+02 -0.49417507033E+01  0.15998924825E+02  0.55443136374E+02  0.00000000000E+00 0.  1.
</event>
<event>
12    1  0.2576962E-002  0.4466309E+03  0.7818608E-02  0.1028732E+00
          1   -1    0    0  502    0  0.00000000000E+00  0.00000000000E+00  0.68865958057E+03  0.68865958057E+03  0.00000000000E+00 0. -1.
         -1   -1    0    0    0  501 -0.00000000000E+00 -0.00000000000E+00 -0.47825024656E+03  0.47825024656E+03  0.00000000000E+00 0.  1.
          6    2    1    2  502    0 -0.38837341919E+02  0.40969514597E+03 -0.26122390156E+03  0.51714026563E+03  0.17273585566E+03 0.  0.
         24    2    3    3    0    0 -0.46209399788E+02  0.10445335866E+03 -0.47322817802E+02  0.14430966121E+03  0.74431286902E+02 0.  0.
         -6    2    1    2    0  501  0.38837341919E+02 -0.40969514597E+03  0.47163323556E+03  0.64976956150E+03  0.17436777914E+03 0.  0.
        -24    2    5    5    0    0  0.14949098855E+02 -0.41353327502E+03  0.45346728792E+03  0.61915141255E+03  0.80514876557E+02 0.  0.
          5    1    3    3  502    0  0.73720578688E+01  0.30524178732E+03 -0.21390108375E+03  0.37283060442E+03  0.47000000000E+01 0. -1.
        -13    1    4    4    0    0  0.38871402429E+00  0.63008803995E+02 -0.52106990136E+02  0.81764288663E+02  0.00000000000E+00 0.  1.
         14    1    4    4    0    0 -0.46598113812E+02  0.41444554661E+02  0.47841723339E+01  0.62545372545E+02  0.00000000000E+00 0. -1.
         -5    1    5    5    0  501  0.23888243064E+02  0.38381290467E+01  0.18165947648E+02  0.30618148951E+02  0.47000000000E+01 0.  1.
         13    1    6    6    0    0  0.15364756542E+02 -0.13333397481E+03  0.96296049583E+02  0.16518763194E+03  0.00000000000E+00 0. -1.
        -14    1    6    6    0    0 -0.41565768691E+00 -0.28019930021E+03  0.35717123833E+03  0.45396378061E+03  0.00000000000E+00 0.  1.
</event>
<event>
12    1  0.2576962E-002  0.1722128E+03  0.7818608E-02  0.1175560E+00
          2   -1    0    0  502    0  0.00000000000E+00  0.00000000000E+00  0.77544646281E+02  0.77544646281E+02  0.00000000000E+00 0. -1.
         -2   -1    0    0    0  501 -0.00000000000E+00 -0.00000000000E+00 -0.40699628593E+03  0.40699628593E+03  0.00000000000E+00 0.  1.
          6    2    1    2  502    0  0.48129066817E+01 -0.48382395647E+01 -0.22401952743E+03  0.28242880653E+03  0.17185665381E+03 0.  0.
         24    2    3    3    0    0 -0.25864818384E+02  0.58508558140E+02 -0.13040501655E+03  0.16521231349E+03  0.78723566880E+02 0.  0.
         -6    2    1    2    0  501 -0.48129066817E+01  0.48382395647E+01 -0.10543211222E+03  0.20211212567E+03  0.17229860250E+03 0.  0.
        -24    2    5    5    0    0 -0.26772834884E+02 -0.12424419321E+01  0.76103755417E+01  0.86700223457E+02  0.82101660044E+02 0.  0.
          5    1    3    3  502    0  0.30677725066E+02 -0.63346797704E+02 -0.93614510875E+02  0.11721649304E+03  0.47000000000E+01 0. -1.
        -11    1    4    4    0    0  0.12306222105E+02  0.21893095005E+02 -0.10225591706E+03  0.10529493476E+03  0.00000000000E+00 0.  1.
         12    1    4    4    0    0 -0.38171040489E+02  0.36615463134E+02 -0.28149099491E+02  0.59917378737E+02  0.00000000000E+00 0. -1.
         -5    1    5    5    0  501  0.21959928202E+02  0.60806814968E+01 -0.11304248776E+03  0.11541190222E+03  0.47000000000E+01 0.  1.
         11    1    6    6    0    0  0.26302863657E+01 -0.21810788386E+02  0.35161363305E+02  0.41460226312E+02  0.00000000000E+00 0. -1.
        -12    1    6    6    0    0 -0.29403121249E+02  0.20568346454E+02 -0.27550987763E+02  0.45239997146E+02  0.00000000000E+00 0.  1.
</event>
<event>
12    1  0.2576962E-002  0.1892905E+03  0.7818608E-02  0.1159103E+00
         -2   -1    0    0    0  501 -0.00000000000E+00  0.00000000000E+00  0.92268499852E+02  0.92268499852E+02  0.00000000000E+00 0.  1.
          2   -1    0    0  502    0  0.00000000000E+00 -0.00000000000E+00 -0.12470942987E+04  0.12470942987E+04  0.00000000000E+00 0. -1.
          6    2    1    2  502    0  0.69979473830E+02  0.38134283987E+02 -0.11325257201E+04  0.11481314276E+04  0.17099683629E+03 0.  0.
         24    2    3    3    0    0 -0.26354287924E+02 -0.11441875553E+00 -0.52043667933E+03  0.52731080880E+03  0.80670876424E+02 0.  0.
         -6    2    1    2    0  501 -0.69979473830E+02 -0.38134283987E+02 -0.22300078757E+02  0.19123137094E+03  0.17239719646E+03 0.  0.
        -24    2    5    5    0    0 -0.10075343381E+03 -0.36159447615E+02 -0.56616893036E+02  0.14485605064E+03  0.79492406886E+02 0.  0.
          5    1    3    3  502    0  0.96333761754E+02  0.38248702742E+02 -0.61208904078E+03  0.62082061882E+03  0.47000000000E+01 0. -1.
        -11    1    4    4    0    0 -0.10194257321E+02  0.33796662383E+02 -0.38937773239E+03  0.39097462290E+03  0.00000000000E+00 0.  1.
         12    1    4    4    0    0 -0.16160030603E+02 -0.33911081139E+02 -0.13105894693E+03  0.13633618590E+03  0.00000000000E+00 0. -1.
         -5    1    5    5    0  501  0.30773959979E+02 -0.19748363713E+01  0.34316814279E+02  0.46375320309E+02  0.47000000000E+01 0.  1.
         11    1    6    6    0    0 -0.24661555435E+02 -0.48113533514E+02 -0.10485629176E+02  0.55073159006E+02  0.00000000000E+00 0. -1.
        -12    1    6    6    0    0 -0.76091878374E+02  0.11954085898E+02 -0.46131263859E+02  0.89782891630E+02  0.00000000000E+00 0.  1.
</event>
<event>
12    1  0.2576962E-002  0.1937726E+03  0.7818608E-02  0.1155102E+00
          1   -1    0    0  502    0  0.00000000000E+00  0.00000000000E+00  0.40665822121E+03  0.40665822121E+03  0.00000000000E+00 0.  1.
         -1   -1    0    0    0  501 -0.00000000000E+00 -0.00000000000E+00 -0.93850058475E+02  0.93850058475E+02  0.00000000000E+00 0. -1.
          6    2    1    2  502    0 -0.41640954446E+01 -0.89196342456E+02  0.12417191896E+03  0.22970180826E+03  0.17137948553E+03 0.  0.
         24    2    3    3    0    0  0.23575157563E+02 -0.59789384828E+02  0.15061424878E+03  0.18116808678E+03  0.77502678276E+02 0.  0.
         -6    2    1    2    0  501  0.41640954446E+01  0.89196342456E+02  0.18863624378E+03  0.27080647143E+03  0.17256646633E+03 0.  0.
        -24    2    5    5    0    0  0.34645748291E+02  0.11348059021E+03  0.10109790969E+03  0.17486948281E+03  0.79248826162E+02 0.  0.
          5    1    3    3  502    0 -0.27739253007E+02 -0.29406957628E+02 -0.26442329820E+02  0.48533721479E+02  0.47000000000E+01 0. -1.
        -11    1    4    4    0    0  0.39104153841E+02 -0.75060110835E+00  0.68006661510E+02  0.78451285900E+02  0.00000000000E+00 0.  1.
         12    1    4    4    0    0 -0.15528996279E+02 -0.59038783720E+02  0.82607587271E+02  0.10271680088E+03  0.00000000000E+00 0. -1.
         -5    1    5    5    0  501 -0.30481652846E+02 -0.24284247752E+02  0.87538334091E+02  0.95936988615E+02  0.47000000000E+01 0.  1.
         13    1    6    6    0    0  0.12786455411E+02  0.57854757361E+02  0.21716643438E+01  0.59290661299E+02  0.00000000000E+00 0. -1.
        -14    1    6    6    0    0  0.21859292879E+02  0.55625832847E+02  0.98926245343E+02  0.11557882151E+03  0.00000000000E+00 0.  1.
</event>
<event>
12    1  0.2576962E-002  0.2404757E+03  0.7818608E-02  0.1119476E+00
          2   -1    0    0  502    0  0.00000000000E+00  0.00000000000E+00  0.17798898570E+04  0.17798898570E+04  0.00000000000E+00 0. -1.
         -2   -1    0    0    0  501 -0.00000000000E+00 -0.00000000000E+00 -0.32498101911E+02  0.32498101911E+02  0.00000000000E+00 0.  1.
          6    2    1    2  502    0  0.16377525842E+03  0.42645252313E+02  0.89143918982E+03  0.92359611977E+03  0.17240942696E+03 0.  0.
         24    2    3    3    0    0  0.16130221372E+03 -0.17550559341E+02  0.68588943695E+03  0.70934756647E+03  0.80020147757E+02 0.  0.
         -6    2    1    2    0  501 -0.16377525842E+03 -0.42645252313E+02  0.85595256532E+03  0.88879183918E+03  0.16927842896E+03 0.  0.
        -24    2    5    5    0    0 -0.10248295547E+03  0.39116433628E+02  0.42554382540E+03  0.44639440125E+03  0.78406393830E+02 0.  0.
          5    1    3    3  502    0  0.24730447022E+01  0.60195811654E+02  0.20554975287E+03  0.21424855331E+03  0.47000000000E+01 0. -1.
        -13    1    4    4    0    0  0.64408958832E+02 -0.29396878949E+02  0.16751792829E+03  0.18186518844E+03  0.00000000000E+00 0.  1.
         14    1    4    4    0    0  0.96893254888E+02  0.11846319608E+02  0.51837150867E+03  0.52748237803E+03  0.00000000000E+00 0. -1.
         -5    1    5    5    0  501 -0.61292302949E+02 -0.81761685941E+02  0.43040873992E+03  0.44239743793E+03  0.47000000000E+01 0.  1.
         11    1    6    6    0    0 -0.76922865302E+02  0.42921146476E+02  0.40166072702E+03  0.41120638572E+03  0.00000000000E+00 0. -1.
        -12    1    6    6    0    0 -0.25560090171E+02 -0.38047128489E+01  0.23883098375E+02  0.35188015537E+02  0.00000000000E+00 0.  1.
</event>
<event>
12    1  0.2576962E-002  0.1745495E+03  0.7818608E-02  0.1173185E+00
          1   -1    0    0  502    0  0.00000000000E+00  0.00000000000E+00  0.17606892072E+03  0.17606892072E+03  0.00000000000E+00 0.  1.
         -1   -1    0    0    0  501 -0.00000000000E+00 -0.00000000000E+00 -0.18476543521E+03  0.18476543521E+03  0.00000000000E+00 0. -1.
          6    2    1    2  502    0 -0.14436270804E+02 -0.25148257832E+02  0.41103040915E+02  0.17890974274E+03  0.17169273511E+03 0.  0.
         24    2    3    3    0    0 -0.38831937244E+02  0.13300596406E+02 -0.29001599953E+02  0.95182724376E+02  0.80832128543E+02 0.  0.
         -6    2    1    2    0  501  0.14436270804E+02  0.25148257832E+02 -0.49799555405E+02  0.18192461319E+03  0.17255644983E+03 0.  0.
        -24    2    5    5    0    0  0.70639416416E+02  0.41458652398E+02 -0.40196427418E+02  0.12243400372E+03  0.81643036935E+02 0.  0.
          5    1    3    3  502    0  0.24395666440E+02 -0.38448854238E+02  0.70104640868E+02  0.83727018366E+02  0.47000000000E+01 0. -1.
        -11    1    4    4    0    0 -0.73612932547E+01 -0.33389430681E+02 -0.82322885051E+01  0.35168356425E+02  0.00000000000E+00 0.  1.
         12    1    4    4    0    0 -0.31470643989E+02  0.46690027087E+02 -0.20769311448E+02  0.60014367951E+02  0.00000000000E+00 0. -1.
         -5    1    5    5    0  501 -0.56203145612E+02 -0.16310394566E+02 -0.96031279869E+01  0.59490609467E+02  0.47000000000E+01 0.  1.
         13    1    6    6    0    0 -0.12794512509E+02  0.28019515085E+02 -0.14919032892E+02  0.34225287704E+02  0.00000000000E+00 0. -1.
        -14    1    6    6    0    0  0.83433928925E+02  0.13439137313E+02 -0.25277394526E+02  0.88208716019E+02  0.00000000000E+00 0.  1.
</event>
<event>
12    1  0.2576962E-002  0.1811443E+03  0.7818608E-02  0.1166700E+00
          2   -1    0    0  502    0  0.00000000000E+00  0.00000000000E+00  0.27022702403E+03  0.27022702403E+03  0.00000000000E+00 0.  1.
         -2   -1    0    0    0  501 -0.00000000000E+00 -0.00000000000E+00 -0.12475553315E+03  0.12475553315E+03  0.00000000000E+00 0. -1.
          6    2    1    2  502    0  0.61279598176E+01  0.55374811569E+02  0.10480841334E+03  0.20889270858E+03  0.17189368384E+03 0.  0.
         24    2    3    3    0    0  0.24169152799E+02  0.89359187738E+02  0.35203431756E+02  0.12922235068E+03  0.83005553593E+02 0.  0.
         -6    2    1    2    0  501 -0.61279598176E+01 -0.55374811569E+02  0.40663077543E+02  0.18608984860E+03  0.17283525170E+03 0.  0.
        -24    2    5    5    0    0  0.10967517805E+02 -0.98897795963E+02  0.52711482713E+02  0.13757428829E+03  0.79038749325E+02 0.  0.
          5    1    3    3  502    0 -0.18041192982E+02 -0.33984376169E+02  0.69604981581E+02  0.79670357905E+02  0.47000000000E+01 0. -1.
        -11    1    4    4    0    0  0.16558844941E+02  0.11498824301E+02  0.46024475910E+02  0.50246101231E+02  0.00000000000E+00 0.  1.
         12    1    4    4    0    0  0.76103078578E+01  0.77860363437E+02 -0.10821044154E+02  0.78976249447E+02  0.00000000000E+00 0. -1.
         -5    1    5    5    0  501 -0.17095477622E+02  0.43522984394E+02 -0.12048405170E+02  0.48515560317E+02  0.47000000000E+01 0.  1.
         11    1    6    6    0    0 -0.33005948583E+02 -0.27482229695E+02  0.13739514012E+02  0.45093678450E+02  0.00000000000E+00 0. -1.
        -12    1    6    6    0    0  0.43973466387E+02 -0.71415566268E+02  0.38971968701E+02  0.92480609838E+02  0.00000000000E+00 0.  1.
</event>
<event>
12    1  0.2576962E-002  0.1823644E+03  0.7818608E-02  0.1165534E+00
         -2   -1    0    0    0  501 -0.00000000000E+00  0.00000000000E+00  0.44960804171E+02  0.44960804171E+02  0.00000000000E+00 0.  1.
          2   -1    0    0  502    0  0.00000000000E+00 -0.00000000000E+00 -0.13868094465E+04  0.13868094465E+04  0.00000000000E+00 0. -1.
          6    2    1    2  502    0 -0.56752701114E+02 -0.20266834443E+02 -0.11594020104E+04  0.11736135646E+04  0.17182596903E+03 0.  0.
         24    2    3    3    0    0 -0.88716011047E+02 -0.55165991035E+02 -0.73252805249E+03  0.74409864023E+03  0.78559668592E+02 0.  0.
         -6    2    1    2    0  501  0.56752701114E+02  0.20266834443E+02 -0.18244663193E+03  0.25815668607E+03  0.17241371001E+03 0.  0.
        -24    2    5    5    0    0  0.88849779586E+02  0.15355994191E+02 -0.66346181598E+02  0.13750950058E+03  0.79855851685E+02 0.  0.
          5    1    3    3  502    0  0.31963309933E+02  0.34899156592E+02 -0.42687395794E+03  0.42951492440E+03  0.47000000000E+01 0. -1.
        -13    1    4    4    0    0 -0.25305754290E+02  0.17799135730E+02 -0.25612904934E+03  0.25799085323E+03  0.00000000000E+00 0.  1.
         14    1    4    4    0    0 -0.63410256757E+02 -0.72965126765E+02 -0.47639900314E+03  0.48610778700E+03  0.00000000000E+00 0. -1.
         -5    1    5    5    0  501 -0.32097078472E+02  0.49108402514E+01 -0.11610045034E+03  0.12064718549E+03  0.47000000000E+01 0.  1.
         13    1    6    6    0    0 -0.61488220097E+01 -0.18346913952E+02 -0.72496823166E+01  0.20663377201E+02  0.00000000000E+00 0. -1.
        -14    1    6    6    0    0  0.94998601596E+02  0.33702908143E+02 -0.59096499281E+02  0.11684612338E+03  0.00000000000E+00 0.  1.
</event>
<event>
12    1  0.2576962E-002  0.1984723E+03  0.7818608E-02  0.1151034E+00
         -1   -1    0    0    0  501 -0.00000000000E+00  0.00000000000E+00  0.22957364514E+03  0.22957364514E+03  0.00000000000E+00 0.  1.
          1   -1    0    0  502    0  0.00000000000E+00 -0.00000000000E+00 -0.17579295419E+03  0.17579295419E+03  0.00000000000E+00 0. -1.
          6    2    1    2  502    0 -0.89651122981E+02 -0.47231848198E+02 -0.46583542759E+01  0.19668346867E+03  0.16850672167E+03 0.  0.
         24    2    3    3    0    0 -0.36968374465E+02 -0.91753673858E+02 -0.68087833302E+01  0.12751426096E+03  0.80175618737E+02 0.  0.
         -6    2    1    2    0  501  0.89651122981E+02  0.47231848198E+02  0.58439045226E+02  0.20868313065E+03  0.17281595897E+03 0.  0.
        -24    2    5    5    0    0  0.12576450462E+03  0.51852808500E+02  0.30431904872E+02  0.16250933377E+03  0.83532977662E+02 0.  0.
          5    1    3    3  502    0 -0.52682748517E+02  0.44521825660E+02  0.21504290543E+01  0.69169207719E+02  0.47000000000E+01 0. -1.
        -13    1    4    4    0    0 -0.41669162218E+02 -0.13219781397E+02  0.14408217285E+02  0.46029104113E+02  0.00000000000E+00 0.  1.
         14    1    4    4    0    0  0.47007877536E+01 -0.78533892461E+02 -0.21217000615E+02  0.81485156843E+02  0.00000000000E+00 0. -1.
         -5    1    5    5    0  501 -0.36113381638E+02 -0.46209603016E+01  0.28007140354E+02  0.46173796880E+02  0.47000000000E+01 0.  1.
         13    1    6    6    0    0  0.65948647181E+02  0.26878887888E+02 -0.26748026885E+02  0.76073356843E+02  0.00000000000E+00 0. -1.
        -14    1    6    6    0    0  0.59815857438E+02  0.24973920612E+02  0.57179931756E+02  0.86435976928E+02  0.00000000000E+00 0.  1.
</event>
<event>
12    1  0.2576962E-002  0.2592073E+03  0.7818608E-02  0.1107620E+00
          2   -1    0    0  502    0  0.00000000000E+00  0.00000000000E+00  0.15224687602E+04  0.15224687602E+04  0.00000000000E+00 0.  1.
         -2   -1    0    0    0  501 -0.00000000000E+00 -0.00000000000E+00 -0.44142140311E+02  0.44142140311E+02  0.00000000000E+00 0. -1.
          6    2    1    2  502    0  0.17050069279E+03 -0.86700456110E+02  0.72240228077E+03  0.76670809598E+03  0.17143160105E+03 0.  0.
         24    2    3    3    0    0  0.23670915729E+02 -0.30843224159E+02  0.16503979284E+03  0.18761048180E+03  0.80299084254E+02 0.  0.
         -6    2    1    2    0  501 -0.17050069279E+03  0.86700456110E+02  0.75592433911E+03  0.79990280452E+03  0.17842487187E+03 0.  0.
        -24    2    5    5    0    0 -0.82977282145E+02  0.28991248573E+02  0.19126508653E+03  0.22557462172E+03  0.81091644402E+02 0.  0.
          5    1    3    3  502    0  0.14682977706E+03 -0.55857231951E+02  0.55736248793E+03  0.57909761418E+03  0.47000000000E+01 0. -1.
        -13    1    4    4    0    0  0.46233312454E+02 -0.32622321269E+02  0.15030795384E+03  0.16060577827E+03  0.00000000000E+00 0.  1.
         14    1    4    4    0    0 -0.22562396725E+02  0.17790971103E+01  0.14731839002E+02  0.27004703532E+02  0.00000000000E+00 0. -1.
         -5    1    5    5    0  501 -0.87523410646E+02  0.57709207537E+02  0.56465925257E+03  0.57432818280E+03  0.47000000000E+01 0.  1.
         13    1    6    6    0    0 -0.54842372137E+02 -0.20513129883E+02  0.12613797138E+03  0.13906567550E+03  0.00000000000E+00 0. -1.
        -14    1    6    6    0    0 -0.28134910007E+02  0.49504378456E+02  0.65127115151E+02  0.86508946216E+02  0.00000000000E+00 0.  1.
</event>
<event>
12    1  0.2576962E-002  0.3724573E+03  0.7818608E-02  0.1053757E+00
         -1   -1    0    0    0  501 -0.00000000000E+00  0.00000000000E+00  0.14301711488E+03  0.14301711488E+03  0.00000000000E+00 0. -1.
          1   -1    0    0  502    0  0.00000000000E+00 -0.00000000000E+00 -0.11517663490E+04  0.11517663490E+04  0.00000000000E+00 0.  1.
          6    2    1    2  502    0 -0.77957924973E+02  0.32041147632E+03 -0.24692546085E+03  0.44668721680E+03  0.17267406932E+03 0.  0.
         24    2    3    3    0    0 -0.43379979771E+02  0.81830659806E+02 -0.12909878676E+03  0.17831871003E+03  0.80950516199E+02 0.  0.
         -6    2    1    2    0  501  0.77957924973E+02 -0.32041147632E+03 -0.76182377325E+03  0.84809624706E+03  0.17363994517E+03 0.  0.
        -24    2    5    5    0    0  0.22689309133E+01 -0.11337344737E+03 -0.18935784863E+03  0.23463647323E+03  0.79619049956E+02 0.  0.
          5    1    3    3  502    0 -0.34577945202E+02  0.23858081651E+03 -0.11782667409E+03  0.26836850678E+03  0.47000000000E+01 0. -1.
        -13    1    4    4    0    0  0.21439201012E+01 -0.15386808254E+02 -0.13748562448E+02  0.20745438801E+02  0.00000000000E+00 0.  1.
         14    1    4    4    0    0 -0.45523899872E+02  0.97217468059E+02 -0.11535022431E+03  0.15757327123E+03  0.00000000000E+00 0. -1.
         -5    1    5    5    0  501  0.75688994060E+02 -0.20703802895E+03 -0.57246592462E+03  0.61345977383E+03  0.47000000000E+01 0.  1.
         13    1    6    6    0    0 -0.31151628765E+02 -0.34620656493E+02 -0.35375407303E+02  0.58484470354E+02  0.00000000000E+00 0. -1.
        -14    1    6    6    0    0  0.33420559679E+02 -0.78752790873E+02 -0.15398244133E+03  0.17615200287E+03  0.00000000000E+00 0.  1.
</event>
<event>
12    1  0.2576962E-002  0.1801587E+03  0.7818608E-02  0.1167650E+00
         -2   -1    0    0    0  501 -0.00000000000E+00  0.00000000000E+00  0.47507686065E+02  0.47507686065E+02  0.00000000000E+00 0. -1.
          2   -1    0    0  502    0  0.00000000000E+00 -0.00000000000E+00 -0.68677326733E+03  0.68677326733E+03  0.00000000000E+00 0.  1.
          6    2    1    2  502    0 -0.49339650478E+02 -0.15732908924E+02 -0.29187090184E+03  0.34260541651E+03  0.17177870227E+03 0.  0.
         24    2    3    3    0    0 -0.92384528581E+02 -0.13105104453E+02 -0.26404074741E+03  0.29106538952E+03  0.79340404570E+02 0.  0.
         -6    2    1    2    0  501  0.49339650478E+02  0.15732908924E+02 -0.34739467943E+03  0.39167553688E+03  0.17333417830E+03 0.  0.
        -24    2    5    5    0    0 -0.29985965016E+02  0.69859922567E+01 -0.25754887337E+03  0.27141157432E+03  0.79905308433E+02 0.  0.
          5    1    3    3  502    0  0.43044878103E+02 -0.26278044710E+01 -0.27830154424E+02  0.51540026993E+02  0.47000000000E+01 0. -1.
        -13    1    4    4    0    0 -0.76263712776E+02  0.23942731288E+02 -0.19954272489E+03  0.21495745469E+03  0.00000000000E+00 0.  1.
         14    1    4    4    0    0 -0.16120815805E+02 -0.37047835741E+02 -0.64498022523E+02  0.76107934834E+02  0.00000000000E+00 0. -1.
         -5    1    5    5    0  501  0.79325615494E+02  0.87469166669E+01 -0.89845806054E+02  0.12026396256E+03  0.47000000000E+01 0.  1.
         13    1    6    6    0    0 -0.83533724211E+01  0.92502618063E+01  0.47472309586E+00  0.12472831928E+02  0.00000000000E+00 0. -1.
        -14    1    6    6    0    0 -0.21632592595E+02 -0.22642695496E+01 -0.25802359647E+03  0.25893874240E+03  0.00000000000E+00 0.  1.
</event>
<event>
12    1  0.2576962E-002  0.2231976E+03  0.7818608E-02  0.1131521E+00
         -2   -1    0    0    0  501 -0.00000000000E+00  0.00000000000E+00  0.21912249907E+03  0.21912249907E+03  0.00000000000E+00 0.  1.
          2   -1    0    0  502    0  0.00000000000E+00 -0.00000000000E+00 -0.23997175386E+03  0.23997175386E+03  0.00000000000E+00 0. -1.
          6    2    1    2  502    0 -0.11075355194E+03  0.96304957452E+02 -0.63119806168E+02  0.23376291850E+03  0.17064582632E+03 0.  0.
         24    2    3    3    0    0 -0.13630527849E+03  0.59453840567E+02 -0.18234303242E+02  0.17014142907E+03  0.80633293178E+02 0.  0.
         -6    2    1    2    0  501  0.11075355194E+03 -0.96304957452E+02  0.42270551372E+02  0.22533133442E+03  0.16566960090E+03 0.  0.
        -24    2    5    5    0    0  0.62582186817E+02 -0.22708651480E+02  0.78816092614E+02  0.12996591483E+03  0.79037646742E+02 0.  0.
          5    1    3    3  502    0  0.25551726547E+02  0.36851116885E+02 -0.44885502927E+02  0.63621489437E+02  0.47000000000E+01 0. -1.
        -11    1    4    4    0    0 -0.78821244723E+02  0.74622201093E+02 -0.21928810188E+01  0.10856366907E+03  0.00000000000E+00 0.  1.
         12    1    4    4    0    0 -0.57484033764E+02 -0.15168360526E+02 -0.16041422223E+02  0.61577759993E+02  0.00000000000E+00 0. -1.
         -5    1    5    5    0  501  0.48171365122E+02 -0.73596305972E+02 -0.36545541242E+02  0.95365419598E+02  0.47000000000E+01 0.  1.
         13    1    6    6    0    0  0.18469934745E+01  0.25026813485E+02  0.11941114130E+02  0.27791059439E+02  0.00000000000E+00 0. -1.
        -14    1    6    6    0    0  0.60735193343E+02 -0.47735464965E+02  0.66874978484E+02  0.10217485539E+03  0.00000000000E+00 0.  1.
</event>
<event>
12    1  0.2576962E-002  0.1813595E+03  0.7818608E-02  0.1166494E+00
          2   -1    0    0  502    0  0.00000000000E+00  0.00000000000E+00  0.41582494216E+02  0.41582494216E+02  0.00000000000E+00 0.  1.
         -2   -1    0    0    0  501 -0.00000000000E+00 -0.00000000000E+00 -0.79244672365E+03  0.79244672365E+03  0.00000000000E+00 0. -1.
          6    2    1    2  502    0  0.57430451274E+01  0.53228858481E+02 -0.39113340064E+03  0.43072064121E+03  0.17224586998E+03 0.  0.
         24    2    3    3    0    0  0.18321775792E+02  0.34973481721E+02 -0.81052372927E+02  0.11981258890E+03  0.78909678805E+02 0.  0.
         -6    2    1    2    0  501 -0.57430451274E+01 -0.53228858481E+02 -0.35973082879E+03  0.40330857665E+03  0.17431363939E+03 0.  0.
        -24    2    5    5    0    0 -0.42580671807E+02  0.24975889906E+02 -0.15915382654E+03  0.18484526796E+03  0.80005774165E+02 0.  0.
          5    1    3    3  502    0 -0.12578730665E+02  0.18255376760E+02 -0.31008102772E+03  0.31090805232E+03  0.47000000000E+01 0. -1.
        -13    1    4    4    0    0 -0.22682544594E+02  0.31956264657E+02 -0.14901653524E+02  0.41925647972E+02  0.00000000000E+00 0.  1.
         14    1    4    4    0    0  0.41004320386E+02  0.30172170632E+01 -0.66150719403E+02  0.77886940925E+02  0.00000000000E+00 0. -1.
         -5    1    5    5    0  501  0.36837626680E+02 -0.78204748387E+02 -0.20057700225E+03  0.21846330869E+03  0.47000000000E+01 0.  1.
         11    1    6    6    0    0 -0.31364235091E+02  0.53432729349E+01 -0.15908401262E+03  0.16223436405E+03  0.00000000000E+00 0. -1.
        -12    1    6    6    0    0 -0.11216436716E+02  0.19632616972E+02 -0.69813917170E-01  0.22610903913E+02  0.00000000000E+00 0.  1.
</event>
<event>
12    1  0.2576962E-002  0.3052611E+03  0.7818608E-02  0.1082640E+00
         -2   -1    0    0    0  501 -0.00000000000E+00  0.00000000000E+00  0.25015944425E+03  0.25015944425E+03  0.00000000000E+00 0. -1.
          2   -1    0    0  502    0  0.00000000000E+00 -0.00000000000E+00 -0.63275735115E+03  0.63275735115E+03  0.00000000000E+00 0.  1.
          6    2    1    2  502    0  0.24996467919E+03 -0.23940494778E+02 -0.47480088092E+03  0.56502870254E+03  0.17540259418E+03 0.  0.
         24    2    3    3    0    0  0.24554227836E+03  0.16105044402E+02 -0.36183866824E+03  0.44500472856E+03  0.80941977301E+02 0.  0.
         -6    2    1    2    0  501 -0.24996467919E+03  0.23940494778E+02  0.92202974018E+02  0.31788809285E+03  0.17174388790E+03 0.  0.
        -24    2    5    5    0    0 -0.24551594556E+03  0.14516632083E+02  0.12198062568E+03  0.28599140090E+03  0.80143597474E+02 0.  0.
          5    1    3    3  502    0  0.44224008263E+01 -0.40045539180E+02 -0.11296221268E+03  0.12002397399E+03  0.47000000000E+01 0. -1.
        -11    1    4    4    0    0  0.20664284470E+03  0.36321845268E+01 -0.34198611648E+03  0.39958598811E+03  0.00000000000E+00 0.  1.
         12    1    4    4    0    0  0.38899433659E+02  0.12472859875E+02 -0.19852551760E+02  0.45418740448E+02  0.00000000000E+00 0. -1.
         -5    1    5    5    0  501 -0.44487336262E+01  0.94238626945E+01 -0.29777651664E+02  0.31896691954E+02  0.47000000000E+01 0.  1.
         11    1    6    6    0    0 -0.20597616917E+03  0.47925612845E+01  0.65165004593E+02  0.21609171371E+03  0.00000000000E+00 0. -1.
        -12    1    6    6    0    0 -0.39539776388E+02  0.97240707985E+01  0.56815621088E+02  0.69899687191E+02  0.00000000000E+00 0.  1.
</event>
<event>
12    1  0.2576962E-002  0.1892746E+03  0.7818608E-02  0.1159117E+00
         -2   -1    0    0    0  501 -0.00000000000E+00  0.00000000000E+00  0.26751558928E+02  0.26751558928E+02  0.00000000000E+00 0. -1.
          2   -1    0    0  502    0  0.00000000000E+00 -0.00000000000E+00 -0.13899904047E+04  0.13899904047E+04  0.00000000000E+00 0.  1.
          6    2    1    2  502    0  0.20539607121E+02 -0.77026910342E+02 -0.81544323894E+03  0.83701670764E+03  0.17115569681E+03 0.  0.
         24    2    3    3    0    0  0.78331681628E+02 -0.34875653614E+02 -0.46267872762E+03  0.47704234359E+03  0.78394062455E+02 0.  0.
         -6    2    1    2    0  501 -0.20539607121E+02  0.77026910342E+02 -0.54779560680E+03  0.57972525596E+03  0.17218108257E+03 0.  0.
        -24    2    5    5    0    0  0.14869296087E+02  0.54109274589E+02 -0.51793380904E+03  0.52783281508E+03  0.84871317691E+02 0.  0.
          5    1    3    3  502    0 -0.57792074507E+02 -0.42151256728E+02 -0.35276451132E+03  0.35997436404E+03  0.47000000000E+01 0. -1.
        -13    1    4    4    0    0  0.22319594725E+02 -0.50072571010E+02 -0.28172173449E+03  0.28700620613E+03  0.00000000000E+00 0.  1.
         14    1    4    4    0    0  0.56012086903E+02  0.15196917396E+02 -0.18095699313E+03  0.19003613746E+03  0.00000000000E+00 0. -1.
         -5    1    5    5    0  501 -0.35408903208E+02  0.22917635753E+02 -0.29861797753E+02  0.51892440875E+02  0.47000000000E+01 0.  1.
         11    1    6    6    0    0  0.32806381301E+02  0.68858408586E+02 -0.43809664128E+03  0.44468686307E+03  0.00000000000E+00 0. -1.
        -12    1    6    6    0    0 -0.17937085214E+02 -0.14749133997E+02 -0.79837167761E+02  0.83145952011E+02  0.00000000000E+00 0.  1.
</event>
<event>
12    1  0.2576962E-002  0.1953161E+03  0.7818608E-02  0.1153752E+00
          2   -1    0    0  502    0  0.00000000000E+00  0.00000000000E+00  0.13559890230E+04  0.13559890230E+04  0.00000000000E+00 0. -1.
         -2   -1    0    0    0  501 -0.00000000000E+00 -0.00000000000E+00 -0.32887803364E+02  0.32887803364E+02  0.00000000000E+00 0.  1.
          6    2    1    2  502    0 -0.66436065498E+02 -0.78087776078E+02  0.38294442361E+03  0.42755010826E+03  0.16012873548E+03 0.  0.
         24    2    3    3    0    0 -0.56964306899E+02 -0.86888540960E+02  0.17284619015E+03  0.21700195373E+03  0.80121730274E+02 0.  0.
         -6    2    1    2    0  501  0.66436065498E+02  0.78087776078E+02  0.94015679602E+03  0.96132671810E+03  0.17246102822E+03 0.  0.
        -24    2    5    5    0    0 -0.19049473906E+01  0.99122559679E+02  0.65978043296E+03  0.67193779100E+03  0.79757536291E+02 0.  0.
          5    1    3    3  502    0 -0.94717585991E+01  0.88007648815E+01  0.21009823346E+03  0.21054815453E+03  0.47000000000E+01 0. -1.
        -13    1    4    4    0    0  0.11310401889E+02  0.69799303660E+01  0.84171943382E+01  0.15731935015E+02  0.00000000000E+00 0.  1.
         14    1    4    4    0    0 -0.68274708788E+02 -0.93868471326E+02  0.16442899581E+03  0.20127001871E+03  0.00000000000E+00 0. -1.
         -5    1    5    5    0  501  0.68341012889E+02 -0.21034783601E+02  0.28037636306E+03  0.28938892710E+03  0.47000000000E+01 0.  1.
         13    1    6    6    0    0  0.12602252658E+02  0.94549509827E+02  0.38156473150E+03  0.39330658640E+03  0.00000000000E+00 0. -1.
        -14    1    6    6    0    0 -0.14507200048E+02  0.45730498524E+01  0.27821570146E+03  0.27863120461E+03  0.00000000000E+00 0.  1.
</event>
<event>
12    1  0.2576962E-002  0.1866464E+03  0.7818608E-02  0.1161521E+00
          2   -1    0    0  502    0  0.00000000000E+00  0.00000000000E+00  0.19377887550E+04  0.19377887550E+04  0.00000000000E+00 0.  1.
         -2   -1    0    0    0  501 -0.00000000000E+00 -0.00000000000E+00 -0.18414410078E+02  0.18414410078E+02  0.00000000000E+00 0. -1.
          6    2    1    2  502    0 -0.45087602407E+02 -0.55290237152E+02  0.81143324925E+03  0.83272863649E+03  0.17298312582E+03 0.  0.
         24    2    3    3    0    0 -0.38781722089E+02 -0.60565259040E+01  0.74182557120E+03  0.74710713631E+03  0.79518498196E+02 0.  0.
         -6    2    1    2    0  501  0.45087602407E+02  0.55290237152E+02  0.11079410957E+04  0.11234745286E+04  0.17196407387E+03 0.  0.
        -24    2    5    5    0    0  0.21670099003E+02  0.91548098762E+02  0.53894286529E+03  0.55282219296E+03  0.79387136210E+02 0.  0.
          5    1    3    3  502    0 -0.63058803182E+01 -0.49233711249E+02  0.69607678052E+02  0.85621500183E+02  0.47000000000E+01 0. -1.
        -11    1    4    4    0    0 -0.40604713328E+02 -0.35018314492E+02  0.33660992661E+03  0.34085373371E+03  0.00000000000E+00 0.  1.
         12    1    4    4    0    0  0.18229912394E+01  0.28961788588E+02  0.40521564459E+03  0.40625340259E+03  0.00000000000E+00 0. -1.
         -5    1    5    5    0  501  0.23417503404E+02 -0.36257861610E+02  0.56899823041E+03  0.57065233567E+03  0.47000000000E+01 0.  1.
         13    1    6    6    0    0 -0.28461780126E+02  0.45303203876E+02  0.19650528660E+03  0.20365849079E+03  0.00000000000E+00 0. -1.
        -14    1    6    6    0    0  0.50131879129E+02  0.46244894886E+02  0.34243757869E+03  0.34916370216E+03  0.00000000000E+00 0.  1.
</event>
<event>
12    1  0.2576962E-002  0.2178173E+03  0.7818608E-02  0.1135521E+00
          1   -1    0    0  502    0  0.00000000000E+00  0.00000000000E+00  0.30730066060E+03  0.30730066060E+03  0.00000000000E+00 0.  1.
         -1   -1    0    0    0  501 -0.00000000000E+00 -0.00000000000E+00 -0.15567711693E+03  0.15567711693E+03  0.00000000000E+00 0. -1.
          6    2    1    2  502    0 -0.99449945226E+02  0.87673059330E+02  0.54672773948E+02  0.22429621475E+03  0.17246107619E+03 0.  0.
         24    2    3    3    0    0 -0.45178134849E+02 -0.17103093814E+02 -0.21442918888E+01  0.93247595373E+02  0.79730398022E+02 0.  0.
         -6    2    1    2    0  501  0.99449945226E+02 -0.87673059330E+02  0.96950769715E+02  0.23868156279E+03  0.17318365895E+03 0.  0.
        -24    2    5    5    0    0 -0.10959111973E+02 -0.20904735415E+02  0.71080383849E+02  0.10700189140E+03  0.76419066325E+02 0.  0.
          5    1    3    3  502    0 -0.54271810378E+02  0.10477615314E+03  0.56817065837E+02  0.13104861937E+03  0.47000000000E+01 0. -1.
        -11    1    4    4    0    0 -0.28631137345E+02 -0.14519825558E+02  0.38002951814E+02  0.49747278383E+02  0.00000000000E+00 0.  1.
         12    1    4    4    0    0 -0.16546997504E+02 -0.25832682554E+01 -0.40147243703E+02  0.43500316990E+02  0.00000000000E+00 0. -1.
         -5    1    5    5    0  501  0.11040905720E+03 -0.66768323916E+02  0.25870385866E+02  0.13167967138E+03  0.47000000000E+01 0.  1.
         11    1    6    6    0    0 -0.20450036654E+02  0.19501298006E+02  0.46016670212E+01  0.28630053483E+02  0.00000000000E+00 0. -1.
        -12    1    6    6    0    0  0.94909246811E+01 -0.40406033421E+02  0.66478716828E+02  0.78371837921E+02  0.00000000000E+00 0.  1.
</event>
<event>
12    1  0.2576962E-002  0.2245362E+03  0.7818608E-02  0.1130546E+00
         -1   -1    0    0    0  501 -0.00000000000E+00  0.00000000000E+00  0.12725220007E+03  0.12725220007E+03  0.00000000000E+00 0.  1.
          1   -1    0    0  502    0  0.00000000000E+00 -0.00000000000E+00 -0.63121388791E+03  0.63121388791E+03  0.00000000000E+00 0. -1.
          6    2    1    2  502    0  0.11239244895E+03  0.89555869916E+02 -0.19777501584E+02  0.22426802929E+03  0.17103415734E+03 0.  0.
         24    2    3    3    0    0 -0.42360455917E+01  0.53933299883E+02 -0.22786769030E+02  0.10219297481E+03  0.83650596768E+02 0.  0.
         -6    2    1    2    0  501 -0.11239244895E+03 -0.89555869916E+02 -0.48418418626E+03  0.53419805870E+03  0.17401414677E+03 0.  0.
        -24    2    5    5    0    0 -0.24510736245E+02 -0.98218841032E+02 -0.21227259117E+03  0.24826756357E+03  0.79557609552E+02 0.  0.
          5    1    3    3  502    0  0.11662849454E+03  0.35622570034E+02  0.30092674458E+01  0.12207505448E+03  0.47000000000E+01 0. -1.
        -13    1    4    4    0    0 -0.60578245674E+01 -0.18988490577E+02  0.99058781790E+01  0.22257278256E+02  0.00000000000E+00 0.  1.
         14    1    4    4    0    0  0.18217789757E+01  0.72921790459E+02 -0.32692647209E+02  0.79935696556E+02  0.00000000000E+00 0. -1.
         -5    1    5    5    0  501 -0.87881712708E+02  0.86629711157E+01 -0.27191159509E+03  0.28593049512E+03  0.47000000000E+01 0.  1.
         11    1    6    6    0    0 -0.76347843595E+01  0.12904322245E+02 -0.38464120852E+02  0.41283169182E+02  0.00000000000E+00 0. -1.
        -12    1    6    6    0    0 -0.16875951885E+02 -0.11112316328E+03 -0.17380847031E+03  0.20698439439E+03  0.00000000000E+00 0.  1.
</event>
<event>
12    1  0.2576962E-002  0.1885290E+03  0.7818608E-02  0.1159795E+00
         -2   -1    0    0    0  501 -0.00000000000E+00  0.00000000000E+00  0.50345878349E+02  0.50345878349E+02  0.00000000000E+00 0.  1.
          2   -1    0    0  502    0  0.00000000000E+00 -0.00000000000E+00 -0.71138361028E+03  0.71138361028E+03  0.00000000000E+00 0. -1.
          6    2    1    2  502    0  0.44138019366E+02  0.61763204687E+02 -0.29843188052E+03  0.35332733062E+03  0.17325056145E+03 0.  0.
         24    2    3    3    0    0  0.81221205284E+02  0.84724087648E+02 -0.25612247853E+03  0.29238030181E+03  0.78182233650E+02 0.  0.
         -6    2    1    2    0  501 -0.44138019366E+02 -0.61763204687E+02 -0.36260585141E+03  0.40840215801E+03  0.17189084033E+03 0.  0.
        -24    2    5    5    0    0  0.43352294408E+01 -0.10394938134E+03 -0.20467434155E+03  0.23783316565E+03  0.62038379234E+02 0.  0.
          5    1    3    3  502    0 -0.37083185917E+02 -0.22960882961E+02 -0.42309401992E+02  0.60947028812E+02  0.47000000000E+01 0. -1.
        -11    1    4    4    0    0 -0.15927854201E+00  0.29288471086E+02 -0.17208421870E+02  0.33970129401E+02  0.00000000000E+00 0.  1.
         12    1    4    4    0    0  0.81380483826E+02  0.55435616562E+02 -0.23891405666E+03  0.25841017240E+03  0.00000000000E+00 0. -1.
         -5    1    5    5    0  501 -0.48473248807E+02  0.42186176652E+02 -0.15793150986E+03  0.17056899237E+03  0.47000000000E+01 0.  1.
         13    1    6    6    0    0  0.17411396346E+02 -0.88216836142E+02 -0.11567552033E+03  0.14651345640E+03  0.00000000000E+00 0. -1.
        -14    1    6    6    0    0 -0.13076166905E+02 -0.15732545198E+02 -0.88998821217E+02  0.91319709249E+02  0.00000000000E+00 0.  1.
</event>
<event>
12    1  0.2576962E-002  0.2488926E+03  0.7818608E-02  0.1114007E+00
         -1   -1    0    0    0  501 -0.00000000000E+00  0.00000000000E+00  0.25425113599E+02  0.25425113599E+02  0.00000000000E+00 0.  1.
          1   -1    0    0  502    0  0.00000000000E+00 -0.00000000000E+00 -0.24376182265E+04  0.24376182265E+04  0.00000000000E+00 0. -1.
          6    2    1    2  502    0 -0.86723094561E+02  0.15902661815E+03 -0.12349445426E+04  0.12598663979E+04  0.17136206334E+03 0.  0.
         24    2    3    3    0    0 -0.11735030975E+03  0.12453134334E+03 -0.11229401875E+04  0.11386433974E+04  0.78961832026E+02 0.  0.
         -6    2    1    2    0  501  0.86723094561E+02 -0.15902661815E+03 -0.11772485703E+04  0.12031769422E+04  0.17002999042E+03 0.  0.
        -24    2    5    5    0    0  0.74220627342E+02 -0.22751736048E+02 -0.50313985087E+03  0.51530209112E+03  0.79750815469E+02 0.  0.
          5    1    3    3  502    0  0.30627215193E+02  0.34495274812E+02 -0.11200435505E+03  0.12122300048E+03  0.47000000000E+01 0. -1.
        -11    1    4    4    0    0 -0.91629161737E+02  0.85854160883E+02 -0.56557517576E+03  0.57934628648E+03  0.00000000000E+00 0.  1.
         12    1    4    4    0    0 -0.25721148016E+02  0.38677182455E+02 -0.55736501178E+03  0.55929711089E+03  0.00000000000E+00 0. -1.
         -5    1    5    5    0  501  0.12502467220E+02 -0.13627488210E+03 -0.67410871941E+03  0.68787485109E+03  0.47000000000E+01 0.  1.
         11    1    6    6    0    0  0.58634037627E+02 -0.32943965317E+02 -0.48380383332E+03  0.48845614374E+03  0.00000000000E+00 0. -1.
        -12    1    6    6    0    0  0.15586589715E+02  0.10192229269E+02 -0.19336017546E+02  0.26845947384E+02  0.00000000000E+00 0.  1.
</event>
<event>
12    1  0.2576962E-002  0.2321899E+03  0.7818608E-02  0.1125108E+00
         -2   -1    0    0    0  501 -0.00000000000E+00  0.00000000000E+00  0.42648838623E+02  0.42648838623E+02  0.00000000000E+00 0. -1.
          2   -1    0    0  502    0  0.00000000000E+00 -0.00000000000E+00 -0.14638004452E+04  0.14638004452E+04  0.00000000000E+00 0.  1.
          6    2    1    2  502    0 -0.15415632300E+03  0.12941587138E+02 -0.99463994220E+03  0.10218979131E+04  0.17616774256E+03 0.  0.
         24    2    3    3    0    0 -0.14216987762E+03  0.24225201909E+01 -0.48582822724E+03  0.51281464196E+03  0.82046620404E+02 0.  0.
         -6    2    1    2    0  501  0.15415632300E+03 -0.12941587138E+02 -0.42651166436E+03  0.48455137074E+03  0.17013575301E+03 0.  0.
        -24    2    5    5    0    0  0.57980296266E+02 -0.47437005678E+02 -0.13201857018E+03  0.17280141559E+03  0.82579913375E+02 0.  0.
          5    1    3    3  502    0 -0.11986445379E+02  0.10519066947E+02 -0.50881171496E+03  0.50908327111E+03  0.47000000000E+01 0. -1.
        -11    1    4    4    0    0 -0.95516603767E+02 -0.52141717279E+01 -0.42576506431E+03  0.43637884821E+03  0.00000000000E+00 0.  1.
         12    1    4    4    0    0 -0.46653273850E+02  0.76366919187E+01 -0.60063162929E+02  0.76435793745E+02  0.00000000000E+00 0. -1.
         -5    1    5    5    0  501  0.96176026729E+02  0.34495418540E+02 -0.29449309418E+03  0.31174995515E+03  0.47000000000E+01 0.  1.
         11    1    6    6    0    0  0.71181414183E+02 -0.32773369778E+02 -0.13148229532E+03  0.15306365171E+03  0.00000000000E+00 0. -1.
        -12    1    6    6    0    0 -0.13201117917E+02 -0.14663635900E+02 -0.53627485884E+00  0.19737763875E+02  0.00000000000E+00 0.  1.
</event>
<event>
12    1  0.2576962E-002  0.1964771E+03  0.7818608E-02  0.1152746E+00
         -1   -1    0    0    0  501 -0.00000000000E+00  0.00000000000E+00  0.13745952128E+04  0.13745952128E+04  0.00000000000E+00 0.  1.
          1   -1    0    0  502    0  0.00000000000E+00 -0.00000000000E+00 -0.28839382699E+02  0.28839382699E+02  0.00000000000E+00 0. -1.
          6    2    1    2  502    0 -0.27661891663E+02 -0.92278438883E+02  0.78654132477E+03  0.81071343095E+03  0.17125571824E+03 0.  0.
         24    2    3    3    0    0  0.79138412386E+01 -0.63477681775E+02  0.22710731481E+03  0.24939033515E+03  0.80782187771E+02 0.  0.
         -6    2    1    2    0  501  0.27661891663E+02  0.92278438883E+02  0.55921450530E+03  0.59272116451E+03  0.17122215216E+03 0.  0.
        -24    2    5    5    0    0 -0.11562201860E+02 -0.13318304512E+02  0.18625970593E+03  0.20309753317E+03  0.79024478352E+02 0.  0.
          5    1    3    3  502    0 -0.35575732902E+02 -0.28800757108E+02  0.55943400996E+03  0.56132309580E+03  0.47000000000E+01 0. -1.
        -13    1    4    4    0    0  0.20725629160E+02  0.11111682088E+02  0.87312528832E+02  0.90423995012E+02  0.00000000000E+00 0.  1.
         14    1    4    4    0    0 -0.12811787922E+02 -0.74589363863E+02  0.13979478598E+03  0.15896634014E+03  0.00000000000E+00 0. -1.
         -5    1    5    5    0  501  0.39224093523E+02  0.10559674340E+03  0.37295479937E+03  0.38962363134E+03  0.47000000000E+01 0.  1.
         13    1    6    6    0    0 -0.37673687760E+02 -0.27028707747E+02  0.14603846525E+03  0.15322235844E+03  0.00000000000E+00 0. -1.
        -14    1    6    6    0    0  0.26111485900E+02  0.13710403235E+02  0.40221240681E+02  0.49875174733E+02  0.00000000000E+00 0.  1.
</event>
<event>
12    1  0.2576962E-002  0.1717800E+03  0.7818608E-02  0.1176004E+00
         -1   -1    0    0    0  501 -0.00000000000E+00  0.00000000000E+00  0.70859907127E+03  0.70859907127E+03  0.00000000000E+00 0. -1.
          1   -1    0    0  502    0  0.00000000000E+00 -0.00000000000E+00 -0.43834827827E+02  0.43834827827E+02  0.00000000000E+00 0.  1.
          6    2    1    2  502    0  0.23501774903E+01 -0.10044735300E+02  0.24846388514E+03  0.30212675410E+03  0.17158045718E+03 0.  0.
         24    2    3    3    0    0  0.53175323785E+02 -0.47119995405E+02  0.13830342283E+03  0.17518114424E+03  0.80701223680E+02 0.  0.
         -6    2    1    2    0  501 -0.23501774903E+01  0.10044735300E+02  0.41630035830E+03  0.45030714499E+03  0.17135961154E+03 0.  0.
        -24    2    5    5    0    0 -0.16235460014E+02 -0.62832175637E+01  0.87594980444E+02  0.12087017295E+03  0.81447216805E+02 0.  0.
          5    1    3    3  502    0 -0.50825146295E+02  0.37075260105E+02  0.11016046231E+03  0.12694560987E+03  0.47000000000E+01 0. -1.
        -13    1    4    4    0    0 -0.89546919084E+01  0.10302610351E+02  0.54182628570E+02  0.55875643406E+02  0.00000000000E+00 0.  1.
         14    1    4    4    0    0  0.62130015694E+02 -0.57422605756E+02  0.84120794258E+02  0.11930550083E+03  0.00000000000E+00 0. -1.
         -5    1    5    5    0  501  0.13885282524E+02  0.16327952864E+02  0.32870537786E+03  0.32943697204E+03  0.47000000000E+01 0.  1.
         13    1    6    6    0    0  0.15803170509E+02  0.22177941426E+02  0.68954336391E+02  0.74137047359E+02  0.00000000000E+00 0. -1.
        -14    1    6    6    0    0 -0.32038630523E+02 -0.28461158990E+02  0.18640644053E+02  0.46733125591E+02  0.00000000000E+00 0.  1.
</event>
<event>
12    1  0.2576962E-002  0.2130764E+03  0.7818608E-02  0.1139153E+00
         -2   -1    0    0    0  501 -0.00000000000E+00  0.00000000000E+00  0.38566981209E+02  0.38566981209E+02  0.00000000000E+00 0.  1.
          2   -1    0    0  502    0  0.00000000000E+00 -0.00000000000E+00 -0.28140272318E+04  0.28140272318E+04  0.00000000000E+00 0. -1.
          6    2    1    2  502    0 -0.79848414586E+02 -0.98939125552E+02 -0.24687263998E+04  0.24776952631E+04  0.16792575812E+03 0.  0.
         24    2    3    3    0    0 -0.57898957592E+02 -0.97029686544E+02 -0.10744286943E+04  0.10832155730E+04  0.78688685370E+02 0.  0.
         -6    2    1    2    0  501  0.79848414586E+02  0.98939125552E+02 -0.30673385087E+03  0.37489894991E+03  0.17406564134E+03 0.  0.
        -24    2    5    5    0    0  0.10848604108E+03  0.11311607006E+03 -0.22806875255E+03  0.28986138702E+03  0.86254283277E+02 0.  0.
          5    1    3    3  502    0 -0.21949456994E+02 -0.19094390084E+01 -0.13942977055E+04  0.13944796901E+04  0.47000000000E+01 0. -1.
        -13    1    4    4    0    0 -0.99455514156E+01 -0.88128854958E+02 -0.66268837293E+03  0.66859665620E+03  0.00000000000E+00 0.  1.
         14    1    4    4    0    0 -0.47953406176E+02 -0.89008315852E+01 -0.41174032134E+03  0.41461891682E+03  0.00000000000E+00 0. -1.
         -5    1    5    5    0  501 -0.28637626496E+02 -0.14176944508E+02 -0.78665098324E+02  0.85037562884E+02  0.47000000000E+01 0.  1.
         13    1    6    6    0    0  0.56859046193E+01  0.43952600347E+02 -0.11050611634E+03  0.11906201047E+03  0.00000000000E+00 0. -1.
        -14    1    6    6    0    0  0.10280013646E+03  0.69163469712E+02 -0.11756263621E+03  0.17079937656E+03  0.00000000000E+00 0.  1.
</event>
<event>
12    1  0.2576962E-002  0.1732489E+03  0.7818608E-02  0.1174501E+00
          2   -1    0    0  502    0  0.00000000000E+00  0.00000000000E+00  0.11521581877E+04  0.11521581877E+04  0.00000000000E+00 0. -1.
         -2   -1    0    0    0  501 -0.00000000000E+00 -0.00000000000E+00 -0.30752027376E+02  0.30752027376E+02  0.00000000000E+00 0.  1.
          6    2    1    2  502    0  0.22084258936E+02  0.15504752696E+02  0.33517928119E+03  0.37825715924E+03  0.17322013777E+03 0.  0.
         24    2    3    3    0    0  0.74325235875E+02  0.37782521408E+02  0.18651803992E+03  0.21904763280E+03  0.79000801335E+02 0.  0.
         -6    2    1    2    0  501 -0.22084258936E+02 -0.15504752696E+02  0.78622687917E+03  0.80465305587E+03  0.16907312899E+03 0.  0.
        -24    2    5    5    0    0  0.38385197797E+02  0.52228926654E+01  0.62237477449E+03  0.62871047237E+03  0.80161063703E+02 0.  0.
          5    1    3    3  502    0 -0.52240976940E+02 -0.22277768713E+02  0.14866124128E+03  0.15920952644E+03  0.47000000000E+01 0. -1.
        -13    1    4    4    0    0 -0.12745598105E+02  0.22196884677E+02  0.31716923662E+02  0.40756781117E+02  0.00000000000E+00 0.  1.
         14    1    4    4    0    0  0.87070833980E+02  0.15585636731E+02  0.15480111625E+03  0.17829085169E+03  0.00000000000E+00 0. -1.
         -5    1    5    5    0  501 -0.60469456733E+02 -0.20727645361E+02  0.16385210469E+03  0.17594258350E+03  0.47000000000E+01 0.  1.
         13    1    6    6    0    0  0.46483872897E+02 -0.21137988551E+02  0.24155211141E+03  0.24689063880E+03  0.00000000000E+00 0. -1.
        -14    1    6    6    0    0 -0.80986750997E+01  0.26360881217E+02  0.38082266308E+03  0.38181983358E+03  0.00000000000E+00 0.  1.
</event>
<event>
12    1  0.2576962E-002  0.2129716E+03  0.7818608E-02  0.1139234E+00
         -1   -1    0    0    0  501 -0.00000000000E+00  0.00000000000E+00  0.88927350268E+03  0.88927350268E+03  0.00000000000E+00 0. -1.
          1   -1    0    0  502    0  0.00000000000E+00 -0.00000000000E+00 -0.78391870590E+02  0.78391870590E+02  0.00000000000E+00 0.  1.
          6    2    1    2  502    0  0.26652554107E+02  0.11928990403E+03  0.11749758425E+03  0.24183780670E+03  0.17245116004E+03 0.  0.
         24    2    3    3    0    0  0.40679909338E+02  0.11724514747E+03  0.14732518113E+03  0.20848029991E+03  0.79737361543E+02 0.  0.
         -6    2    1    2    0  501 -0.26652554107E+02 -0.11928990403E+03  0.69338404783E+03  0.72582756657E+03  0.17636263425E+03 0.  0.
        -24    2    5    5    0    0  0.44281073019E+02 -0.52540994726E+02  0.24475777650E+03  0.26672559786E+03  0.80714347164E+02 0.  0.
          5    1    3    3  502    0 -0.14027355231E+02  0.20447565556E+01 -0.29827596871E+02  0.33357506790E+02  0.47000000000E+01 0. -1.
        -11    1    4    4    0    0  0.43672315836E+02  0.53793164464E+02  0.30928985522E+02  0.75878704911E+02  0.00000000000E+00 0.  1.
         12    1    4    4    0    0 -0.29924064979E+01  0.63451983009E+02  0.11639619560E+03  0.13260159500E+03  0.00000000000E+00 0. -1.
         -5    1    5    5    0  501 -0.70933627126E+02 -0.66748909303E+02  0.44862627133E+03  0.45910196871E+03  0.47000000000E+01 0.  1.
         13    1    6    6    0    0  0.36984147716E+01 -0.62984767033E+02  0.16453960341E+03  0.17622156576E+03  0.00000000000E+00 0. -1.
        -14    1    6    6    0    0  0.40582658247E+02  0.10443772307E+02  0.80218173098E+02  0.90504032096E+02  0.00000000000E+00 0.  1.
</event>
<event>
12    1  0.2576962E-002  0.1869998E+03  0.7818608E-02  0.1161196E+00
         -2   -1    0    0    0  501 -0.00000000000E+00  0.00000000000E+00  0.22530856386E+03  0.22530856386E+03  0.00000000000E+00 0.  1.
          2   -1    0    0  502    0  0.00000000000E+00 -0.00000000000E+00 -0.27990682490E+03  0.27990682490E+03  0.00000000000E+00 0. -1.
          6    2    1    2  502    0  0.71352700290E+02  0.15964410296E+02  0.14129033281E+03  0.23455187658E+03  0.17235299368E+03 0.  0.
         24    2    3    3    0    0 -0.22453120997E+02  0.25546855181E+02  0.55618784483E+02  0.10706438877E+03  0.84926731379E+02 0.  0.
         -6    2    1    2    0  501 -0.71352700290E+02 -0.15964410296E+02 -0.19588859384E+03  0.27066351218E+03  0.17187299204E+03 0.  0.
        -24    2    5    5    0    0 -0.40744364128E+01 -0.50911857778E+02 -0.51176112934E+02  0.10722703826E+03  0.79183488841E+02 0.  0.
          5    1    3    3  502    0  0.93805821287E+02 -0.95824448854E+01  0.85671548324E+02  0.12748748781E+03  0.47000000000E+01 0. -1.
        -13    1    4    4    0    0 -0.11700469386E+02  0.56552888407E+02  0.28042713277E+02  0.64199096092E+02  0.00000000000E+00 0.  1.
         14    1    4    4    0    0 -0.10752651611E+02 -0.31006033226E+02  0.27576071206E+02  0.42865292676E+02  0.00000000000E+00 0. -1.
         -5    1    5    5    0  501 -0.67278263877E+02  0.34947447482E+02 -0.14471248091E+03  0.16343647392E+03  0.47000000000E+01 0.  1.
         13    1    6    6    0    0  0.32553807387E+02 -0.16381861875E+02 -0.42771671433E+02  0.56191918023E+02  0.00000000000E+00 0. -1.
        -14    1    6    6    0    0 -0.36628243800E+02 -0.34529995903E+02 -0.84044415004E+01  0.51035120239E+02  0.00000000000E+00 0.  1.
</event>
<event>
12    1  0.2576962E-002  0.1912931E+03  0.7818608E-02  0.1157300E+00
          1   -1    0    0  502    0  0.00000000000E+00  0.00000000000E+00  0.10401150521E+04  0.10401150521E+04  0.00000000000E+00 0. -1.
         -1   -1    0    0    0  501 -0.00000000000E+00 -0.00000000000E+00 -0.61575412328E+02  0.61575412328E+02  0.00000000000E+00 0.  1.
          6    2    1    2  502    0 -0.76566294913E+02 -0.35132125203E+02  0.84964111058E+03  0.87086876428E+03  0.17153927853E+03 0.  0.
         24    2    3    3    0    0 -0.47482683753E+02 -0.89759965710E+02  0.54590810161E+03  0.56085926743E+03  0.78968384603E+02 0.  0.
         -6    2    1    2    0  501  0.76566294913E+02  0.35132125203E+02  0.12889852917E+03  0.23082170012E+03  0.17195104736E+03 0.  0.
        -24    2    5    5    0    0 -0.15323478872E+02  0.22004919354E+02  0.10566631607E+03  0.13502044864E+03  0.79662574136E+02 0.  0.
          5    1    3    3  502    0 -0.29083611160E+02  0.54627840506E+02  0.30373300897E+03  0.31000949685E+03  0.47000000000E+01 0. -1.
        -11    1    4    4    0    0  0.11519947266E+02  0.77809070545E+01  0.42943665589E+02  0.45137679535E+02  0.00000000000E+00 0.  1.
         12    1    4    4    0    0 -0.59002631019E+02 -0.97540872764E+02  0.50296443602E+03  0.51572158790E+03  0.00000000000E+00 0. -1.
         -5    1    5    5    0  501  0.91889773785E+02  0.13127205850E+02  0.23232213092E+02  0.95801251479E+02  0.47000000000E+01 0.  1.
         11    1    6    6    0    0 -0.31074194305E+02 -0.21498974851E+02  0.47239375388E+02  0.60492727318E+02  0.00000000000E+00 0. -1.
        -12    1    6    6    0    0  0.15750715433E+02  0.43503894204E+02  0.58426940685E+02  0.74527721322E+02  0.00000000000E+00 0.  1.
</event>
<event>
12    1  0.2576962E-002  0.2233228E+03  0.7818608E-02  0.1131430E+00
         -1   -1    0    0    0  501 -0.00000000000E+00  0.00000000000E+00  0.95339992855E+02  0.95339992855E+02  0.00000000000E+00 0.  1.
          1   -1    0    0  502    0  0.00000000000E+00 -0.00000000000E+00 -0.64701567033E+03  0.64701567033E+03  0.00000000000E+00 0. -1.
          6    2    1    2  502    0  0.14469483033E+03 -0.91391098850E+01 -0.43692606202E+03  0.49008782928E+03  0.16811180650E+03 0.  0.
         24    2    3    3    0    0  0.17378536752E+03 -0.60637454920E+01 -0.37177423744E+03  0.41851571553E+03  0.81860842587E+02 0.  0.
         -6    2    1    2    0  501 -0.14469483033E+03  0.91391098850E+01 -0.11474961545E+03  0.25226783390E+03  0.17161430162E+03 0.  0.
        -24    2    5    5    0    0 -0.16667082455E+03  0.25408522690E+02 -0.12329904439E+03  0.22323645691E+03  0.78785179853E+02 0.  0.
          5    1    3    3  502    0 -0.29090537193E+02 -0.30753643930E+01 -0.65151824584E+02  0.71572113752E+02  0.47000000000E+01 0. -1.
        -11    1    4    4    0    0  0.35623542650E+02 -0.33070984004E+02 -0.66754680055E+02  0.82576716350E+02  0.00000000000E+00 0.  1.
         12    1    4    4    0    0  0.13816182487E+03  0.27007238512E+02 -0.30501955739E+03  0.33593899918E+03  0.00000000000E+00 0. -1.
         -5    1    5    5    0  501  0.21975994214E+02 -0.16269412805E+02  0.85494289428E+01  0.29031376991E+02  0.47000000000E+01 0.  1.
         13    1    6    6    0    0 -0.11453115279E+03  0.21016619558E+02 -0.36759018022E+02  0.12210777478E+03  0.00000000000E+00 0. -1.
        -14    1    6    6    0    0 -0.52139671758E+02  0.43919031327E+01 -0.86540026369E+02  0.10112868212E+03  0.00000000000E+00 0.  1.
</event>
<event>
12    1  0.2576962E-002  0.1775424E+03  0.7818608E-02  0.1170203E+00
         -1   -1    0    0    0  501 -0.00000000000E+00  0.00000000000E+00  0.20272880552E+02  0.20272880552E+02  0.00000000000E+00 0.  1.
          1   -1    0    0  502    0  0.00000000000E+00 -0.00000000000E+00 -0.19352168877E+04  0.19352168877E+04  0.00000000000E+00 0. -1.
          6    2    1    2  502    0  0.42789103370E+02 -0.12992476585E+02 -0.52318320631E+03  0.55242651042E+03  0.17162362961E+03 0.  0.
         24    2    3    3    0    0 -0.26119072868E+02  0.21982841421E+02 -0.16151744358E+03  0.18256731620E+03  0.77958252158E+02 0.  0.
         -6    2    1    2    0  501 -0.42789103370E+02  0.12992476585E+02 -0.13917608009E+04  0.14030632578E+04  0.17201356603E+03 0.  0.
        -24    2    5    5    0    0 -0.52671650072E+02 -0.24957091884E+02 -0.12915987968E+04  0.12953954746E+04  0.80155004582E+02 0.  0.
          5    1    3    3  502    0  0.68908176238E+02 -0.34975318007E+02 -0.36166576272E+03  0.36985919422E+03  0.47000000000E+01 0. -1.
        -13    1    4    4    0    0 -0.10276961876E+02 -0.23364913312E+02 -0.18024365994E+02  0.31247606131E+02  0.00000000000E+00 0.  1.
         14    1    4    4    0    0 -0.15842110992E+02  0.45347754733E+02 -0.14349307759E+03  0.15131971007E+03  0.00000000000E+00 0. -1.
         -5    1    5    5    0  501  0.98825467017E+01  0.37949568470E+02 -0.10016200409E+03  0.10766778321E+03  0.47000000000E+01 0.  1.
         11    1    6    6    0    0  0.78934675393E+01 -0.20079984595E+02 -0.10254442349E+03  0.10478965311E+03  0.00000000000E+00 0. -1.
        -12    1    6    6    0    0 -0.60565117611E+02 -0.48771072891E+01 -0.11890543733E+04  0.11906058215E+04  0.00000000000E+00 0.  1.
</event>
<event>
12    1  0.2576962E-002  0.2731617E+03  0.7818608E-02  0.1099484E+00
          2   -1    0    0  502    0  0.00000000000E+00  0.00000000000E+00  0.19773283565E+03  0.19773283565E+03  0.00000000000E+00 0.  1.
         -2   -1    0    0    0  501 -0.00000000000E+00 -0.00000000000E+00 -0.54984372962E+03  0.54984372962E+03  0.00000000000E+00 0. -1.
          6    2    1    2  502    0  0.10562488991E+03  0.17543313712E+03  0.35942039456E+02  0.26929553227E+03  0.17115738528E+03 0.  0.
         24    2    3    3    0    0  0.12866081168E+03  0.13275650054E+03  0.65439469546E+02  0.21233820278E+03  0.81408201591E+02 0.  0.
         -6    2    1    2    0  501 -0.10562488991E+03 -0.17543313712E+03 -0.38805293343E+03  0.47828103300E+03  0.19035299951E+03 0.  0.
        -24    2    5    5    0    0 -0.52799309394E+02 -0.19650280095E+03 -0.27046986529E+03  0.34758160452E+03  0.79106927151E+02 0.  0.
          5    1    3    3  502    0 -0.23035921776E+02  0.42676636574E+02 -0.29497430090E+02  0.56957329495E+02  0.47000000000E+01 0. -1.
        -11    1    4    4    0    0  0.55374871345E+02  0.14768366819E+02 -0.32164688137E+01  0.57400581065E+02  0.00000000000E+00 0.  1.
         12    1    4    4    0    0  0.73285940337E+02  0.11798813372E+03  0.68655938360E+02  0.15493762171E+03  0.00000000000E+00 0. -1.
         -5    1    5    5    0  501 -0.52825580512E+02  0.21069663832E+02 -0.11758306814E+03  0.13069942848E+03  0.47000000000E+01 0.  1.
         11    1    6    6    0    0  0.71605775454E+01 -0.12256219305E+03 -0.16193064972E+03  0.20320999079E+03  0.00000000000E+00 0. -1.
        -12    1    6    6    0    0 -0.59959886939E+02 -0.73940607894E+02 -0.10853921557E+03  0.14437161374E+03  0.00000000000E+00 0.  1.
</event>
<event>
12    1  0.2576962E-002  0.2152587E+03  0.7818608E-02  0.1137468E+00
         -1   -1    0    0    0  501 -0.00000000000E+00  0.00000000000E+00  0.12148682093E+03  0.12148682093E+03  0.00000000000E+00 0. -1.
          1   -1    0    0  502    0  0.00000000000E+00 -0.00000000000E+00 -0.44504651659E+03  0.44504651659E+03  0.00000000000E+00 0.  1.
          6    2    1    2  502    0  0.10986114467E+03 -0.67501748850E+02 -0.26845370192E+03  0.34367586381E+03  0.17152187057E+03 0.  0.
         24    2    3    3    0    0  0.10843928179E+03 -0.71506937283E+02 -0.28653560886E+03  0.32451578586E+03  0.79595981118E+02 0.  0.
         -6    2    1    2    0  501 -0.10986114467E+03  0.67501748850E+02 -0.55105993736E+02  0.22285747371E+03  0.17321323806E+03 0.  0.
        -24    2    5    5    0    0 -0.77098665603E+02  0.84801756806E+02  0.19577730825E+02  0.13935646160E+03  0.76820528830E+02 0.  0.
          5    1    3    3  502    0  0.14218628816E+01  0.40051884332E+01  0.18081906941E+02  0.19160077951E+02  0.47000000000E+01 0. -1.
        -11    1    4    4    0    0  0.45634867591E+02 -0.74293171179E+02 -0.19344051036E+03  0.21218210921E+03  0.00000000000E+00 0.  1.
         12    1    4    4    0    0  0.62804414202E+02  0.27862338961E+01 -0.93095098506E+02  0.11233367664E+03  0.00000000000E+00 0. -1.
         -5    1    5    5    0  501 -0.32762479071E+02 -0.17300007957E+02 -0.74683724561E+02  0.83501012117E+02  0.47000000000E+01 0.  1.
         13    1    6    6    0    0 -0.76142510290E+02  0.38262566011E+02 -0.74315354174E+01  0.85539076156E+02  0.00000000000E+00 0. -1.
        -14    1    6    6    0    0 -0.95615531356E+00  0.46539190796E+02  0.27009266242E+02  0.53817385442E+02  0.00000000000E+00 0.  1.
</event>
<event>
12    1  0.2576962E-002  0.1891142E+03  0.7818608E-02  0.1159263E+00
         -4   -1    0    0    0  501 -0.00000000000E+00  0.00000000000E+00  0.94773065262E+02  0.94773065262E+02  0.00000000000E+00 0. -1.
          4   -1    0    0  502    0  0.00000000000E+00 -0.00000000000E+00 -0.40336245416E+03  0.40336245416E+03  0.00000000000E+00 0.  1.
          6    2    1    2  502    0 -0.29164903567E+02 -0.73248272883E+02 -0.90919412051E+02  0.20966245081E+03  0.17168605858E+03 0.  0.
         24    2    3    3    0    0 -0.93917333041E+01  0.26247616926E+02 -0.41217013559E+02  0.96601278131E+02  0.82799895417E+02 0.  0.
         -6    2    1    2    0  501  0.29164903567E+02  0.73248272883E+02 -0.21766997685E+03  0.28847306861E+03  0.17210633752E+03 0.  0.
        -24    2    5    5    0    0  0.62425517068E+02  0.10093313735E+03 -0.13920498969E+03  0.19874255908E+03  0.77692549439E+02 0.  0.
          5    1    3    3  502    0 -0.19773170263E+02 -0.99495889809E+02 -0.49702398492E+02  0.11306117268E+03  0.47000000000E+01 0. -1.
        -13    1    4    4    0    0  0.23142264897E+01  0.14278212270E+02 -0.65515606783E+02  0.67093350803E+02  0.00000000000E+00 0.  1.
         14    1    4    4    0    0 -0.11705959794E+02  0.11969404656E+02  0.24298593224E+02  0.29507927328E+02  0.00000000000E+00 0. -1.
         -5    1    5    5    0  501 -0.33260613502E+02 -0.27684864471E+02 -0.78464987160E+02  0.89730509534E+02  0.47000000000E+01 0.  1.
         13    1    6    6    0    0  0.56297916813E+02  0.54570912974E+02 -0.12887225046E+03  0.15084925230E+03  0.00000000000E+00 0. -1.
        -14    1    6    6    0    0  0.61276002554E+01  0.46362224379E+02 -0.10332739224E+02  0.47893306778E+02  0.00000000000E+00 0.  1.
</event>
<event>
12    1  0.2576962E-002  0.2300693E+03  0.7818608E-02  0.1126591E+00
         -1   -1    0    0    0  501 -0.00000000000E+00  0.00000000000E+00  0.54959404092E+02  0.54959404092E+02  0.00000000000E+00 0. -1.
          1   -1    0    0  502    0  0.00000000000E+00 -0.00000000000E+00 -0.18933377779E+04  0.18933377779E+04  0.00000000000E+00 0.  1.
          6    2    1    2  502    0  0.14051969116E+01  0.15067464954E+03 -0.15987119838E+04  0.16149540226E+04  0.17173136970E+03 0.  0.
         24    2    3    3    0    0 -0.68040494030E+02  0.78495836745E+02 -0.81007904593E+03  0.81997195631E+03  0.73040011443E+02 0.  0.
         -6    2    1    2    0  501 -0.14051969116E+01 -0.15067464954E+03 -0.23966639002E+03  0.33334315942E+03  0.17599107600E+03 0.  0.
        -24    2    5    5    0    0 -0.40510151863E+02 -0.35249729131E+02 -0.53201892551E+02  0.11053559992E+03  0.80647762957E+02 0.  0.
          5    1    3    3  502    0  0.69445690942E+02  0.72178812796E+02 -0.78863293787E+03  0.79498206628E+03  0.47000000000E+01 0. -1.
        -11    1    4    4    0    0 -0.39685525515E+02  0.87506428155E+02 -0.56773599583E+03  0.57580941019E+03  0.00000000000E+00 0.  1.
         12    1    4    4    0    0 -0.28354968516E+02 -0.90105914100E+01 -0.24234305010E+03  0.24416254612E+03  0.00000000000E+00 0. -1.
         -5    1    5    5    0  501  0.39104954952E+02 -0.11542492041E+03 -0.18646449747E+03  0.22280755950E+03  0.47000000000E+01 0.  1.
         13    1    6    6    0    0 -0.15200632306E+02 -0.59635369509E+02 -0.37265065953E+02  0.71945268499E+02  0.00000000000E+00 0. -1.
        -14    1    6    6    0    0 -0.25309519557E+02  0.24385640378E+02 -0.15936826598E+02  0.38590331417E+02  0.00000000000E+00 0.  1.
</event>
<event>
12    1  0.2576962E-002  0.1892545E+03  0.7818608E-02  0.1159135E+00
          2   -1    0    0  502    0  0.00000000000E+00  0.00000000000E+00  0.14276887960E+03  0.14276887960E+03  0.00000000000E+00 0. -1.
         -2   -1    0    0    0  501 -0.00000000000E+00 -0.00000000000E+00 -0.25118156369E+03  0.25118156369E+03  0.00000000000E+00 0.  1.
          6    2    1    2  502    0  0.76121540948E+02  0.12033496234E+02 -0.47136176117E+02  0.19413382427E+03  0.17183372370E+03 0.  0.
         24    2    3    3    0    0  0.36883383203E+01 -0.38388470127E+02  0.99437845912E+01  0.88923770337E+02  0.79506475212E+02 0.  0.
         -6    2    1    2    0  501 -0.76121540948E+02 -0.12033496234E+02 -0.61276507977E+02  0.19981661901E+03  0.17387517585E+03 0.  0.
        -24    2    5    5    0    0 -0.45483835683E+02 -0.76807255306E+02 -0.39796956015E+02  0.12486483451E+03  0.77712903769E+02 0.  0.
          5    1    3    3  502    0  0.72433202628E+02  0.50421966361E+02 -0.57079960708E+02  0.10521005394E+03  0.47000000000E+01 0. -1.
        -13    1    4    4    0    0  0.76335001003E+01 -0.42503737028E+02 -0.27402907689E+02  0.51144475116E+02  0.00000000000E+00 0.  1.
         14    1    4    4    0    0 -0.39451617800E+01  0.41152669003E+01  0.37346692280E+02  0.37779295221E+02  0.00000000000E+00 0. -1.
         -5    1    5    5    0  501 -0.30637705265E+02  0.64773759072E+02 -0.21479551962E+02  0.74951784507E+02  0.47000000000E+01 0.  1.
         11    1    6    6    0    0 -0.45376686238E+02 -0.84882898323E+02 -0.13300796126E+02  0.97165123678E+02  0.00000000000E+00 0. -1.
        -12    1    6    6    0    0 -0.10714944453E+00  0.80756430172E+01 -0.26496159889E+02  0.27699710829E+02  0.00000000000E+00 0.  1.
</event>
<event>
12    1  0.2576962E-002  0.1793533E+03  0.7818608E-02  0.1168430E+00
         -2   -1    0    0    0  501 -0.00000000000E+00  0.00000000000E+00  0.86447563679E+02  0.86447563679E+02  0.00000000000E+00 0. -1.
          2   -1    0    0  502    0  0.00000000000E+00 -0.00000000000E+00 -0.39665654662E+03  0.39665654662E+03  0.00000000000E+00 0.  1.
          6    2    1    2  502    0 -0.53953687912E+02 -0.37717609545E+02 -0.21894852232E+03  0.28633742417E+03  0.17238632934E+03 0.  0.
         24    2    3    3    0    0 -0.28178105403E+02 -0.85155934069E+02 -0.94901749456E+02  0.15096952861E+03  0.75762245143E+02 0.  0.
         -6    2    1    2    0  501  0.53953687912E+02  0.37717609545E+02 -0.91260460615E+02  0.19676668613E+03  0.16141573216E+03 0.  0.
        -24    2    5    5    0    0  0.70188467086E+02  0.77729931944E+02 -0.61560847101E+02  0.14414814338E+03  0.77592435914E+02 0.  0.
          5    1    3    3  502    0 -0.25775582510E+02  0.47438324524E+02 -0.12404677287E+03  0.13536789555E+03  0.47000000000E+01 0. -1.
        -11    1    4    4    0    0  0.20230700392E+02 -0.20641072881E+01 -0.24208085541E+02  0.31616027309E+02  0.00000000000E+00 0.  1.
         12    1    4    4    0    0 -0.48408805795E+02 -0.83091826781E+02 -0.70693663915E+02  0.11935350131E+03  0.00000000000E+00 0. -1.
         -5    1    5    5    0  501 -0.16234779174E+02 -0.40012322399E+02 -0.29699613514E+02  0.52618542753E+02  0.47000000000E+01 0.  1.
         13    1    6    6    0    0  0.10395670914E+02  0.58227406106E+02 -0.46535855771E+01  0.59330908086E+02  0.00000000000E+00 0. -1.
        -14    1    6    6    0    0  0.59792796172E+02  0.19502525838E+02 -0.56907261524E+02  0.84817235290E+02  0.00000000000E+00 0.  1.
</event>
<event>
12    1  0.2576962E-002  0.2521241E+03  0.7818608E-02  0.1111970E+00
          2   -1    0    0  502    0  0.00000000000E+00  0.00000000000E+00  0.63041811529E+03  0.63041811529E+03  0.00000000000E+00 0. -1.
         -2   -1    0    0    0  501 -0.00000000000E+00 -0.00000000000E+00 -0.15604797682E+03  0.15604797682E+03  0.00000000000E+00 0.  1.
          6    2    1    2  502    0  0.14711741361E+03  0.11169999196E+03  0.29991030706E+01  0.25168951591E+03  0.17093330924E+03 0.  0.
         24    2    3    3    0    0  0.48446724294E+02  0.61054511619E+01 -0.40093351547E+02  0.10080823271E+03  0.78552283955E+02 0.  0.
         -6    2    1    2    0  501 -0.14711741361E+03 -0.11169999196E+03  0.47137103539E+03  0.53477657620E+03  0.17226407594E+03 0.  0.
        -24    2    5    5    0    0 -0.55080931092E+02 -0.80230080222E+02  0.13389559553E+03  0.18353188661E+03  0.79278926316E+02 0.  0.
          5    1    3    3  502    0  0.98670689312E+02  0.10559454079E+03  0.43092454617E+02  0.15088128320E+03  0.47000000000E+01 0. -1.
        -11    1    4    4    0    0 -0.16865925972E+02 -0.73124821731E+01 -0.27304591871E+02  0.32916144848E+02  0.00000000000E+00 0.  1.
         12    1    4    4    0    0  0.65312650266E+02  0.13417933335E+02 -0.12788759675E+02  0.67892087859E+02  0.00000000000E+00 0. -1.
         -5    1    5    5    0  501 -0.92036482515E+02 -0.31469911734E+02  0.33747543986E+03  0.35124468959E+03  0.47000000000E+01 0.  1.
         13    1    6    6    0    0 -0.39725114418E+02 -0.20857167321E+02  0.10802435257E+03  0.11697164995E+03  0.00000000000E+00 0. -1.
        -14    1    6    6    0    0 -0.15355816674E+02 -0.59372912901E+02  0.25871242966E+02  0.66560236663E+02  0.00000000000E+00 0.  1.
</event>
<event>
12    1  0.2576962E-002  0.1874522E+03  0.7818608E-02  0.1160780E+00
          1   -1    0    0  502    0  0.00000000000E+00  0.00000000000E+00  0.95810212430E+02  0.95810212430E+02  0.00000000000E+00 0. -1.
         -1   -1    0    0    0  501 -0.00000000000E+00 -0.00000000000E+00 -0.36829663630E+03  0.36829663630E+03  0.00000000000E+00 0.  1.
          6    2    1    2  502    0  0.49282895125E+02  0.54620817206E+02 -0.12113023940E+03  0.22309859166E+03  0.17230266766E+03 0.  0.
         24    2    3    3    0    0  0.67450095935E+02  0.44757768361E+01 -0.13107653792E+02  0.10253515915E+03  0.75974339442E+02 0.  0.
         -6    2    1    2    0  501 -0.49282895125E+02 -0.54620817206E+02 -0.15135618448E+03  0.24100825707E+03  0.17252260134E+03 0.  0.
        -24    2    5    5    0    0 -0.94233894825E+02 -0.33308346584E+02 -0.68123723607E+02  0.14392815447E+03  0.78006403875E+02 0.  0.
          5    1    3    3  502    0 -0.18167200810E+02  0.50145040369E+02 -0.10802258560E+03  0.12056343251E+03  0.47000000000E+01 0. -1.
        -13    1    4    4    0    0  0.39348370825E+02 -0.76530706010E+01 -0.43672173752E+02  0.59280034888E+02  0.00000000000E+00 0.  1.
         14    1    4    4    0    0  0.28101725111E+02  0.12128847437E+02  0.30564519960E+02  0.43255124260E+02  0.00000000000E+00 0. -1.
         -5    1    5    5    0  501  0.44950999700E+02 -0.21312470621E+02 -0.83232460870E+02  0.97080102598E+02  0.47000000000E+01 0.  1.
         11    1    6    6    0    0 -0.30865957245E+02 -0.51028333292E+02 -0.21966394920E+02  0.63554076352E+02  0.00000000000E+00 0. -1.
        -12    1    6    6    0    0 -0.63367937580E+02  0.17719986708E+02 -0.46157328686E+02  0.80374078119E+02  0.00000000000E+00 0.  1.
</event>
<event>
12    1  0.2576962E-002  0.1844491E+03  0.7818608E-02  0.1163565E+00
         -1   -1    0    0    0  501 -0.00000000000E+00  0.00000000000E+00  0.77897112314E+02  0.77897112314E+02  0.00000000000E+00 0.  1.
          1   -1    0    0  502    0  0.00000000000E+00 -0.00000000000E+00 -0.43925514547E+03  0.43925514547E+03  0.00000000000E+00 0. -1.
          6    2    1    2  502    0  0.54723212169E+02 -0.28539523301E+02 -0.16353513202E+03  0.24816651786E+03  0.17616397714E+03 0.  0.
         24    2    3    3    0    0  0.93806280798E+02 -0.54156780691E+02 -0.14389528062E+03  0.19725930921E+03  0.80453763577E+02 0.  0.
         -6    2    1    2    0  501 -0.54723212169E+02  0.28539523301E+02 -0.19782290114E+03  0.26898573993E+03  0.17149429649E+03 0.  0.
        -24    2    5    5    0    0 -0.33424165942E+01  0.55830825547E+02 -0.18350324883E+03  0.20888629089E+03  0.82654626977E+02 0.  0.
          5    1    3    3  502    0 -0.39083068629E+02  0.25617257389E+02 -0.19639851399E+02  0.50907208651E+02  0.47000000000E+01 0. -1.
        -11    1    4    4    0    0  0.67939799352E+02 -0.74980661661E+02 -0.11564842670E+03  0.15366351082E+03  0.00000000000E+00 0.  1.
         12    1    4    4    0    0  0.25866481446E+02  0.20823880970E+02 -0.28246853926E+02  0.43595798396E+02  0.00000000000E+00 0. -1.
         -5    1    5    5    0  501 -0.51380795575E+02 -0.27291302246E+02 -0.14319652312E+02  0.60099449037E+02  0.47000000000E+01 0.  1.
         11    1    6    6    0    0 -0.30799222278E+02  0.64002003639E+02 -0.12591458869E+03  0.14456601332E+03  0.00000000000E+00 0. -1.
        -12    1    6    6    0    0  0.27456805684E+02 -0.81711780916E+01 -0.57588660142E+02  0.64320277570E+02  0.00000000000E+00 0.  1.
</event>
<event>
12    1  0.2576962E-002  0.1779298E+03  0.7818608E-02  0.1169822E+00
         -2   -1    0    0    0  501 -0.00000000000E+00  0.00000000000E+00  0.36089761245E+03  0.36089761245E+03  0.00000000000E+00 0. -1.
          2   -1    0    0  502    0  0.00000000000E+00 -0.00000000000E+00 -0.10107735286E+03  0.10107735286E+03  0.00000000000E+00 0.  1.
          6    2    1    2  502    0 -0.40454390809E+02  0.40917518379E+02  0.21366670241E+03  0.27784703381E+03  0.16803188219E+03 0.  0.
         24    2    3    3    0    0 -0.62555726331E+02  0.22372745944E+02  0.22360082021E+03  0.24697383648E+03  0.81147954066E+02 0.  0.
         -6    2    1    2    0  501  0.40454390809E+02 -0.40917518379E+02  0.46153557174E+02  0.18412793150E+03  0.16870727095E+03 0.  0.
        -24    2    5    5    0    0  0.20983866806E+02  0.37620991747E+02  0.73570768310E+00  0.91217921649E+02  0.80402153441E+02 0.  0.
          5    1    3    3  502    0  0.22101335522E+02  0.18544772435E+02 -0.99341178043E+01  0.30873197325E+02  0.47000000000E+01 0. -1.
        -13    1    4    4    0    0 -0.11369986406E+02  0.43011917994E+02  0.13914288265E+03  0.14608231745E+03  0.00000000000E+00 0.  1.
         14    1    4    4    0    0 -0.51185739925E+02 -0.20639172050E+02  0.84457937565E+02  0.10089151903E+03  0.00000000000E+00 0. -1.
         -5    1    5    5    0  501  0.19470524003E+02 -0.78538510126E+02  0.45417849491E+02  0.92910009849E+02  0.47000000000E+01 0.  1.
         11    1    6    6    0    0  0.35858102098E+02  0.47157363382E+02  0.22334966288E+02  0.63312487917E+02  0.00000000000E+00 0. -1.
        -12    1    6    6    0    0 -0.14874235291E+02 -0.95363716358E+01 -0.21599258605E+02  0.27905433732E+02  0.00000000000E+00 0.  1.
</event>
<event>
12    1  0.2576962E-002  0.3353026E+03  0.7818608E-02  0.1068814E+00
         -2   -1    0    0    0  501 -0.00000000000E+00  0.00000000000E+00  0.58475831865E+02  0.58475831865E+02  0.00000000000E+00 0.  1.
          2   -1    0    0  502    0  0.00000000000E+00 -0.00000000000E+00 -0.19280769483E+04  0.19280769483E+04  0.00000000000E+00 0. -1.
          6    2    1    2  502    0  0.24889135037E+03 -0.14592999878E+03 -0.98578615400E+03  0.10410494298E+04  0.16960868187E+03 0.  0.
         24    2    3    3    0    0  0.25735200312E+03 -0.98573769580E+02 -0.84139105387E+03  0.88877917650E+03  0.77734660789E+02 0.  0.
         -6    2    1    2    0  501 -0.24889135037E+03  0.14592999878E+03 -0.88381496239E+03  0.94550335035E+03  0.17206170100E+03 0.  0.
        -24    2    5    5    0    0 -0.91797938809E+02  0.37684763587E+00 -0.34142023634E+03  0.36234111854E+03  0.79349258477E+02 0.  0.
          5    1    3    3  502    0 -0.84606527473E+01 -0.47356229196E+02 -0.14439510013E+03  0.15227025327E+03  0.47000000000E+01 0. -1.
        -13    1    4    4    0    0  0.15357270260E+03 -0.30763915928E+02 -0.37971344803E+03  0.41074724116E+03  0.00000000000E+00 0.  1.
         14    1    4    4    0    0  0.10377930052E+03 -0.67809853652E+02 -0.46167760584E+03  0.47803193534E+03  0.00000000000E+00 0. -1.
         -5    1    5    5    0  501 -0.15709341156E+03  0.14555315114E+03 -0.54239472605E+03  0.58316223181E+03  0.47000000000E+01 0.  1.
         11    1    6    6    0    0  0.70474690865E+00 -0.22953490872E+02 -0.39309268050E+02  0.45525574857E+02  0.00000000000E+00 0. -1.
        -12    1    6    6    0    0 -0.92502685717E+02  0.23330338508E+02 -0.30211096829E+03  0.31681554368E+03  0.00000000000E+00 0.  1.
</event>
<event>
12    1  0.2576962E-002  0.1866672E+03  0.7818608E-02  0.1161502E+00
          3   -1    0    0  502    0  0.00000000000E+00  0.00000000000E+00  0.19679553266E+03  0.19679553266E+03  0.00000000000E+00 0. -1.
         -3   -1    0    0    0  501 -0.00000000000E+00 -0.00000000000E+00 -0.18217084447E+03  0.18217084447E+03  0.00000000000E+00 0.  1.
          6    2    1    2  502    0  0.63967475503E+02  0.39945272377E+02  0.39071222991E+02  0.19161544067E+03  0.17176278389E+03 0.  0.
         24    2    3    3    0    0  0.52839281140E+02 -0.32122601865E+02  0.56580026765E+02  0.11647381827E+03  0.80876447328E+02 0.  0.
         -6    2    1    2    0  501 -0.63967475503E+02 -0.39945272377E+02 -0.24446534798E+02  0.18735093646E+03  0.16975063364E+03 0.  0.
        -24    2    5    5    0    0  0.12554307716E+02  0.19855031572E+02 -0.31086232545E+02  0.89894098596E+02  0.81010876971E+02 0.  0.
          5    1    3    3  502    0  0.11128194362E+02  0.72067874241E+02 -0.17508803775E+02  0.75141622401E+02  0.47000000000E+01 0. -1.
        -13    1    4    4    0    0  0.29816236061E+02 -0.18086304938E+02 -0.16498906403E+02  0.38578961516E+02  0.00000000000E+00 0.  1.
         14    1    4    4    0    0  0.23023045080E+02 -0.14036296927E+02  0.73078933169E+02  0.77894856757E+02  0.00000000000E+00 0. -1.
         -5    1    5    5    0  501 -0.76521783219E+02 -0.59800303949E+02  0.66396977471E+01  0.97456837859E+02  0.47000000000E+01 0.  1.
         11    1    6    6    0    0  0.22520289783E+02  0.27133661128E+02  0.17781951506E+02  0.39491731001E+02  0.00000000000E+00 0. -1.
        -12    1    6    6    0    0 -0.99659820670E+01 -0.72786295556E+01 -0.48868184051E+02  0.50402367595E+02  0.00000000000E+00 0.  1.
</event>
<event>
12    1  0.2576962E-002  0.2563213E+03  0.7818608E-02  0.1109374E+00
          2   -1    0    0  502    0  0.00000000000E+00  0.00000000000E+00  0.30695664973E+04  0.30695664973E+04  0.00000000000E+00 0. -1.
         -2   -1    0    0    0  501 -0.00000000000E+00 -0.00000000000E+00 -0.22412030876E+02  0.22412030876E+02  0.00000000000E+00 0.  1.
          6    2    1    2  502    0 -0.57595867771E+02  0.18123837287E+03  0.18459075217E+04  0.18634858907E+04  0.17041260020E+03 0.  0.
         24    2    3    3    0    0 -0.68389035508E+02  0.67692112526E+02  0.71857844653E+03  0.73039181716E+03  0.88645025177E+02 0.  0.
         -6    2    1    2    0  501  0.57595867771E+02 -0.18123837287E+03  0.12012469447E+04  0.12284926375E+04  0.17330697156E+03 0.  0.
        -24    2    5    5    0    0  0.82293272170E+02 -0.18865873150E+03  0.92468957505E+03  0.95069578326E+03  0.80046002257E+02 0.  0.
          5    1    3    3  502    0  0.10793167738E+02  0.11354626035E+03  0.11273290752E+04  0.11330940735E+04  0.47000000000E+01 0. -1.
        -11    1    4    4    0    0  0.19222859743E+02  0.22360910081E+02  0.23595249993E+03  0.23778795357E+03  0.00000000000E+00 0.  1.
         12    1    4    4    0    0 -0.87611895251E+02  0.45331202445E+02  0.48262594660E+03  0.49260386360E+03  0.00000000000E+00 0. -1.
         -5    1    5    5    0  501 -0.24697404399E+02  0.74203586271E+01  0.27655736968E+03  0.27779685424E+03  0.47000000000E+01 0.  1.
         13    1    6    6    0    0  0.62198146096E+02 -0.54381541344E+02  0.42085104169E+03  0.42888408773E+03  0.00000000000E+00 0. -1.
        -14    1    6    6    0    0  0.20095126074E+02 -0.13427719016E+03  0.50383853336E+03  0.52181169553E+03  0.00000000000E+00 0.  1.
</event>
<event>
12    1  0.2576962E-002  0.1807220E+03  0.7818608E-02  0.1167106E+00
         -2   -1    0    0    0  501 -0.00000000000E+00  0.00000000000E+00  0.18852380473E+03  0.18852380473E+03  0.00000000000E+00 0. -1.
          2   -1    0    0  502    0  0.00000000000E+00 -0.00000000000E+00 -0.33217869072E+03  0.33217869072E+03  0.00000000000E+00 0.  1.
          6    2    1    2  502    0 -0.29647410443E+02 -0.38593518966E+02  0.10775016941E+03  0.21243525504E+03  0.17649422065E+03 0.  0.
         24    2    3    3    0    0 -0.42714805114E+02  0.27480609151E+02  0.12791378654E+02  0.95919980711E+02  0.80357232883E+02 0.  0.
         -6    2    1    2    0  501  0.29647410443E+02  0.38593518966E+02 -0.25140505539E+03  0.30826724041E+03  0.17162680729E+03 0.  0.
        -24    2    5    5    0    0  0.17262701583E+02  0.90658558609E+02 -0.19819969660E+03  0.23265606682E+03  0.79553444820E+02 0.  0.
          5    1    3    3  502    0  0.13067394671E+02 -0.66074128117E+02  0.94958790755E+02  0.11651527433E+03  0.47000000000E+01 0. -1.
        -13    1    4    4    0    0 -0.22844131858E+01 -0.43928255012E+00 -0.30407366060E+02  0.30496219822E+02  0.00000000000E+00 0.  1.
         14    1    4    4    0    0 -0.40430391928E+02  0.27919891701E+02  0.43198744713E+02  0.65423760889E+02  0.00000000000E+00 0. -1.
         -5    1    5    5    0  501  0.12384708860E+02 -0.52065039643E+02 -0.53205358793E+02  0.75611173584E+02  0.47000000000E+01 0.  1.
         13    1    6    6    0    0 -0.30794318556E+02  0.31306941163E+02 -0.55149929021E+02  0.70497725433E+02  0.00000000000E+00 0. -1.
        -14    1    6    6    0    0  0.48057020139E+02  0.59351617446E+02 -0.14304976758E+03  0.16215834139E+03  0.00000000000E+00 0.  1.
</event>
<event>
12    1  0.2576962E-002  0.2866353E+03  0.7818608E-02  0.1092119E+00
         -2   -1    0    0    0  501 -0.00000000000E+00  0.00000000000E+00  0.65094444169E+03  0.65094444169E+03  0.00000000000E+00 0. -1.
          2   -1    0    0  502    0  0.00000000000E+00 -0.00000000000E+00 -0.15253353777E+03  0.15253353777E+03  0.00000000000E+00 0.  1.
          6    2    1    2  502    0 -0.21265279173E+03  0.81877324114E+02  0.41637162800E+03  0.50572838398E+03  0.17455875722E+03 0.  0.
         24    2    3    3    0    0 -0.13425602009E+03  0.11827428906E+03  0.32715142870E+03  0.38141777774E+03  0.80237008234E+02 0.  0.
         -6    2    1    2    0  501  0.21265279173E+03 -0.81877324114E+02  0.82039275911E+02  0.29774959548E+03  0.17320298145E+03 0.  0.
        -24    2    5    5    0    0  0.21783357253E+03 -0.69290708262E+02  0.30448419887E+02  0.24418683030E+03  0.80295916762E+02 0.  0.
          5    1    3    3  502    0 -0.78396771640E+02 -0.36396964944E+02  0.89220199300E+02  0.12431060624E+03  0.47000000000E+01 0. -1.
        -11    1    4    4    0    0 -0.10379810453E+03  0.49339031194E+02  0.15051538834E+03  0.18937599803E+03  0.00000000000E+00 0.  1.
         12    1    4    4    0    0 -0.30457915552E+02  0.68935257864E+02  0.17663604037E+03  0.19204177971E+03  0.00000000000E+00 0. -1.
         -5    1    5    5    0  501 -0.51807808000E+01 -0.12586615852E+02  0.51590856024E+02  0.53562765179E+02  0.47000000000E+01 0.  1.
         11    1    6    6    0    0  0.16394843587E+03 -0.27879498035E+02  0.49670310490E+02  0.17356121623E+03  0.00000000000E+00 0. -1.
        -12    1    6    6    0    0  0.53885136659E+02 -0.41411210227E+02 -0.19221890603E+02  0.70625614076E+02  0.00000000000E+00 0.  1.
</event>
<event>
12    1  0.2576962E-002  0.2232903E+03  0.7818608E-02  0.1131454E+00
          4   -1    0    0  502    0  0.00000000000E+00  0.00000000000E+00  0.36480594733E+02  0.36480594733E+02  0.00000000000E+00 0. -1.
         -4   -1    0    0    0  501 -0.00000000000E+00 -0.00000000000E+00 -0.15168668086E+04  0.15168668086E+04  0.00000000000E+00 0.  1.
          6    2    1    2  502    0 -0.65926833165E+02  0.12630168030E+03 -0.50122088706E+03  0.54943729719E+03  0.17424265878E+03 0.  0.
         24    2    3    3    0    0 -0.44831522873E+02  0.13834903470E+03 -0.49749888718E+03  0.52441542381E+03  0.79724984390E+02 0.  0.
         -6    2    1    2    0  501  0.65926833165E+02 -0.12630168030E+03 -0.97916532683E+03  0.10039101062E+04  0.16962400249E+03 0.  0.
        -24    2    5    5    0    0  0.10814768511E+03 -0.70143327744E+02 -0.73965367985E+03  0.75426179366E+03  0.72161478851E+02 0.  0.
          5    1    3    3  502    0 -0.21095310291E+02 -0.12047354404E+02 -0.37219998805E+01  0.25021873382E+02  0.47000000000E+01 0. -1.
        -11    1    4    4    0    0  0.46036638053E+01  0.73480672854E+02 -0.33003008352E+03  0.33814266077E+03  0.00000000000E+00 0.  1.
         12    1    4    4    0    0 -0.49435186678E+02  0.64868361851E+02 -0.16746880366E+03  0.18627276304E+03  0.00000000000E+00 0. -1.
         -5    1    5    5    0  501 -0.42220851946E+02 -0.56158352557E+02 -0.23951164698E+03  0.24964831251E+03  0.47000000000E+01 0.  1.
         13    1    6    6    0    0  0.39966636643E+02 -0.98513995962E+01 -0.99621858976E+02  0.10779098712E+03  0.00000000000E+00 0. -1.
        -14    1    6    6    0    0  0.68181048467E+02 -0.60291928148E+02 -0.64003182088E+03  0.64647080654E+03  0.00000000000E+00 0.  1.
</event>
<event>
12    1  0.2576962E-002  0.2205864E+03  0.7818608E-02  0.1133447E+00
          2   -1    0    0  502    0  0.00000000000E+00  0.00000000000E+00  0.92609488492E+03  0.92609488492E+03  0.00000000000E+00 0. -1.
         -2   -1    0    0    0  501 -0.00000000000E+00 -0.00000000000E+00 -0.61796265092E+02  0.61796265092E+02  0.00000000000E+00 0.  1.
          6    2    1    2  502    0 -0.13110656464E+03 -0.28887965086E+02  0.24297136763E+03  0.32896007062E+03  0.17651118027E+03 0.  0.
         24    2    3    3    0    0 -0.82032944434E+02  0.41017362736E+02  0.20236842172E+03  0.23427287891E+03  0.74289808622E+02 0.  0.
         -6    2    1    2    0  501  0.13110656464E+03  0.28887965086E+02  0.62132725220E+03  0.65893107939E+03  0.17354874600E+03 0.  0.
        -24    2    5    5    0    0  0.12952494916E+03  0.71801056675E+02  0.55375856421E+03  0.57873349505E+03  0.79698222451E+02 0.  0.
          5    1    3    3  502    0 -0.49073620207E+02 -0.69905327822E+02  0.40602945909E+02  0.94687191714E+02  0.47000000000E+01 0. -1.
        -13    1    4    4    0    0 -0.50721420601E+02  0.55997834603E+02  0.94694040244E+02  0.12114198796E+03  0.00000000000E+00 0.  1.
         14    1    4    4    0    0 -0.31311523832E+02 -0.14980471866E+02  0.10767438148E+03  0.11313089095E+03  0.00000000000E+00 0. -1.
         -5    1    5    5    0  501  0.15816154801E+01 -0.42913091589E+02  0.67568687994E+02  0.80197584343E+02  0.47000000000E+01 0.  1.
         13    1    6    6    0    0  0.15457282130E+02  0.48653869085E+02  0.19468175724E+03  0.20126378996E+03  0.00000000000E+00 0. -1.
        -14    1    6    6    0    0  0.11406766703E+03  0.23147187590E+02  0.35907680696E+03  0.37746970508E+03  0.00000000000E+00 0.  1.
</event>
<event>
12    1  0.2576962E-002  0.2233092E+03  0.7818608E-02  0.1131440E+00
         -2   -1    0    0    0  501 -0.00000000000E+00  0.00000000000E+00  0.50895485662E+03  0.50895485662E+03  0.00000000000E+00 0. -1.
          2   -1    0    0  502    0  0.00000000000E+00 -0.00000000000E+00 -0.17547695266E+03  0.17547695266E+03  0.00000000000E+00 0.  1.
          6    2    1    2  502    0 -0.29822072747E+02 -0.13592059282E+03 -0.59412689392E+02  0.23396030787E+03  0.17844829621E+03 0.  0.
         24    2    3    3    0    0 -0.82445311867E+02 -0.86492500642E+02 -0.58776076208E+01  0.14395788250E+03  0.80069616871E+02 0.  0.
         -6    2    1    2    0  501  0.29822072747E+02  0.13592059282E+03  0.39289059335E+03  0.45047150141E+03  0.17087361314E+03 0.  0.
        -24    2    5    5    0    0 -0.11106413978E+02  0.14960332055E+03  0.35116353452E+03  0.39025858334E+03  0.80507316114E+02 0.  0.
          5    1    3    3  502    0  0.52623239120E+02 -0.49428092176E+02 -0.53535081771E+02  0.90002425367E+02  0.47000000000E+01 0. -1.
        -13    1    4    4    0    0  0.29524596882E+01 -0.89682406738E+01 -0.25292646563E+02  0.26997487460E+02  0.00000000000E+00 0.  1.
         14    1    4    4    0    0 -0.85397771555E+02 -0.77524259969E+02  0.19415038942E+02  0.11696039504E+03  0.00000000000E+00 0. -1.
         -5    1    5    5    0  501  0.40928486725E+02 -0.13682727729E+02  0.41727058832E+02  0.60212918070E+02  0.47000000000E+01 0.  1.
         13    1    6    6    0    0  0.24142201984E+02  0.72531891865E+02  0.10474525162E+03  0.12967377912E+03  0.00000000000E+00 0. -1.
        -14    1    6    6    0    0 -0.35248615962E+02  0.77071428682E+02  0.24641828289E+03  0.26058480422E+03  0.00000000000E+00 0.  1.
</event>
<event>
12    1  0.2576962E-002  0.2536687E+03  0.7818608E-02  0.1111008E+00
         -1   -1    0    0    0  501 -0.00000000000E+00  0.00000000000E+00  0.50962682147E+02  0.50962682147E+02  0.00000000000E+00 0.  1.
          1   -1    0    0  502    0  0.00000000000E+00 -0.00000000000E+00 -0.16729187188E+04  0.16729187188E+04  0.00000000000E+00 0. -1.
          6    2    1    2  502    0 -0.14449270559E+02 -0.18668016085E+03 -0.38380486379E+03  0.45998505232E+03  0.17094388266E+03 0.  0.
         24    2    3    3    0    0  0.32237042040E+02 -0.41388223633E+02 -0.10677471425E+03  0.14366693308E+03  0.80542759600E+02 0.  0.
         -6    2    1    2    0  501  0.14449270559E+02  0.18668016085E+03 -0.12381511728E+04  0.12638963486E+04  0.17133998168E+03 0.  0.
        -24    2    5    5    0    0 -0.20669077459E+02  0.19780479751E+03 -0.11091354121E+04  0.11296420659E+04  0.79723810482E+02 0.  0.
          5    1    3    3  502    0 -0.46686312599E+02 -0.14529193722E+03 -0.27703014954E+03  0.31631811924E+03  0.47000000000E+01 0. -1.
        -11    1    4    4    0    0  0.99445008879E+01 -0.53098522523E+02 -0.27760161759E+02  0.60736914417E+02  0.00000000000E+00 0.  1.
         12    1    4    4    0    0  0.22292541152E+02  0.11710298890E+02 -0.79014552488E+02  0.82930018666E+02  0.00000000000E+00 0. -1.
         -5    1    5    5    0  501  0.35118348018E+02 -0.11124636659E+02 -0.12901576076E+03  0.13425428273E+03  0.47000000000E+01 0.  1.
         13    1    6    6    0    0 -0.77780332074E+01  0.19927791762E+03 -0.99636232052E+03  0.10161250218E+04  0.00000000000E+00 0. -1.
        -14    1    6    6    0    0 -0.12891044252E+02 -0.14731201053E+01 -0.11277309155E+03  0.11351704402E+03  0.00000000000E+00 0.  1.
</event>
<event>
12    1  0.2576962E-002  0.1815649E+03  0.7818608E-02  0.1166297E+00
         -2   -1    0    0    0  501 -0.00000000000E+00  0.00000000000E+00  0.39031615108E+02  0.39031615108E+02  0.00000000000E+00 0.  1.
          2   -1    0    0  502    0  0.00000000000E+00 -0.00000000000E+00 -0.14620982460E+04  0.14620982460E+04  0.00000000000E+00 0. -1.
          6    2    1    2  502    0 -0.46233869379E+02  0.14378057124E+02 -0.11925018939E+04  0.12058076693E+04  0.17195077569E+03 0.  0.
         24    2    3    3    0    0 -0.32425376383E+02  0.25023003909E+02 -0.29868488739E+03  0.31180827308E+03  0.79587570944E+02 0.  0.
         -6    2    1    2    0  501  0.46233869379E+02 -0.14378057124E+02 -0.23056473698E+03  0.29532219176E+03  0.17807526444E+03 0.  0.
        -24    2    5    5    0    0 -0.31147774903E+02 -0.11657112199E+02 -0.53337603999E+02  0.10186193983E+03  0.80155365632E+02 0.  0.
          5    1    3    3  502    0 -0.13808492996E+02 -0.10644946785E+02 -0.89381700649E+03  0.89399939623E+03  0.47000000000E+01 0. -1.
        -13    1    4    4    0    0 -0.38416206281E+02 -0.20173408030E+02 -0.16255855869E+03  0.16824998157E+03  0.00000000000E+00 0.  1.
         14    1    4    4    0    0  0.59908298978E+01  0.45196411939E+02 -0.13612632871E+03  0.14355829151E+03  0.00000000000E+00 0. -1.
         -5    1    5    5    0  501  0.77381644282E+02 -0.27209449244E+01 -0.17722713298E+03  0.19346025193E+03  0.47000000000E+01 0.  1.
         13    1    6    6    0    0  0.90219168045E+01  0.28101412408E+02 -0.12098562803E+02  0.31897642296E+02  0.00000000000E+00 0. -1.
        -14    1    6    6    0    0 -0.40169691708E+02 -0.39758524607E+02 -0.41239041197E+02  0.69964297536E+02  0.00000000000E+00 0.  1.
</event>
<event>
12    1  0.2576962E-002  0.1894162E+03  0.7818608E-02  0.1158989E+00
          1   -1    0    0  502    0  0.00000000000E+00  0.00000000000E+00  0.15820614605E+04  0.15820614605E+04  0.00000000000E+00 0. -1.
         -1   -1    0    0    0  501 -0.00000000000E+00 -0.00000000000E+00 -0.23016604216E+02  0.23016604216E+02  0.00000000000E+00 0.  1.
          6    2    1    2  502    0 -0.17984581453E+02  0.83119705840E+02  0.67480120356E+03  0.70036911907E+03  0.16711645026E+03 0.  0.
         24    2    3    3    0    0  0.40882551505E+02  0.89753467227E+02  0.51353255458E+03  0.52849994418E+03  0.76612260688E+02 0.  0.
         -6    2    1    2    0  501  0.17984581453E+02 -0.83119705840E+02  0.88424365268E+03  0.90470894560E+03  0.17140334968E+03 0.  0.
        -24    2    5    5    0    0  0.43004859612E+02 -0.11798879881E+03  0.70315587940E+03  0.71854573872E+03  0.78160177254E+02 0.  0.
          5    1    3    3  502    0 -0.58867132958E+02 -0.66337613877E+01  0.16126864898E+03  0.17186917489E+03  0.47000000000E+01 0. -1.
        -11    1    4    4    0    0 -0.81226698163E+01  0.69745067863E+02  0.24831081887E+03  0.25804769913E+03  0.00000000000E+00 0.  1.
         12    1    4    4    0    0  0.49005221322E+02  0.20008399365E+02  0.26522173571E+03  0.27045224505E+03  0.00000000000E+00 0. -1.
         -5    1    5    5    0  501 -0.25020278160E+02  0.34869092975E+02  0.18108777328E+03  0.18616320688E+03  0.47000000000E+01 0.  1.
         13    1    6    6    0    0  0.12046558577E+02 -0.88473821396E+02  0.29667502884E+03  0.30982060839E+03  0.00000000000E+00 0. -1.
        -14    1    6    6    0    0  0.30958301036E+02 -0.29514977419E+02  0.40648085056E+03  0.40872513033E+03  0.00000000000E+00 0.  1.
</event>
<event>
12    1  0.2576962E-002  0.1957767E+03  0.7818608E-02  0.1153352E+00
          2   -1    0    0  502    0  0.00000000000E+00  0.00000000000E+00  0.11510371208E+04  0.11510371208E+04  0.00000000000E+00 0. -1.
         -2   -1    0    0    0  501 -0.00000000000E+00 -0.00000000000E+00 -0.41961079244E+02  0.41961079244E+02  0.00000000000E+00 0.  1.
          6    2    1    2  502    0 -0.54619751563E+02 -0.76545572248E+02  0.82582306461E+03  0.84873980373E+03  0.17185161773E+03 0.  0.
         24    2    3    3    0    0 -0.17215676370E+02 -0.40882404244E+02  0.18206008494E+03  0.20288858993E+03  0.77782741677E+02 0.  0.
         -6    2    1    2    0  501  0.54619751563E+02  0.76545572248E+02  0.28325297692E+03  0.34425839628E+03  0.17157812385E+03 0.  0.
        -24    2    5    5    0    0  0.30666816216E+02 -0.15898993036E+02  0.19820840414E+03  0.21629586223E+03  0.79398343488E+02 0.  0.
          5    1    3    3  502    0 -0.37404075193E+02 -0.35663168005E+02  0.64376297966E+03  0.64585121381E+03  0.47000000000E+01 0. -1.
        -13    1    4    4    0    0 -0.29212202544E+02  0.16484949824E+01  0.13579008804E+03  0.13890650929E+03  0.00000000000E+00 0.  1.
         14    1    4    4    0    0  0.11996526173E+02 -0.42530899226E+02  0.46269996908E+02  0.63982080641E+02  0.00000000000E+00 0. -1.
         -5    1    5    5    0  501  0.23952935347E+02  0.92444565285E+02  0.85044572785E+02  0.12796253406E+03  0.47000000000E+01 0.  1.
         11    1    6    6    0    0 -0.11737135274E+01  0.28771969599E+02  0.43666341647E+02  0.52306340255E+02  0.00000000000E+00 0. -1.
        -12    1    6    6    0    0  0.31840529744E+02 -0.44670962635E+02  0.15454206249E+03  0.16398952197E+03  0.00000000000E+00 0.  1.
</event>
<event>
12    1  0.2576962E-002  0.1864100E+03  0.7818608E-02  0.1161740E+00
         -2   -1    0    0    0  501 -0.00000000000E+00  0.00000000000E+00  0.29686631890E+02  0.29686631890E+02  0.00000000000E+00 0.  1.
          2   -1    0    0  502    0  0.00000000000E+00 -0.00000000000E+00 -0.13011755501E+04  0.13011755501E+04  0.00000000000E+00 0. -1.
          6    2    1    2  502    0 -0.53034210018E+02  0.44591136993E+02 -0.42724884620E+03  0.46645177696E+03  0.17388124315E+03 0.  0.
         24    2    3    3    0    0 -0.13729419367E+02  0.25204288829E+02 -0.80612119082E+02  0.11702392026E+03  0.79828134384E+02 0.  0.
         -6    2    1    2    0  501  0.53034210018E+02 -0.44591136993E+02 -0.84424007198E+03  0.86441040500E+03  0.17222964960E+03 0.  0.
        -24    2    5    5    0    0 -0.35437994150E+02 -0.13296992319E+02 -0.49838145307E+03  0.50601547105E+03  0.78961527022E+02 0.  0.
          5    1    3    3  502    0 -0.39304790651E+02  0.19386848165E+02 -0.34663672712E+03  0.34942785670E+03  0.47000000000E+01 0. -1.
        -13    1    4    4    0    0 -0.67458219644E-01  0.14496879714E+01  0.16273206973E+02  0.16337790885E+02  0.00000000000E+00 0.  1.
         14    1    4    4    0    0 -0.13661961147E+02  0.23754600857E+02 -0.96885326055E+02  0.10068612938E+03  0.00000000000E+00 0. -1.
         -5    1    5    5    0  501  0.88472204169E+02 -0.31294144675E+02 -0.34585861891E+03  0.35839493394E+03  0.47000000000E+01 0.  1.
         13    1    6    6    0    0  0.25322831891E+02 -0.61811568180E+01 -0.12977395229E+03  0.13236589896E+03  0.00000000000E+00 0. -1.
        -14    1    6    6    0    0 -0.60760826041E+02 -0.71158355007E+01 -0.36860750077E+03  0.37364957209E+03  0.00000000000E+00 0.  1.
</event>
<event>
12    1  0.2576962E-002  0.2388493E+03  0.7818608E-02  0.1120562E+00
          1   -1    0    0  502    0  0.00000000000E+00  0.00000000000E+00  0.84995030846E+03  0.84995030846E+03  0.00000000000E+00 0.  1.
         -1   -1    0    0    0  501 -0.00000000000E+00 -0.00000000000E+00 -0.68249225334E+02  0.68249225334E+02  0.00000000000E+00 0. -1.
          6    2    1    2  502    0 -0.11757861370E+03  0.12443701085E+03  0.45415306308E+03  0.51444759983E+03  0.17056385370E+03 0.  0.
         24    2    3    3    0    0 -0.11348471677E+03  0.15554296717E+03  0.40342277669E+03  0.45461456156E+03  0.82777214559E+02 0.  0.
         -6    2    1    2    0  501  0.11757861370E+03 -0.12443701085E+03  0.32754802004E+03  0.40375193397E+03  0.16253805302E+03 0.  0.
        -24    2    5    5    0    0  0.99927276686E+02 -0.88098294913E+02  0.12988911847E+03  0.20195202479E+03  0.78528128891E+02 0.  0.
          5    1    3    3  502    0 -0.40938969330E+01 -0.31105956322E+02  0.50730286393E+02  0.59833038268E+02  0.47000000000E+01 0. -1.
        -13    1    4    4    0    0 -0.38498785090E+02  0.18330004184E+02  0.15766560846E+03  0.16332969601E+03  0.00000000000E+00 0.  1.
         14    1    4    4    0    0 -0.74985931681E+02  0.13721296299E+03  0.24575716823E+03  0.29128486555E+03  0.00000000000E+00 0. -1.
         -5    1    5    5    0  501  0.17651337018E+02 -0.36338715939E+02  0.19765890157E+03  0.20179990918E+03  0.47000000000E+01 0.  1.
         13    1    6    6    0    0  0.32287010901E+02  0.79030951958E+01  0.11439918504E+02  0.35153687174E+02  0.00000000000E+00 0. -1.
        -14    1    6    6    0    0  0.67640265786E+02 -0.96001390109E+02  0.11844919997E+03  0.16679833762E+03  0.00000000000E+00 0.  1.
</event>
<event>
12    1  0.2576962E-002  0.2694483E+03  0.7818608E-02  0.1101596E+00
         -1   -1    0    0    0  501 -0.00000000000E+00  0.00000000000E+00  0.72996724930E+02  0.72996724930E+02  0.00000000000E+00 0. -1.
          1   -1    0    0  502    0  0.00000000000E+00 -0.00000000000E+00 -0.10036891889E+04  0.10036891889E+04  0.00000000000E+00 0.  1.
          6    2    1    2  502    0 -0.14471646937E+03  0.14767058446E+03 -0.41481194659E+03  0.49486420424E+03  0.17341329701E+03 0.  0.
         24    2    3    3    0    0 -0.11394506639E+03  0.10196200005E+03 -0.40281297169E+03  0.43827604886E+03  0.80298675177E+02 0.  0.
         -6    2    1    2    0  501  0.14471646937E+03 -0.14767058446E+03 -0.51588051737E+03  0.58182170958E+03  0.17214626198E+03 0.  0.
        -24    2    5    5    0    0  0.10589500315E+03 -0.10422750512E+03 -0.20043943420E+03  0.26101090189E+03  0.76639412871E+02 0.  0.
          5    1    3    3  502    0 -0.30771402975E+02  0.45708584414E+02 -0.11998974899E+02  0.56588155376E+02  0.47000000000E+01 0. -1.
        -13    1    4    4    0    0  0.55905333166E+01  0.87955829822E+01 -0.90874040986E+02  0.91469709019E+02  0.00000000000E+00 0.  1.
         14    1    4    4    0    0 -0.11953559971E+03  0.93166417068E+02 -0.31193893070E+03  0.34680633984E+03  0.00000000000E+00 0. -1.
         -5    1    5    5    0  501  0.38821466223E+02 -0.43443079343E+02 -0.31544108317E+03  0.32081080770E+03  0.47000000000E+01 0.  1.
         11    1    6    6    0    0 -0.13213371103E+01 -0.40927624557E+02 -0.34438358651E+02  0.53505298151E+02  0.00000000000E+00 0. -1.
        -12    1    6    6    0    0  0.10721634026E+03 -0.63299880564E+02 -0.16600107555E+03  0.20750560373E+03  0.00000000000E+00 0.  1.
</event>
<event>
12    1  0.2576962E-002  0.3022815E+03  0.7818608E-02  0.1084106E+00
          2   -1    0    0  502    0  0.00000000000E+00  0.00000000000E+00  0.29777631213E+03  0.29777631213E+03  0.00000000000E+00 0. -1.
         -2   -1    0    0    0  501 -0.00000000000E+00 -0.00000000000E+00 -0.59827926935E+03  0.59827926935E+03  0.00000000000E+00 0.  1.
          6    2    1    2  502    0  0.49154919835E+01 -0.24772250499E+03 -0.46282329302E+03  0.55253739974E+03  0.17234145180E+03 0.  0.
         24    2    3    3    0    0  0.53731473173E+02 -0.10415735516E+03 -0.15726918924E+03  0.21139321819E+03  0.78852196994E+02 0.  0.
         -6    2    1    2    0  501 -0.49154919835E+01  0.24772250499E+03  0.16232033580E+03  0.34351818174E+03  0.17397197542E+03 0.  0.
        -24    2    5    5    0    0 -0.25443864738E+00  0.24644318065E+03  0.18693449899E+03  0.31799742315E+03  0.73780405182E+02 0.  0.
          5    1    3    3  502    0 -0.48815981189E+02 -0.14356514983E+03 -0.30555410378E+03  0.34114418154E+03  0.47000000000E+01 0. -1.
        -13    1    4    4    0    0 -0.54807240368E+01 -0.63105802027E+02 -0.43911151735E+02  0.77075092165E+02  0.00000000000E+00 0.  1.
         14    1    4    4    0    0  0.59212197209E+02 -0.41051553133E+02 -0.11335803751E+03  0.13431812603E+03  0.00000000000E+00 0. -1.
         -5    1    5    5    0  501 -0.46610533361E+01  0.12793243438E+01 -0.24614163198E+02  0.25520758589E+02  0.47000000000E+01 0.  1.
         13    1    6    6    0    0  0.25129850421E+02  0.10468951488E+03  0.47945943483E+02  0.11785676648E+03  0.00000000000E+00 0. -1.
        -14    1    6    6    0    0 -0.25384289068E+02  0.14175366577E+03  0.13898855551E+03  0.20014065667E+03  0.00000000000E+00 0.  1.
</event>
<event>
12    1  0.2576962E-002  0.1843499E+03  0.7818608E-02  0.1163658E+00
         -2   -1    0    0    0  501 -0.00000000000E+00  0.00000000000E+00  0.33523503595E+02  0.33523503595E+02  0.00000000000E+00 0. -1.
          2   -1    0    0  502    0  0.00000000000E+00 -0.00000000000E+00 -0.18680030010E+04  0.18680030010E+04  0.00000000000E+00 0.  1.
          6    2    1    2  502    0 -0.50489185218E+02 -0.45449581241E+02 -0.27408943634E+03  0.33027536169E+03  0.17129498874E+03 0.  0.
         24    2    3    3    0    0 -0.88357799526E+02 -0.55037400786E+02 -0.25510097738E+03  0.28658772263E+03  0.78865695186E+02 0.  0.
         -6    2    1    2    0  501  0.50489185218E+02  0.45449581241E+02 -0.15603900610E+04  0.15712511429E+04  0.17145900135E+03 0.  0.
        -24    2    5    5    0    0  0.34258178686E+02  0.67758210996E+02 -0.57952175614E+03  0.58998367572E+03  0.80439255456E+02 0.  0.
          5    1    3    3  502    0  0.37868614308E+02  0.95878195446E+01 -0.18988458952E+02  0.43687639060E+02  0.47000000000E+01 0. -1.
        -13    1    4    4    0    0 -0.25932444826E+02 -0.44144524483E+01 -0.15966471305E+03  0.16181717980E+03  0.00000000000E+00 0.  1.
         14    1    4    4    0    0 -0.62425354700E+02 -0.50622948337E+02 -0.95436264332E+02  0.12477054283E+03  0.00000000000E+00 0. -1.
         -5    1    5    5    0  501  0.16231006532E+02 -0.22308629754E+02 -0.98086830489E+03  0.98126746714E+03  0.47000000000E+01 0.  1.
         11    1    6    6    0    0 -0.18989954193E+02  0.39394788234E+02 -0.34771950064E+03  0.35045886895E+03  0.00000000000E+00 0. -1.
        -12    1    6    6    0    0  0.53248132879E+02  0.28363422762E+02 -0.23180225550E+03  0.23952480677E+03  0.00000000000E+00 0.  1.
</event>
<event>
12    1  0.2576962E-002  0.2174595E+03  0.7818608E-02  0.1135791E+00
         -2   -1    0    0    0  501 -0.00000000000E+00  0.00000000000E+00  0.36482899781E+02  0.36482899781E+02  0.00000000000E+00 0.  1.
          2   -1    0    0  502    0  0.00000000000E+00 -0.00000000000E+00 -0.13131327885E+04  0.13131327885E+04  0.00000000000E+00 0. -1.
          6    2    1    2  502    0  0.11226806225E+03 -0.73268627657E+02 -0.56255697018E+03  0.60323478785E+03  0.17160843502E+03 0.  0.
         24    2    3    3    0    0  0.21141268433E+02 -0.13649322442E+01 -0.11941767879E+03  0.14512044018E+03  0.79690299782E+02 0.  0.
         -6    2    1    2    0  501 -0.11226806225E+03  0.73268627657E+02 -0.71409291849E+03  0.74638090039E+03  0.17083132799E+03 0.  0.
        -24    2    5    5    0    0  0.31540943446E+01  0.12441624358E+02 -0.18902158595E+03  0.20532249982E+03  0.79141813543E+02 0.  0.
          5    1    3    3  502    0  0.91126793816E+02 -0.71903695412E+02 -0.44313929139E+03  0.45811434766E+03  0.47000000000E+01 0. -1.
        -13    1    4    4    0    0  0.25103177924E+02 -0.32118811220E+02 -0.10132998485E+03  0.10922249496E+03  0.00000000000E+00 0.  1.
         14    1    4    4    0    0 -0.39619094913E+01  0.30753878976E+02 -0.18087693946E+02  0.35897945222E+02  0.00000000000E+00 0. -1.
         -5    1    5    5    0  501 -0.11542215659E+03  0.60827003298E+02 -0.52507133255E+03  0.54105840057E+03  0.47000000000E+01 0.  1.
         11    1    6    6    0    0 -0.19385691073E+02  0.22799963272E+02 -0.23767455792E+02  0.38216950406E+02  0.00000000000E+00 0. -1.
        -12    1    6    6    0    0  0.22539785417E+02 -0.10358338913E+02 -0.16525413016E+03  0.16710554941E+03  0.00000000000E+00 0.  1.
</event>
<event>
12    1  0.2576962E-002  0.1739715E+03  0.7818608E-02  0.1173768E+00
          3   -1    0    0  502    0  0.00000000000E+00  0.00000000000E+00  0.23485266691E+04  0.23485266691E+04  0.00000000000E+00 0.  1.
         -3   -1    0    0    0  501 -0.00000000000E+00 -0.00000000000E+00 -0.36364409572E+02  0.36364409572E+02  0.00000000000E+00 0. -1.
          6    2    1    2  502    0 -0.44209079278E+02 -0.17488134863E+01  0.21240690412E+04  0.21315413017E+04  0.17274700682E+03 0.  0.
         24    2    3    3    0    0 -0.13729731865E+02  0.59898587863E+02  0.12301913782E+04  0.12350097858E+04  0.90011097580E+02 0.  0.
         -6    2    1    2    0  501  0.44209079278E+02  0.17488134863E+01  0.18809321840E+03  0.25334977696E+03  0.16385832185E+03 0.  0.
        -24    2    5    5    0    0 -0.18187413664E+02  0.40559990080E+02  0.80034736589E+02  0.12258909766E+03  0.81526885100E+02 0.  0.
          5    1    3    3  502    0 -0.30479347413E+02 -0.61647401349E+02  0.89387766292E+03  0.89653151589E+03  0.47000000000E+01 0. -1.
        -11    1    4    4    0    0  0.36581756912E+02  0.40994550666E+02  0.57615796147E+03  0.57877178118E+03  0.00000000000E+00 0.  1.
         12    1    4    4    0    0 -0.50311488778E+02  0.18904037197E+02  0.65403341676E+03  0.65623800467E+03  0.00000000000E+00 0. -1.
         -5    1    5    5    0  501  0.62396492943E+02 -0.38811176593E+02  0.10805848181E+03  0.13076067930E+03  0.47000000000E+01 0.  1.
         11    1    6    6    0    0  0.15558927068E+02 -0.43885170826E+01 -0.80809945260E+01  0.18073233419E+02  0.00000000000E+00 0. -1.
        -12    1    6    6    0    0 -0.33746340732E+02  0.44948507162E+02  0.88115731115E+02  0.10451586424E+03  0.00000000000E+00 0.  1.
</event>
<event>
12    1  0.2576962E-002  0.2391434E+03  0.7818608E-02  0.1120365E+00
         -2   -1    0    0    0  501 -0.00000000000E+00  0.00000000000E+00  0.54021841043E+02  0.54021841043E+02  0.00000000000E+00 0. -1.
          2   -1    0    0  502    0  0.00000000000E+00 -0.00000000000E+00 -0.10813437970E+04  0.10813437970E+04  0.00000000000E+00 0.  1.
          6    2    1    2  502    0 -0.24802314300E+02 -0.16524016644E+03 -0.43317649784E+03  0.49520861069E+03  0.17225046421E+03 0.  0.
         24    2    3    3    0    0 -0.22406856395E+02 -0.12270876818E+03 -0.42699006967E+03  0.45190711014E+03  0.79624164621E+02 0.  0.
         -6    2    1    2    0  501  0.24802314300E+02  0.16524016644E+03 -0.59414545815E+03  0.64015702739E+03  0.16991976599E+03 0.  0.
        -24    2    5    5    0    0  0.81320033927E+02  0.96581955786E+02 -0.35134812860E+03  0.38154373353E+03  0.78670776191E+02 0.  0.
          5    1    3    3  502    0 -0.23954579052E+01 -0.42531398257E+02 -0.61864281636E+01  0.43301500547E+02  0.47000000000E+01 0. -1.
        -13    1    4    4    0    0  0.72302276968E+00 -0.12123862016E+03 -0.31462734840E+03  0.33717902387E+03  0.00000000000E+00 0.  1.
         14    1    4    4    0    0 -0.23129879165E+02 -0.14701480194E+01 -0.11236272128E+03  0.11472808627E+03  0.00000000000E+00 0. -1.
         -5    1    5    5    0  501 -0.56517719627E+02  0.68658210650E+02 -0.24279732955E+03  0.25861329385E+03  0.47000000000E+01 0.  1.
         13    1    6    6    0    0  0.34364034536E+02 -0.67767056293E+01 -0.91739448616E+02  0.98198457427E+02  0.00000000000E+00 0. -1.
        -14    1    6    6    0    0  0.46955999391E+02  0.10335866142E+03 -0.25960867998E+03  0.28334527611E+03  0.00000000000E+00 0.  1.
</event>
<event>
12    1  0.2576962E-002  0.2455204E+03  0.7818608E-02  0.1116169E+00
          2   -1    0    0  502    0  0.00000000000E+00  0.00000000000E+00  0.28000101106E+03  0.28000101106E+03  0.00000000000E+00 0. -1.
         -2   -1    0    0    0  501 -0.00000000000E+00 -0.00000000000E+00 -0.44795237910E+03  0.44795237910E+03  0.00000000000E+00 0.  1.
          6    2    1    2  502    0 -0.14041715728E+03 -0.10387500661E+03  0.17809042725E+03  0.30451105236E+03  0.17465332999E+03 0.  0.
         24    2    3    3    0    0 -0.89941457140E+02 -0.14086271471E+03  0.13487704331E+03  0.22831805132E+03  0.77495455611E+02 0.  0.
         -6    2    1    2    0  501  0.14041715728E+03  0.10387500661E+03 -0.34604179529E+03  0.42344233780E+03  0.17044498907E+03 0.  0.
        -24    2    5    5    0    0  0.26452080131E+02  0.64046744348E+01 -0.18584385611E+03  0.20395663398E+03  0.79496146404E+02 0.  0.
          5    1    3    3  502    0 -0.50475700144E+02  0.36987708104E+02  0.43213383940E+02  0.76193001039E+02  0.47000000000E+01 0. -1.
        -11    1    4    4    0    0 -0.19138864220E+02 -0.18278103619E+01 -0.37694780230E+01  0.19591987621E+02  0.00000000000E+00 0.  1.
         12    1    4    4    0    0 -0.70802592920E+02 -0.13903490435E+03  0.13864652133E+03  0.20872606370E+03  0.00000000000E+00 0. -1.
         -5    1    5    5    0  501  0.11396507715E+03  0.97470332172E+02 -0.16019793918E+03  0.21948570382E+03  0.47000000000E+01 0.  1.
         13    1    6    6    0    0  0.25851045141E+02 -0.13446623791E+01 -0.97036057511E+01  0.27644974523E+02  0.00000000000E+00 0. -1.
        -14    1    6    6    0    0  0.60103498926E+00  0.77493368139E+01 -0.17614025036E+03  0.17631165946E+03  0.00000000000E+00 0.  1.
</event>
<event>
12    1  0.2576962E-002  0.1982248E+03  0.7818608E-02  0.1151245E+00
         -2   -1    0    0    0  501 -0.00000000000E+00  0.00000000000E+00  0.35725622657E+02  0.35725622657E+02  0.00000000000E+00 0.  1.
          2   -1    0    0  502    0  0.00000000000E+00 -0.00000000000E+00 -0.14804135575E+04  0.14804135575E+04  0.00000000000E+00 0. -1.
          6    2    1    2  502    0 -0.22200671421E+01  0.10154654788E+03 -0.33507590546E+03  0.38876849977E+03  0.16896287730E+03 0.  0.
         24    2    3    3    0    0  0.53888030693E+02  0.75835147678E+02 -0.14737961074E+03  0.19112947580E+03  0.78452771667E+02 0.  0.
         -6    2    1    2    0  501  0.22200671421E+01 -0.10154654788E+03 -0.11096120294E+04  0.11273706804E+04  0.17149100609E+03 0.  0.
        -24    2    5    5    0    0  0.67118535808E+02 -0.48761046037E+02 -0.59761956741E+03  0.60856773943E+03  0.79517348146E+02 0.  0.
          5    1    3    3  502    0 -0.56108097836E+02  0.25711400197E+02 -0.18769629472E+03  0.19763902397E+03  0.47000000000E+01 0. -1.
        -13    1    4    4    0    0  0.39970854071E+02  0.48815152245E+01 -0.90764743886E+02  0.99296208884E+02  0.00000000000E+00 0.  1.
         14    1    4    4    0    0  0.13917176622E+02  0.70953632454E+02 -0.56614866855E+02  0.91833266916E+02  0.00000000000E+00 0. -1.
         -5    1    5    5    0  501 -0.64898468665E+02 -0.52785501838E+02 -0.51199246196E+03  0.51880294096E+03  0.47000000000E+01 0.  1.
         13    1    6    6    0    0 -0.13440966549E+02 -0.27862895510E+02 -0.19472049695E+03  0.19716255340E+03  0.00000000000E+00 0. -1.
        -14    1    6    6    0    0  0.80559502357E+02 -0.20898150528E+02 -0.40289907046E+03  0.41140518603E+03  0.00000000000E+00 0.  1.
</event>
<event>
12    1  0.2576962E-002  0.2097921E+03  0.7818608E-02  0.1141731E+00
          1   -1    0    0  502    0  0.00000000000E+00  0.00000000000E+00  0.24903033375E+03  0.24903033375E+03  0.00000000000E+00 0. -1.
         -1   -1    0    0    0  501 -0.00000000000E+00 -0.00000000000E+00 -0.22451901612E+03  0.22451901612E+03  0.00000000000E+00 0.  1.
          6    2    1    2  502    0 -0.18745678708E+02  0.11856415543E+03  0.12152634666E+03  0.24331447250E+03  0.17327556138E+03 0.  0.
         24    2    3    3    0    0 -0.53210715610E+02  0.10475621084E+03  0.31330744304E+02  0.14566287350E+03  0.80192351333E+02 0.  0.
         -6    2    1    2    0  501  0.18745678708E+02 -0.11856415543E+03 -0.97015029030E+02  0.23023487737E+03  0.17084297901E+03 0.  0.
        -24    2    5    5    0    0 -0.48385102790E+02 -0.82499772237E+02 -0.28144932712E+02  0.12741288689E+03  0.79338363462E+02 0.  0.
          5    1    3    3  502    0  0.34465036901E+02  0.13807944593E+02  0.90195602354E+02  0.97651598996E+02  0.47000000000E+01 0. -1.
        -11    1    4    4    0    0 -0.10364320148E+02  0.62985276923E+02  0.52024325922E+02  0.82347402684E+02  0.00000000000E+00 0.  1.
         12    1    4    4    0    0 -0.42846395462E+02  0.41770933918E+02 -0.20693581619E+02  0.63315470816E+02  0.00000000000E+00 0. -1.
         -5    1    5    5    0  501  0.67130781499E+02 -0.36064383197E+02 -0.68870096318E+02  0.10282199048E+03  0.47000000000E+01 0.  1.
         13    1    6    6    0    0  0.47938625988E+01  0.87650773209E+01  0.10912675979E+02  0.14795073372E+02  0.00000000000E+00 0. -1.
        -14    1    6    6    0    0 -0.53178965389E+02 -0.91264849558E+02 -0.39057608691E+02  0.11261781352E+03  0.00000000000E+00 0.  1.
</event>
<event>
12    1  0.2576962E-002  0.3157282E+03  0.7818608E-02  0.1077632E+00
          2   -1    0    0  502    0  0.00000000000E+00  0.00000000000E+00  0.16626363429E+04  0.16626363429E+04  0.00000000000E+00 0.  1.
         -2   -1    0    0    0  501 -0.00000000000E+00 -0.00000000000E+00 -0.21829580415E+03  0.21829580415E+03  0.00000000000E+00 0. -1.
          6    2    1    2  502    0 -0.22256155249E+03  0.13284687463E+03 -0.75958286343E+02  0.32908537706E+03  0.18800422172E+03 0.  0.
         24    2    3    3    0    0 -0.12670602677E+03  0.16051498676E+03 -0.59011358125E+02  0.22777844435E+03  0.81124602488E+02 0.  0.
         -6    2    1    2    0  501  0.22256155249E+03 -0.13284687463E+03  0.15202988251E+04  0.15518467700E+04  0.17244692867E+03 0.  0.
        -24    2    5    5    0    0  0.23381083285E+03 -0.10597693860E+03  0.11823997283E+04  0.12126618214E+04  0.81123106495E+02 0.  0.
          5    1    3    3  502    0 -0.95855525715E+02 -0.27668112123E+02 -0.16946928218E+02  0.10130693271E+03  0.47000000000E+01 0. -1.
        -11    1    4    4    0    0 -0.11084514804E+03  0.15366958211E+03 -0.75437371473E+02  0.20394063922E+03  0.00000000000E+00 0.  1.
         12    1    4    4    0    0 -0.15860878730E+02  0.68454046433E+01  0.16426013348E+02  0.23837805128E+02  0.00000000000E+00 0. -1.
         -5    1    5    5    0  501 -0.11249280360E+02 -0.26869936033E+02  0.33789909677E+03  0.33918494862E+03  0.47000000000E+01 0.  1.
         11    1    6    6    0    0  0.74287601802E+02  0.52296923955E+01  0.30284250798E+03  0.31186468557E+03  0.00000000000E+00 0. -1.
        -12    1    6    6    0    0  0.15952323105E+03 -0.11120663100E+03  0.87955722036E+03  0.90079713583E+03  0.00000000000E+00 0.  1.
</event>
<event>
12    1  0.2576962E-002  0.2204970E+03  0.7818608E-02  0.1133513E+00
         -2   -1    0    0    0  501 -0.00000000000E+00  0.00000000000E+00  0.13239579360E+02  0.13239579360E+02  0.00000000000E+00 0. -1.
          2   -1    0    0  502    0  0.00000000000E+00 -0.00000000000E+00 -0.36771209731E+04  0.36771209731E+04  0.00000000000E+00 0.  1.
          6    2    1    2  502    0 -0.13741123747E+03  0.17087432929E+02 -0.18820362157E+04  0.18946956005E+04  0.16922550949E+03 0.  0.
         24    2    3    3    0    0 -0.80078666918E+02 -0.34231630247E+01 -0.16749916117E+04  0.16788316011E+04  0.80338875202E+02 0.  0.
         -6    2    1    2    0  501  0.13741123747E+03 -0.17087432929E+02 -0.17818451781E+04  0.17956649519E+04  0.17397284960E+03 0.  0.
        -24    2    5    5    0    0  0.16562229126E+03 -0.28882259517E+02 -0.13902445833E+04  0.14028442583E+04  0.83229102209E+02 0.  0.
          5    1    3    3  502    0 -0.57332570555E+02  0.20510595953E+02 -0.20704460401E+03  0.21586399942E+03  0.47000000000E+01 0. -1.
        -13    1    4    4    0    0 -0.18119413374E+01  0.20539633901E+02 -0.73314326576E+03  0.73343316520E+03  0.00000000000E+00 0.  1.
         14    1    4    4    0    0 -0.78266725580E+02 -0.23962796926E+02 -0.94184834590E+03  0.94539843593E+03  0.00000000000E+00 0. -1.
         -5    1    5    5    0  501 -0.28211053786E+02  0.11794826589E+02 -0.39160059481E+03  0.39282069363E+03  0.47000000000E+01 0.  1.
         13    1    6    6    0    0 -0.87982747802E+01 -0.74764285722E+01 -0.10761115727E+03  0.10822877525E+03  0.00000000000E+00 0. -1.
        -14    1    6    6    0    0  0.17442056604E+03 -0.21405830945E+02 -0.12826334260E+04  0.12946154830E+04  0.00000000000E+00 0.  1.
</event>
<event>
12    1  0.2576962E-002  0.2851637E+03  0.7818608E-02  0.1092902E+00
          1   -1    0    0  502    0  0.00000000000E+00  0.00000000000E+00  0.17159806023E+03  0.17159806023E+03  0.00000000000E+00 0.  1.
         -1   -1    0    0    0  501 -0.00000000000E+00 -0.00000000000E+00 -0.47408012073E+03  0.47408012073E+03  0.00000000000E+00 0. -1.
          6    2    1    2  502    0  0.22750503562E+03 -0.76963332745E+01 -0.15778110756E+03  0.32598929378E+03  0.17191965268E+03 0.  0.
         24    2    3    3    0    0  0.35053941687E+02  0.22548610665E+02 -0.61186968497E+02  0.10849286187E+03  0.79307233547E+02 0.  0.
         -6    2    1    2    0  501 -0.22750503562E+03  0.76963332745E+01 -0.14470095293E+03  0.31968888719E+03  0.17159500003E+03 0.  0.
        -24    2    5    5    0    0 -0.68958192336E+02  0.46770545143E+02 -0.93407960166E+02  0.14846693575E+03  0.79841516807E+02 0.  0.
          5    1    3    3  502    0  0.19245109393E+03 -0.30244943939E+02 -0.96594139068E+02  0.21749643190E+03  0.47000000000E+01 0. -1.
        -11    1    4    4    0    0  0.97495840812E+01  0.47118508864E+02 -0.15043345772E+02  0.50413396229E+02  0.00000000000E+00 0.  1.
         12    1    4    4    0    0  0.25304357606E+02 -0.24569898199E+02 -0.46143622725E+02  0.58079465645E+02  0.00000000000E+00 0. -1.
         -5    1    5    5    0  501 -0.15854684328E+03 -0.39074211868E+02 -0.51292992769E+02  0.17122195144E+03  0.47000000000E+01 0.  1.
         13    1    6    6    0    0 -0.49658812884E+02  0.18740575053E+02 -0.10054526314E+03  0.11369501656E+03  0.00000000000E+00 0. -1.
        -14    1    6    6    0    0 -0.19299379452E+02  0.28029970090E+02  0.71373029768E+01  0.34771919191E+02  0.00000000000E+00 0.  1.
</event>
<event>
12    1  0.2576962E-002  0.1753263E+03  0.7818608E-02  0.1172404E+00
          1   -1    0    0  502    0  0.00000000000E+00  0.00000000000E+00  0.34824161537E+04  0.34824161537E+04  0.00000000000E+00 0.  1.
         -1   -1    0    0    0  501 -0.00000000000E+00 -0.00000000000E+00 -0.88974822271E+01  0.88974822271E+01  0.00000000000E+00 0. -1.
          6    2    1    2  502    0  0.20803866284E+01 -0.32420720398E+02  0.15870091674E+04  0.15967262444E+04  0.17286171128E+03 0.  0.
         24    2    3    3    0    0  0.93597093176E+01 -0.20079020901E+02  0.15754885557E+04  0.15777494012E+04  0.81475227089E+02 0.  0.
         -6    2    1    2    0  501 -0.20803866284E+01  0.32420720398E+02  0.18865095041E+04  0.18945873915E+04  0.17172024870E+03 0.  0.
        -24    2    5    5    0    0  0.45882332754E+02  0.63427813547E+02  0.14375736910E+04  0.14420088718E+04  0.81505785470E+02 0.  0.
          5    1    3    3  502    0 -0.72793226892E+01 -0.12341699497E+02  0.11520611650E+02  0.18976843206E+02  0.47000000000E+01 0. -1.
        -11    1    4    4    0    0 -0.34772458859E+02  0.70339466283E+00  0.54688360150E+03  0.54798840521E+03  0.00000000000E+00 0.  1.
         12    1    4    4    0    0  0.44132168176E+02 -0.20782415564E+02  0.10286049542E+04  0.10297609960E+04  0.00000000000E+00 0. -1.
         -5    1    5    5    0  501 -0.47962719382E+02 -0.31007093149E+02  0.44893581303E+03  0.45257851971E+03  0.47000000000E+01 0.  1.
         13    1    6    6    0    0 -0.31264011639E+01  0.33342889655E+02  0.10135895464E+04  0.10141426385E+04  0.00000000000E+00 0. -1.
        -14    1    6    6    0    0  0.49008733918E+02  0.30084923892E+02  0.42398414463E+03  0.42786623323E+03  0.00000000000E+00 0.  1.
</event>
<event>
12    1  0.2576962E-002  0.1800942E+03  0.7818608E-02  0.1167712E+00
         -1   -1    0    0    0  501 -0.00000000000E+00  0.00000000000E+00  0.32396772901E+02  0.32396772901E+02  0.00000000000E+00 0. -1.
          1   -1    0    0  502    0  0.00000000000E+00 -0.00000000000E+00 -0.11194079269E+04  0.11194079269E+04  0.00000000000E+00 0.  1.
          6    2    1    2  502    0 -0.37456208834E+02  0.37428604407E+02 -0.73040650872E+03  0.75225623115E+03  0.17202296741E+03 0.  0.
         24    2    3    3    0    0 -0.12096290678E+00 -0.14605243902E+02 -0.61851611008E+03  0.62324850554E+03  0.75254192256E+02 0.  0.
         -6    2    1    2    0  501  0.37456208834E+02 -0.37428604407E+02 -0.35660464532E+03  0.39954846869E+03  0.17224470315E+03 0.  0.
        -24    2    5    5    0    0  0.12777383796E+02 -0.16487072401E+01 -0.60754884954E+02  0.10048590641E+03  0.78995452844E+02 0.  0.
          5    1    3    3  502    0 -0.37335245927E+02  0.52033848309E+02 -0.11189039864E+03  0.12900772560E+03  0.47000000000E+01 0. -1.
        -13    1    4    4    0    0 -0.35750589808E+02 -0.67599628988E+01 -0.21209056201E+03  0.21518877356E+03  0.00000000000E+00 0.  1.
         14    1    4    4    0    0  0.35629626901E+02 -0.78452810030E+01 -0.40642554807E+03  0.40805973199E+03  0.00000000000E+00 0. -1.
         -5    1    5    5    0  501  0.24678825038E+02 -0.35779897167E+02 -0.29584976037E+03  0.29906256228E+03  0.47000000000E+01 0.  1.
         13    1    6    6    0    0  0.57951530829E+01  0.34504620038E+02 -0.51938139408E+02  0.62623661090E+02  0.00000000000E+00 0. -1.
        -14    1    6    6    0    0  0.69822307131E+01 -0.36153327278E+02 -0.88167455459E+01  0.37862245325E+02  0.00000000000E+00 0.  1.
</event>
<event>
12    1  0.2576962E-002  0.2195142E+03  0.7818608E-02  0.1134246E+00
          2   -1    0    0  502    0  0.00000000000E+00  0.00000000000E+00  0.47108069180E+03  0.47108069180E+03  0.00000000000E+00 0.  1.
         -2   -1    0    0    0  501 -0.00000000000E+00 -0.00000000000E+00 -0.10229195935E+03  0.10229195935E+03  0.00000000000E+00 0. -1.
          6    2    1    2  502    0 -0.19134613170E+02  0.13399671678E+03  0.18492807918E+03  0.28648039101E+03  0.17190510881E+03 0.  0.
         24    2    3    3    0    0  0.25174711625E+02  0.17056214649E+02  0.11412865481E+03  0.14269914817E+03  0.80081311649E+02 0.  0.
         -6    2    1    2    0  501  0.19134613170E+02 -0.13399671678E+03  0.18386065328E+03  0.28689226015E+03  0.17372730234E+03 0.  0.
        -24    2    5    5    0    0  0.19431979998E+02 -0.92120930220E+02  0.20530627303E+03  0.23960934004E+03  0.79988139479E+02 0.  0.
          5    1    3    3  502    0 -0.44309324794E+02  0.11694050213E+03  0.70799424365E+02  0.14378124284E+03  0.47000000000E+01 0. -1.
        -13    1    4    4    0    0 -0.20988423027E+02  0.88166711379E+01  0.83838428168E+02  0.86874217285E+02  0.00000000000E+00 0.  1.
         14    1    4    4    0    0  0.46163134651E+02  0.82395435114E+01  0.30290226643E+02  0.55824930884E+02  0.00000000000E+00 0. -1.
         -5    1    5    5    0  501 -0.29736682854E+00 -0.41875786562E+02 -0.21445619753E+02  0.47282920106E+02  0.47000000000E+01 0.  1.
         13    1    6    6    0    0  0.23914730262E+02 -0.11902844494E+01  0.13979877373E+02  0.27726667162E+02  0.00000000000E+00 0. -1.
        -14    1    6    6    0    0 -0.44827502637E+01 -0.90930645771E+02  0.19132639566E+03  0.21188267288E+03  0.00000000000E+00 0.  1.
</event>
<event>
12    1  0.2576962E-002  0.2234156E+03  0.7818608E-02  0.1131362E+00
         -2   -1    0    0    0  501 -0.00000000000E+00  0.00000000000E+00  0.32580590139E+02  0.32580590139E+02  0.00000000000E+00 0.  1.
          2   -1    0    0  502    0  0.00000000000E+00 -0.00000000000E+00 -0.15329232662E+04  0.15329232662E+04  0.00000000000E+00 0. -1.
          6    2    1    2  502    0 -0.14195352511E+03  0.14796699605E+02 -0.76668625080E+03  0.79839195337E+03  0.17103262383E+03 0.  0.
         24    2    3    3    0    0 -0.39238123616E+01 -0.19102070877E+02 -0.29767668063E+03  0.30829666145E+03  0.77814779159E+02 0.  0.
         -6    2    1    2    0  501  0.14195352511E+03 -0.14796699605E+02 -0.73365642529E+03  0.76711190301E+03  0.17274019728E+03 0.  0.
        -24    2    5    5    0    0  0.25208737380E+02 -0.41138545447E+01 -0.48415054257E+03  0.49139693397E+03  0.80104897491E+02 0.  0.
          5    1    3    3  502    0 -0.13802971275E+03  0.33898770483E+02 -0.46900957018E+03  0.49009529192E+03  0.47000000000E+01 0. -1.
        -13    1    4    4    0    0 -0.33992842463E+02 -0.30418940661E+02 -0.21055821087E+03  0.21544276608E+03  0.00000000000E+00 0.  1.
         14    1    4    4    0    0  0.30069030101E+02  0.11316869783E+02 -0.87118469755E+02  0.92853895370E+02  0.00000000000E+00 0. -1.
         -5    1    5    5    0  501  0.11674478773E+03 -0.10682845060E+02 -0.24950588272E+03  0.27571496904E+03  0.47000000000E+01 0.  1.
         13    1    6    6    0    0  0.35566469682E+02  0.30942146975E+02 -0.24920890204E+03  0.25362860068E+03  0.00000000000E+00 0. -1.
        -14    1    6    6    0    0 -0.10357732302E+02 -0.35056001520E+02 -0.23494164053E+03  0.23776833329E+03  0.00000000000E+00 0.  1.
</event>
<event>
12    1  0.2576962E-002  0.2095500E+03  0.7818608E-02  0.1141923E+00
         -1   -1    0    0    0  501 -0.00000000000E+00  0.00000000000E+00  0.15083180488E+03  0.15083180488E+03  0.00000000000E+00 0. -1.
          1   -1    0    0  502    0  0.00000000000E+00 -0.00000000000E+00 -0.34758619985E+03  0.34758619985E+03  0.00000000000E+00 0.  1.
          6    2    1    2  502    0 -0.13016943152E+02 -0.11962622786E+03  0.21299704669E+01  0.20938561756E+03  0.17134154448E+03 0.  0.
         24    2    3    3    0    0 -0.59559831544E+02 -0.24797439295E+02  0.16947699529E+01  0.10364527994E+03  0.81099847589E+02 0.  0.
         -6    2    1    2    0  501  0.13016943152E+02  0.11962622786E+03 -0.19888436543E+03  0.28903238717E+03  0.17176977271E+03 0.  0.
        -24    2    5    5    0    0 -0.57546969522E+02  0.52564088408E+02 -0.98172408738E+02  0.14888394964E+03  0.80336613893E+02 0.  0.
          5    1    3    3  502    0  0.46542888392E+02 -0.94828788567E+02  0.43520051400E+00  0.10574033762E+03  0.47000000000E+01 0. -1.
        -11    1    4    4    0    0 -0.25646781310E+02  0.27141337036E+02 -0.13627683297E+02  0.39750765020E+02  0.00000000000E+00 0.  1.
         12    1    4    4    0    0 -0.33913050234E+02 -0.51938776331E+02  0.15322453250E+02  0.63894514918E+02  0.00000000000E+00 0. -1.
         -5    1    5    5    0  501  0.70563912674E+02  0.67062139454E+02 -0.10071195670E+03  0.14014843753E+03  0.47000000000E+01 0.  1.
         11    1    6    6    0    0 -0.50346218290E+02  0.73748053574E+02 -0.82447867930E+02  0.12153669416E+03  0.00000000000E+00 0. -1.
        -12    1    6    6    0    0 -0.72007512321E+01 -0.21183965166E+02 -0.15724540808E+02  0.27347255477E+02  0.00000000000E+00 0.  1.
</event>
<event>
12    1  0.2576962E-002  0.1787850E+03  0.7818608E-02  0.1168984E+00
          2   -1    0    0  502    0  0.00000000000E+00  0.00000000000E+00  0.37790638210E+02  0.37790638210E+02  0.00000000000E+00 0. -1.
         -2   -1    0    0    0  501 -0.00000000000E+00 -0.00000000000E+00 -0.85624287159E+03  0.85624287159E+03  0.00000000000E+00 0.  1.
          6    2    1    2  502    0 -0.51934280825E+02 -0.50309597015E+01 -0.35957075145E+03  0.40149949660E+03  0.17084566250E+03 0.  0.
         24    2    3    3    0    0 -0.71489586612E+02 -0.55482905081E+02 -0.28281375976E+03  0.30747006212E+03  0.79781593344E+02 0.  0.
         -6    2    1    2    0  501  0.51934280825E+02  0.50309597015E+01 -0.45888148192E+03  0.49253401319E+03  0.17115799607E+03 0.  0.
        -24    2    5    5    0    0  0.47289292288E+01  0.19733685282E+02 -0.42386584253E+03  0.43176642017E+03  0.79675642590E+02 0.  0.
          5    1    3    3  502    0  0.19555305787E+02  0.50451945379E+02 -0.76756991688E+02  0.94029434487E+02  0.47000000000E+01 0. -1.
        -11    1    4    4    0    0 -0.71070049111E+02 -0.19534324200E+02 -0.24250390384E+03  0.25345746207E+03  0.00000000000E+00 0.  1.
         12    1    4    4    0    0 -0.41953750096E+00 -0.35948580880E+02 -0.40309855926E+02  0.54012600047E+02  0.00000000000E+00 0. -1.
         -5    1    5    5    0  501  0.47205351596E+02 -0.14702725581E+02 -0.35015639397E+02  0.60767593018E+02  0.47000000000E+01 0.  1.
         11    1    6    6    0    0  0.88033532914E+01  0.16429049420E+02 -0.18147997531E+02  0.26014659491E+02  0.00000000000E+00 0. -1.
        -12    1    6    6    0    0 -0.40744240626E+01  0.33046358626E+01 -0.40571784500E+03  0.40575176068E+03  0.00000000000E+00 0.  1.
</event>
<event>
12    1  0.2576962E-002  0.1775522E+03  0.7818608E-02  0.1170193E+00
          2   -1    0    0  502    0  0.00000000000E+00  0.00000000000E+00  0.15770240638E+04  0.15770240638E+04  0.00000000000E+00 0.  1.
         -2   -1    0    0    0  501 -0.00000000000E+00 -0.00000000000E+00 -0.20388906578E+02  0.20388906578E+02  0.00000000000E+00 0. -1.
          6    2    1    2  502    0  0.44682960204E+02  0.13090162070E+02  0.65930037351E+03  0.68233504617E+03  0.16951759038E+03 0.  0.
         24    2    3    3    0    0  0.91478833985E+00  0.10008960142E+02  0.61362494017E+03  0.61882534703E+03  0.79424346473E+02 0.  0.
         -6    2    1    2    0  501 -0.44682960204E+02 -0.13090162070E+02  0.89733478375E+03  0.91507792425E+03  0.17317613587E+03 0.  0.
        -24    2    5    5    0    0  0.18490824165E+02 -0.57719950127E+02  0.43077302403E+03  0.44212474406E+03  0.78964472121E+02 0.  0.
          5    1    3    3  502    0  0.43768171864E+02  0.30812019280E+01  0.45675433338E+02  0.63509699135E+02  0.47000000000E+01 0. -1.
        -13    1    4    4    0    0 -0.36641205134E+02 -0.79045777878E+01  0.33900477223E+03  0.34107080769E+03  0.00000000000E+00 0.  1.
         14    1    4    4    0    0  0.37555993474E+02  0.17913537930E+02  0.27462016794E+03  0.27775453934E+03  0.00000000000E+00 0. -1.
         -5    1    5    5    0  501 -0.63173784368E+02  0.44629788057E+02  0.46656175973E+03  0.47295318019E+03  0.47000000000E+01 0.  1.
         13    1    6    6    0    0 -0.15630630251E+02  0.12613227944E+02  0.62566758135E+02  0.65711561729E+02  0.00000000000E+00 0. -1.
        -14    1    6    6    0    0  0.34121454416E+02 -0.70333178071E+02  0.36820626589E+03  0.37641318233E+03  0.00000000000E+00 0.  1.
</event>
<event>
12    1  0.2576962E-002  0.2007341E+03  0.7818608E-02  0.1149121E+00
         -3   -1    0    0    0  501 -0.00000000000E+00  0.00000000000E+00  0.21669591549E+03  0.21669591549E+03  0.00000000000E+00 0.  1.
          3   -1    0    0  502    0  0.00000000000E+00 -0.00000000000E+00 -0.20285227088E+03  0.20285227088E+03  0.00000000000E+00 0. -1.
          6    2    1    2  502    0  0.26452794959E+01 -0.10379823774E+03  0.67465127182E+02  0.21141694288E+03  0.17136075598E+03 0.  0.
         24    2    3    3    0    0 -0.61917001686E+02 -0.60378610049E+02  0.15516822958E+02  0.11774587728E+03  0.78383851472E+02 0.  0.
         -6    2    1    2    0  501 -0.26452794959E+01  0.10379823774E+03 -0.53621482570E+02  0.20813124349E+03  0.17222740624E+03 0.  0.
        -24    2    5    5    0    0  0.42850931837E+02  0.11687549129E+02 -0.52113913114E+02  0.10527869384E+03  0.79968382962E+02 0.  0.
          5    1    3    3  502    0  0.64562281182E+02 -0.43419627692E+02  0.51948304224E+02  0.93671065608E+02  0.47000000000E+01 0. -1.
        -13    1    4    4    0    0  0.15414427381E+02  0.39767916524E+01  0.44662499737E+01  0.16533808762E+02  0.00000000000E+00 0.  1.
         14    1    4    4    0    0 -0.77331429067E+02 -0.64355401702E+02  0.11050572984E+02  0.10121206851E+03  0.00000000000E+00 0. -1.
         -5    1    5    5    0  501 -0.45496211333E+02  0.92110688613E+02 -0.15075694559E+01  0.10285254964E+03  0.47000000000E+01 0.  1.
         13    1    6    6    0    0  0.11697917693E+02  0.33347991978E+02 -0.56954549710E+02  0.67027983559E+02  0.00000000000E+00 0. -1.
        -14    1    6    6    0    0  0.31153014145E+02 -0.21660442849E+02  0.48406365952E+01  0.38250710286E+02  0.00000000000E+00 0.  1.
</event>
<event>
12    1  0.2576962E-002  0.1901833E+03  0.7818608E-02  0.1158296E+00
         -1   -1    0    0    0  501 -0.00000000000E+00  0.00000000000E+00  0.13869309429E+03  0.13869309429E+03  0.00000000000E+00 0.  1.
          1   -1    0    0  502    0  0.00000000000E+00 -0.00000000000E+00 -0.27501103081E+03  0.27501103081E+03  0.00000000000E+00 0. -1.
          6    2    1    2  502    0  0.50228147148E+02  0.41994923722E+02 -0.11681596027E+03  0.22855589345E+03  0.18521713601E+03 0.  0.
         24    2    3    3    0    0  0.10747215304E+03  0.23113720641E+02 -0.83744619537E+02  0.15964160162E+03  0.79923537873E+02 0.  0.
         -6    2    1    2    0  501 -0.50228147148E+02 -0.41994923722E+02 -0.19501976256E+02  0.18514823165E+03  0.17208457287E+03 0.  0.
        -24    2    5    5    0    0 -0.87072575670E+02 -0.65614055108E+02  0.37510458021E+01  0.13536702721E+03  0.80145642738E+02 0.  0.
          5    1    3    3  502    0 -0.57244005890E+02  0.18881203082E+02 -0.33071340730E+02  0.68914291826E+02  0.47000000000E+01 0. -1.
        -13    1    4    4    0    0 -0.12905469646E+02 -0.34391933378E+00 -0.47260054132E+01  0.13747892728E+02  0.00000000000E+00 0.  1.
         14    1    4    4    0    0  0.12037762268E+03  0.23457639974E+02 -0.79018614124E+02  0.14589370889E+03  0.00000000000E+00 0. -1.
         -5    1    5    5    0  501  0.36844428522E+02  0.23619131386E+02 -0.23253022059E+02  0.49781204439E+02  0.47000000000E+01 0.  1.
         13    1    6    6    0    0 -0.14276183141E+02  0.15667247533E+02  0.14565142314E+02  0.25717997997E+02  0.00000000000E+00 0. -1.
        -14    1    6    6    0    0 -0.72796392529E+02 -0.81281302641E+02 -0.10814096512E+02  0.10964902921E+03  0.00000000000E+00 0.  1.
</event>
<event>
12    1  0.2576962E-002  0.1942091E+03  0.7818608E-02  0.1154719E+00
         -1   -1    0    0    0  501 -0.00000000000E+00  0.00000000000E+00  0.18968364615E+04  0.18968364615E+04  0.00000000000E+00 0. -1.
          1   -1    0    0  502    0  0.00000000000E+00 -0.00000000000E+00 -0.19994670780E+02  0.19994670780E+02  0.00000000000E+00 0.  1.
          6    2    1    2  502    0 -0.90630233345E+02 -0.88788092483E+01  0.86993140328E+03  0.89146792199E+03  0.17216775850E+03 0.  0.
         24    2    3    3    0    0  0.54350175296E+01  0.39049642567E+02  0.31170446474E+03  0.32299182414E+03  0.74897470698E+02 0.  0.
         -6    2    1    2    0  501  0.90630233345E+02  0.88788092483E+01  0.10069103875E+04  0.10253632103E+04  0.17090498016E+03 0.  0.
        -24    2    5    5    0    0  0.12959947346E+03  0.44119619824E+01  0.85611467156E+03  0.86947866222E+03  0.79027364062E+02 0.  0.
          5    1    3    3  502    0 -0.96065250875E+02 -0.47928451815E+02  0.55822693854E+03  0.56847609785E+03  0.47000000000E+01 0. -1.
        -11    1    4    4    0    0 -0.91075417810E+01  0.26422310849E+02  0.31439011504E+02  0.42065392810E+02  0.00000000000E+00 0.  1.
         12    1    4    4    0    0  0.14542559311E+02  0.12627331717E+02  0.28026545324E+03  0.28092643133E+03  0.00000000000E+00 0. -1.
         -5    1    5    5    0  501 -0.38969240119E+02  0.44668472660E+01  0.15079571591E+03  0.15588454810E+03  0.47000000000E+01 0.  1.
         11    1    6    6    0    0  0.50617808654E+02 -0.32066708415E+02  0.46241843348E+03  0.46628450967E+03  0.00000000000E+00 0. -1.
        -12    1    6    6    0    0  0.78981664811E+02  0.36478670398E+02  0.39369623808E+03  0.40319415255E+03  0.00000000000E+00 0.  1.
</event>
<event>
12    1  0.2576962E-002  0.2067464E+03  0.7818608E-02  0.1144169E+00
         -1   -1    0    0    0  501 -0.00000000000E+00  0.00000000000E+00  0.65629263098E+03  0.65629263098E+03  0.00000000000E+00 0. -1.
          1   -1    0    0  502    0  0.00000000000E+00 -0.00000000000E+00 -0.84604210105E+02  0.84604210105E+02  0.00000000000E+00 0.  1.
          6    2    1    2  502    0 -0.80226836493E+02 -0.82147563965E+02  0.10600134128E+03  0.23055375686E+03  0.16951160105E+03 0.  0.
         24    2    3    3    0    0 -0.15067975346E+02  0.16262845754E+02  0.26545589589E+02  0.88196486575E+02  0.81132163070E+02 0.  0.
         -6    2    1    2    0  501  0.80226836493E+02  0.82147563965E+02  0.46568707959E+03  0.51034308422E+03  0.17435893998E+03 0.  0.
        -24    2    5    5    0    0  0.11443778583E+03  0.94851113410E+02  0.41196720571E+03  0.44523022778E+03  0.80126379000E+02 0.  0.
          5    1    3    3  502    0 -0.65158861147E+02 -0.98410409719E+02  0.79455751690E+02  0.14235727029E+03  0.47000000000E+01 0. -1.
        -11    1    4    4    0    0 -0.26793305002E+02 -0.10079417027E+02 -0.18952029392E+02  0.34331549028E+02  0.00000000000E+00 0.  1.
         12    1    4    4    0    0  0.11725329656E+02  0.26342262782E+02  0.45497618981E+02  0.53864937547E+02  0.00000000000E+00 0. -1.
         -5    1    5    5    0  501 -0.34210949338E+02 -0.12703549445E+02  0.53719873885E+02  0.65112856437E+02  0.47000000000E+01 0.  1.
         11    1    6    6    0    0  0.57194897201E+02  0.35402281373E+02  0.29180155083E+03  0.29945404131E+03  0.00000000000E+00 0. -1.
        -12    1    6    6    0    0  0.57242888631E+02  0.59448832037E+02  0.12016565488E+03  0.14577618647E+03  0.00000000000E+00 0.  1.
</event>
<event>
12    1  0.2576962E-002  0.2042031E+03  0.7818608E-02  0.1146241E+00
          3   -1    0    0  502    0  0.00000000000E+00  0.00000000000E+00  0.15821666139E+04  0.15821666139E+04  0.00000000000E+00 0. -1.
         -3   -1    0    0    0  501 -0.00000000000E+00 -0.00000000000E+00 -0.32659360802E+02  0.32659360802E+02  0.00000000000E+00 0.  1.
          6    2    1    2  502    0 -0.10561958799E+03  0.33684144308E+02  0.41843502848E+03  0.46537523245E+03  0.17086870684E+03 0.  0.
         24    2    3    3    0    0 -0.51892602831E+02  0.41507470780E+02  0.10889627618E+03  0.15107581701E+03  0.80930780057E+02 0.  0.
         -6    2    1    2    0  501  0.10561958799E+03 -0.33684144308E+02  0.11310722246E+04  0.11494507423E+04  0.17211191884E+03 0.  0.
        -24    2    5    5    0    0  0.80037059834E+01 -0.62528037811E+02  0.49389241655E+03  0.50417481025E+03  0.79301357730E+02 0.  0.
          5    1    3    3  502    0 -0.53726985164E+02 -0.78233264725E+01  0.30953875230E+03  0.31429941544E+03  0.47000000000E+01 0. -1.
        -13    1    4    4    0    0 -0.61944014151E+02  0.87559104372E+00  0.55056062158E+02  0.82879415594E+02  0.00000000000E+00 0.  1.
         14    1    4    4    0    0  0.10051411320E+02  0.40631879736E+02  0.53840214021E+02  0.68196401417E+02  0.00000000000E+00 0. -1.
         -5    1    5    5    0  501  0.97615882012E+02  0.28843893503E+02  0.63717980809E+03  0.64527593202E+03  0.47000000000E+01 0.  1.
         13    1    6    6    0    0  0.19061262539E+01 -0.11517834200E+02  0.51841674005E+01  0.12773778360E+02  0.00000000000E+00 0. -1.
        -14    1    6    6    0    0  0.60975797295E+01 -0.51010203611E+02  0.48870824915E+03  0.49140103189E+03  0.00000000000E+00 0.  1.
</event>
<event>
12    1  0.2576962E-002  0.1837914E+03  0.7818608E-02  0.1164183E+00
          1   -1    0    0  502    0  0.00000000000E+00  0.00000000000E+00  0.30165660262E+03  0.30165660262E+03  0.00000000000E+00 0. -1.
         -1   -1    0    0    0  501 -0.00000000000E+00 -0.00000000000E+00 -0.11977028023E+03  0.11977028023E+03  0.00000000000E+00 0.  1.
          6    2    1    2  502    0 -0.62267559341E+02  0.28599146304E+00  0.36944074183E+02  0.18691588571E+03  0.17232339649E+03 0.  0.
         24    2    3    3    0    0 -0.17190144815E+02 -0.10869082541E+02 -0.52732697775E+02  0.85819780915E+02  0.64580642205E+02 0.  0.
         -6    2    1    2    0  501  0.62267559341E+02 -0.28599146304E+00  0.14494224821E+03  0.23451099714E+03  0.17352181916E+03 0.  0.
        -24    2    5    5    0    0  0.72157033190E+02 -0.45764389429E+02  0.47324990957E+02  0.12626449471E+03  0.80012818202E+02 0.  0.
          5    1    3    3  502    0 -0.45077414527E+02  0.11155074004E+02  0.89676771958E+02  0.10109610480E+03  0.47000000000E+01 0. -1.
        -13    1    4    4    0    0  0.10961193306E+02  0.15974183662E+02  0.10998206877E+01  0.19404430110E+02  0.00000000000E+00 0.  1.
         14    1    4    4    0    0 -0.28151338121E+02 -0.26843266203E+02 -0.53832518463E+02  0.66415350805E+02  0.00000000000E+00 0. -1.
         -5    1    5    5    0  501 -0.98894738483E+01  0.45478397966E+02  0.97617257250E+02  0.10824650243E+03  0.47000000000E+01 0.  1.
         11    1    6    6    0    0  0.75944342352E+02 -0.50280354639E+01  0.32298516266E+02  0.82680217881E+02  0.00000000000E+00 0. -1.
        -12    1    6    6    0    0 -0.37873091621E+01 -0.40736353965E+02  0.15026474691E+02  0.43584276829E+02  0.00000000000E+00 0.  1.
</event>
<event>
12    1  0.2576962E-002  0.3653094E+03  0.7818608E-02  0.1056501E+00
          1   -1    0    0  502    0  0.00000000000E+00  0.00000000000E+00  0.67178466308E+03  0.67178466308E+03  0.00000000000E+00 0. -1.
         -1   -1    0    0    0  501 -0.00000000000E+00 -0.00000000000E+00 -0.27511154147E+03  0.27511154147E+03  0.00000000000E+00 0.  1.
          6    2    1    2  502    0 -0.31633964051E+03 -0.53554153146E+02  0.44824923085E+03  0.57877118571E+03  0.17637997893E+03 0.  0.
         24    2    3    3    0    0 -0.72681877577E+02 -0.40608716241E+02  0.95913405118E+02  0.15016960630E+03  0.80123693200E+02 0.  0.
         -6    2    1    2    0  501  0.31633964051E+03  0.53554153146E+02 -0.51576109247E+02  0.36812501885E+03  0.17296565838E+03 0.  0.
        -24    2    5    5    0    0  0.12169459303E+03  0.61134584336E+02  0.21280844912E+02  0.16010006069E+03  0.81437974552E+02 0.  0.
          5    1    3    3  502    0 -0.24365776293E+03 -0.12945436905E+02  0.35233582573E+03  0.42860157941E+03  0.47000000000E+01 0. -1.
        -11    1    4    4    0    0  0.10267864760E+02  0.12454042514E+02  0.20763922315E+02  0.26299670940E+02  0.00000000000E+00 0.  1.
         12    1    4    4    0    0 -0.82949742337E+02 -0.53062758755E+02  0.75149482803E+02  0.12386993536E+03  0.00000000000E+00 0. -1.
         -5    1    5    5    0  501  0.19464504748E+03 -0.75804311892E+01 -0.72856954159E+02  0.20802495815E+03  0.47000000000E+01 0.  1.
         11    1    6    6    0    0  0.99330907874E+02  0.72677918212E+02 -0.56891812093E+01  0.12321150854E+03  0.00000000000E+00 0. -1.
        -12    1    6    6    0    0  0.22363685155E+02 -0.11543333876E+02  0.26970026121E+02  0.36888552149E+02  0.00000000000E+00 0.  1.
</event>
<event>
12    1  0.2576962E-002  0.1856493E+03  0.7818608E-02  0.1162445E+00
         -1   -1    0    0    0  501 -0.00000000000E+00  0.00000000000E+00  0.28729858463E+02  0.28729858463E+02  0.00000000000E+00 0.  1.
          1   -1    0    0  502    0  0.00000000000E+00 -0.00000000000E+00 -0.12077220511E+04  0.12077220511E+04  0.00000000000E+00 0. -1.
          6    2    1    2  502    0 -0.63479059277E+02  0.15473590268E+02 -0.54169085116E+03  0.57289645598E+03  0.17467784084E+03 0.  0.
         24    2    3    3    0    0 -0.90215381791E+02  0.22376041125E+01 -0.22845598946E+03  0.25820900650E+03  0.79598554870E+02 0.  0.
         -6    2    1    2    0  501  0.63479059277E+02 -0.15473590268E+02 -0.63730134151E+03  0.66355545362E+03  0.17286936447E+03 0.  0.
        -24    2    5    5    0    0  0.27405261249E+02  0.49804273912E+02 -0.47723780456E+03  0.48690624100E+03  0.78040062681E+02 0.  0.
          5    1    3    3  502    0  0.26736322514E+02  0.13235986155E+02 -0.31323486171E+03  0.31468744948E+03  0.47000000000E+01 0. -1.
        -11    1    4    4    0    0 -0.53991090710E+02  0.75213996846E+01 -0.43714318576E+02  0.69875252971E+02  0.00000000000E+00 0.  1.
         12    1    4    4    0    0 -0.36224291081E+02 -0.52837955721E+01 -0.18474167088E+03  0.18833375353E+03  0.00000000000E+00 0. -1.
         -5    1    5    5    0  501  0.36073798028E+02 -0.65277864180E+02 -0.16006353695E+03  0.17664921261E+03  0.47000000000E+01 0.  1.
         13    1    6    6    0    0  0.41115156334E+01  0.19820866703E+02 -0.40313241595E+03  0.40364033013E+03  0.00000000000E+00 0. -1.
        -14    1    6    6    0    0  0.23293745616E+02  0.29983407210E+02 -0.74105388614E+02  0.83265910878E+02  0.00000000000E+00 0.  1.
</event>
<event>
12    1  0.2576962E-002  0.2369148E+03  0.7818608E-02  0.1121865E+00
         -2   -1    0    0    0  501 -0.00000000000E+00  0.00000000000E+00  0.61805846229E+02  0.61805846229E+02  0.00000000000E+00 0.  1.
          2   -1    0    0  502    0  0.00000000000E+00 -0.00000000000E+00 -0.91226779172E+03  0.91226779172E+03  0.00000000000E+00 0. -1.
          6    2    1    2  502    0  0.69184415878E+02 -0.15607202887E+03 -0.46157255931E+03  0.51983012527E+03  0.16741914477E+03 0.  0.
         24    2    3    3    0    0  0.41069070787E+02 -0.77050691449E+01 -0.15192364206E+03  0.17529018663E+03  0.76810284759E+02 0.  0.
         -6    2    1    2    0  501 -0.69184415878E+02  0.15607202887E+03 -0.38888938618E+03  0.45424351268E+03  0.16111254616E+03 0.  0.
        -24    2    5    5    0    0 -0.10370087664E+03  0.91971501504E+02 -0.24691917255E+03  0.29462554618E+03  0.81378779668E+02 0.  0.
          5    1    3    3  502    0  0.28115345091E+02 -0.14836695973E+03 -0.30964891725E+03  0.34453993864E+03  0.47000000000E+01 0. -1.
        -11    1    4    4    0    0 -0.17600318955E+02 -0.24972014337E+01 -0.81813270498E+02  0.83722269868E+02  0.00000000000E+00 0.  1.
         12    1    4    4    0    0  0.58669389742E+02 -0.52078677112E+01 -0.70110371562E+02  0.91567916757E+02  0.00000000000E+00 0. -1.
         -5    1    5    5    0  501  0.34516460764E+02  0.64100527368E+02 -0.14197021363E+03  0.15961796650E+03  0.47000000000E+01 0.  1.
         11    1    6    6    0    0 -0.63762039623E+02  0.12136631275E+02 -0.14668201954E+03  0.16040109218E+03  0.00000000000E+00 0. -1.
        -12    1    6    6    0    0 -0.39938837019E+02  0.79834870229E+02 -0.10023715301E+03  0.13422445400E+03  0.00000000000E+00 0.  1.
</event>
<event>
12    1  0.2576962E-002  0.1926374E+03  0.7818608E-02  0.1156104E+00
          2   -1    0    0  502    0  0.00000000000E+00  0.00000000000E+00  0.29006214843E+03  0.29006214843E+03  0.00000000000E+00 0.  1.
         -2   -1    0    0    0  501 -0.00000000000E+00 -0.00000000000E+00 -0.37060242479E+03  0.37060242479E+03  0.00000000000E+00 0. -1.
          6    2    1    2  502    0 -0.47494726806E+02  0.39949058666E+02 -0.30798263107E+03  0.36893691384E+03  0.19341527600E+03 0.  0.
         24    2    3    3    0    0 -0.94901150382E+02  0.27060880911E+02 -0.11907330588E+03  0.17368759305E+03  0.79059523076E+02 0.  0.
         -6    2    1    2    0  501  0.47494726806E+02 -0.39949058666E+02  0.22744235471E+03  0.29172765938E+03  0.17182353206E+03 0.  0.
        -24    2    5    5    0    0 -0.14484617245E+02  0.32859336797E+02  0.11574431212E+03  0.14461870569E+03  0.78919478550E+02 0.  0.
          5    1    3    3  502    0  0.47406423575E+02  0.12888177755E+02 -0.18890932519E+03  0.19524932078E+03  0.47000000000E+01 0. -1.
        -13    1    4    4    0    0 -0.54961239063E+02  0.37998934851E+02 -0.11376780652E+03  0.13193851087E+03  0.00000000000E+00 0.  1.
         14    1    4    4    0    0 -0.39939911319E+02 -0.10938053940E+02 -0.53054993572E+01  0.41749082188E+02  0.00000000000E+00 0. -1.
         -5    1    5    5    0  501  0.61979344051E+02 -0.72808395463E+02  0.11169804259E+03  0.14710895369E+03  0.47000000000E+01 0.  1.
         13    1    6    6    0    0 -0.25175622973E+02  0.38165752037E+00  0.13399790270E+01  0.25214146790E+02  0.00000000000E+00 0. -1.
        -14    1    6    6    0    0  0.10691005728E+02  0.32477679277E+02  0.11440433309E+03  0.11940455890E+03  0.00000000000E+00 0.  1.
</event>
<event>
12    1  0.2576962E-002  0.1749963E+03  0.7818608E-02  0.1172735E+00
          2   -1    0    0  502    0  0.00000000000E+00  0.00000000000E+00  0.72519308202E+02  0.72519308202E+02  0.00000000000E+00 0. -1.
         -2   -1    0    0    0  501 -0.00000000000E+00 -0.00000000000E+00 -0.89276999167E+03  0.89276999167E+03  0.00000000000E+00 0.  1.
          6    2    1    2  502    0  0.40601920061E+02 -0.10135032312E+02 -0.57507291092E+02  0.18226396490E+03  0.16781486699E+03 0.  0.
         24    2    3    3    0    0  0.18649590195E+02  0.31832096237E+02 -0.86520629444E+02  0.12652341891E+03  0.84624267492E+02 0.  0.
         -6    2    1    2    0  501 -0.40601920061E+02  0.10135032312E+02 -0.76274339238E+03  0.78302533497E+03  0.17204638269E+03 0.  0.
        -24    2    5    5    0    0  0.38695048832E+02  0.23182436898E+02 -0.32189186669E+03  0.33488428380E+03  0.80612514603E+02 0.  0.
          5    1    3    3  502    0  0.21952329866E+02 -0.41967128548E+02  0.29013338352E+02  0.55740545992E+02  0.47000000000E+01 0. -1.
        -11    1    4    4    0    0 -0.18500165635E+02  0.47823867399E+02 -0.41190532940E+02  0.65772626718E+02  0.00000000000E+00 0.  1.
         12    1    4    4    0    0  0.37149755830E+02 -0.15991771163E+02 -0.45330096504E+02  0.60750792194E+02  0.00000000000E+00 0. -1.
         -5    1    5    5    0  501 -0.79296968892E+02 -0.13047404586E+02 -0.44085152569E+03  0.44814105117E+03  0.47000000000E+01 0.  1.
         11    1    6    6    0    0  0.11468150678E+02 -0.12731282397E+02 -0.10178954095E+02  0.19930256845E+02  0.00000000000E+00 0. -1.
        -12    1    6    6    0    0  0.27226898154E+02  0.35913719295E+02 -0.31171291260E+03  0.31495402696E+03  0.00000000000E+00 0.  1.
</event>
<event>
12    1  0.2576962E-002  0.2173374E+03  0.7818608E-02  0.1135884E+00
         -1   -1    0    0    0  501 -0.00000000000E+00  0.00000000000E+00  0.68764208216E+02  0.68764208216E+02  0.00000000000E+00 0. -1.
          1   -1    0    0  502    0  0.00000000000E+00 -0.00000000000E+00 -0.98518589911E+03  0.98518589911E+03  0.00000000000E+00 0.  1.
          6    2    1    2  502    0 -0.15636722187E+02 -0.13196715212E+03 -0.74757509064E+03  0.77841489189E+03  0.17146833952E+03 0.  0.
         24    2    3    3    0    0  0.46951857740E+02 -0.36918069478E+02 -0.41506947548E+03  0.42694123348E+03  0.80179340027E+02 0.  0.
         -6    2    1    2    0  501  0.15636722187E+02  0.13196715212E+03 -0.16884660025E+03  0.27553521543E+03  0.17248375055E+03 0.  0.
        -24    2    5    5    0    0 -0.47893517972E+02  0.10392911692E+03 -0.76426883541E+02  0.15983855658E+03  0.81315713327E+02 0.  0.
          5    1    3    3  502    0 -0.62588579927E+02 -0.95049082647E+02 -0.33250561516E+03  0.35147365842E+03  0.47000000000E+01 0. -1.
        -13    1    4    4    0    0 -0.93660875313E+01 -0.94028651427E+01 -0.89366566338E+01  0.16000040635E+02  0.00000000000E+00 0.  1.
         14    1    4    4    0    0  0.56317945272E+02 -0.27515204335E+02 -0.40613281885E+03  0.41094119284E+03  0.00000000000E+00 0. -1.
         -5    1    5    5    0  501  0.63530240158E+02  0.28038035209E+02 -0.92419716714E+02  0.11569665886E+03  0.47000000000E+01 0.  1.
         11    1    6    6    0    0  0.10859632082E+02 -0.70351776400E+01 -0.17709703692E+00  0.12940506046E+02  0.00000000000E+00 0. -1.
        -12    1    6    6    0    0 -0.58753150053E+02  0.11096429456E+03 -0.76249786504E+02  0.14689805053E+03  0.00000000000E+00 0.  1.
</event>
<event>
12    1  0.2576962E-002  0.2185521E+03  0.7818608E-02  0.1134967E+00
          2   -1    0    0  502    0  0.00000000000E+00  0.00000000000E+00  0.15921298580E+04  0.15921298580E+04  0.00000000000E+00 0. -1.
         -2   -1    0    0    0  501 -0.00000000000E+00 -0.00000000000E+00 -0.30535271499E+02  0.30535271499E+02  0.00000000000E+00 0.  1.
          6    2    1    2  502    0  0.10128896967E+03  0.89240248594E+02  0.67321973138E+03  0.70778630909E+03  0.17179457291E+03 0.  0.
         24    2    3    3    0    0  0.76215613029E+02  0.73328270612E+02  0.24305356767E+03  0.27657072188E+03  0.78933342162E+02 0.  0.
         -6    2    1    2    0  501 -0.10128896967E+03 -0.89240248594E+02  0.88837485510E+03  0.91487882038E+03  0.17195957508E+03 0.  0.
        -24    2    5    5    0    0 -0.25354724361E+02 -0.57772359955E+02  0.72282931102E+03  0.72999059796E+03  0.80147068668E+02 0.  0.
          5    1    3    3  502    0  0.25073356638E+02  0.15911977982E+02  0.43016616371E+03  0.43121558721E+03  0.47000000000E+01 0. -1.
        -13    1    4    4    0    0  0.86383123607E+02  0.38484843228E+02  0.19076827297E+03  0.21292172546E+03  0.00000000000E+00 0.  1.
         14    1    4    4    0    0 -0.10167510578E+02  0.34843427384E+02  0.52285294701E+02  0.63648996419E+02  0.00000000000E+00 0. -1.
         -5    1    5    5    0  501 -0.75934245306E+02 -0.31467888639E+02  0.16554554407E+03  0.18488822242E+03  0.47000000000E+01 0.  1.
         11    1    6    6    0    0 -0.23547063943E+02 -0.74835498566E+02  0.66662286261E+03  0.67122340321E+03  0.00000000000E+00 0. -1.
        -12    1    6    6    0    0 -0.18076604178E+01  0.17063138611E+02  0.56206448414E+02  0.58767194750E+02  0.00000000000E+00 0.  1.
</event>
<event>
12    1  0.2576962E-002  0.1821388E+03  0.7818608E-02  0.1165749E+00
         -1   -1    0    0    0  501 -0.00000000000E+00  0.00000000000E+00  0.34545858679E+02  0.34545858679E+02  0.00000000000E+00 0.  1.
          1   -1    0    0  502    0  0.00000000000E+00 -0.00000000000E+00 -0.96199585798E+03  0.96199585798E+03  0.00000000000E+00 0. -1.
          6    2    1    2  502    0  0.58824908168E+02 -0.10008859843E+02 -0.48472613729E+03  0.51783197684E+03  0.17213361371E+03 0.  0.
         24    2    3    3    0    0 -0.10260066347E+02 -0.48931191774E+02 -0.20642036084E+03  0.22841207975E+03  0.84042741008E+02 0.  0.
         -6    2    1    2    0  501 -0.58824908168E+02  0.10008859843E+02 -0.44272386201E+03  0.47870973982E+03  0.17204083790E+03 0.  0.
        -24    2    5    5    0    0 -0.15952285386E+01  0.63645611616E+02 -0.25702877235E+03  0.27707419311E+03  0.81565985810E+02 0.  0.
          5    1    3    3  502    0  0.69084974516E+02  0.38922331931E+02 -0.27830577645E+03  0.28941989709E+03  0.47000000000E+01 0. -1.
        -13    1    4    4    0    0  0.80913068661E+01 -0.17531076469E+01  0.58834180027E+01  0.10156635300E+02  0.00000000000E+00 0.  1.
         14    1    4    4    0    0 -0.18351373214E+02 -0.47178084127E+02 -0.21230377885E+03  0.21825544445E+03  0.00000000000E+00 0. -1.
         -5    1    5    5    0  501 -0.57229679630E+02 -0.53636751773E+02 -0.18569508967E+03  0.20163554671E+03  0.47000000000E+01 0.  1.
         11    1    6    6    0    0  0.24096053081E+01  0.42304196980E+02 -0.25098245466E+03  0.25453417025E+03  0.00000000000E+00 0. -1.
        -12    1    6    6    0    0 -0.40048338468E+01  0.21341414636E+02 -0.60463176879E+01  0.22540022856E+02  0.00000000000E+00 0.  1.
</event>
<event>
12    1  0.2576962E-002  0.2406994E+03  0.7818608E-02  0.1119328E+00
          2   -1    0    0  502    0  0.00000000000E+00  0.00000000000E+00  0.16369891338E+03  0.16369891338E+03  0.00000000000E+00 0.  1.
         -2   -1    0    0    0  501 -0.00000000000E+00 -0.00000000000E+00 -0.52805401292E+03  0.52805401292E+03  0.00000000000E+00 0. -1.
          6    2    1    2  502    0 -0.14244671154E+03  0.66007346936E+02 -0.37612359061E+03  0.44208125794E+03  0.17122747364E+03 0.  0.
         24    2    3    3    0    0 -0.74546970948E+02 -0.10295005940E+02 -0.98490650423E+02  0.14621885190E+03  0.77564852906E+02 0.  0.
         -6    2    1    2    0  501  0.14244671154E+03 -0.66007346936E+02  0.11768491073E+02  0.24967166836E+03  0.19377669912E+03 0.  0.
        -24    2    5    5    0    0 -0.23588464667E+01  0.43417934872E+01 -0.23310898276E+02  0.84837494886E+02  0.81422277251E+02 0.  0.
          5    1    3    3  502    0 -0.67899740590E+02  0.76302352875E+02 -0.27763294019E+03  0.29586240604E+03  0.47000000000E+01 0. -1.
        -11    1    4    4    0    0  0.30676901009E+01 -0.66775550860E+01  0.10224999084E+02  0.12591706427E+02  0.00000000000E+00 0.  1.
         12    1    4    4    0    0 -0.77614661048E+02 -0.36174508537E+01 -0.10871564951E+03  0.13362714548E+03  0.00000000000E+00 0. -1.
         -5    1    5    5    0  501  0.14480555800E+03 -0.70349140423E+02  0.35079389349E+02  0.16483417347E+03  0.47000000000E+01 0.  1.
         11    1    6    6    0    0 -0.66940937088E+01 -0.38114824747E+02 -0.14027197615E+02  0.41162033830E+02  0.00000000000E+00 0. -1.
        -12    1    6    6    0    0  0.43352472421E+01  0.42456618234E+02 -0.92837006619E+01  0.43675461057E+02  0.00000000000E+00 0.  1.
</event>
<event>
12    1  0.2576962E-002  0.1893858E+03  0.7818608E-02  0.1159016E+00
         -1   -1    0    0    0  501 -0.00000000000E+00  0.00000000000E+00  0.34541481244E+03  0.34541481244E+03  0.00000000000E+00 0.  1.
          1   -1    0    0  502    0  0.00000000000E+00 -0.00000000000E+00 -0.10514026966E+03  0.10514026966E+03  0.00000000000E+00 0. -1.
          6    2    1    2  502    0  0.58395996364E+02 -0.55875343361E+02  0.14493820800E+03  0.23813994622E+03  0.17079638012E+03 0.  0.
         24    2    3    3    0    0  0.41331569849E+02  0.34558454115E+02  0.83568003801E+02  0.12742473344E+03  0.79692320930E+02 0.  0.
         -6    2    1    2    0  501 -0.58395996364E+02  0.55875343361E+02  0.95336334775E+02  0.21241513588E+03  0.17175280736E+03 0.  0.
        -24    2    5    5    0    0 -0.18944748053E+02  0.91641257232E+02  0.26827962152E+02  0.12551813531E+03  0.79234078734E+02 0.  0.
          5    1    3    3  502    0  0.17064426514E+02 -0.90433797476E+02  0.61370204200E+02  0.11071521278E+03  0.47000000000E+01 0. -1.
        -11    1    4    4    0    0  0.63632254822E+02  0.12723596406E+02  0.53780456871E+02  0.84281025744E+02  0.00000000000E+00 0.  1.
         12    1    4    4    0    0 -0.22300684972E+02  0.21834857709E+02  0.29787546930E+02  0.43143707693E+02  0.00000000000E+00 0. -1.
         -5    1    5    5    0  501 -0.39451248311E+02 -0.35765913871E+02  0.68508372623E+02  0.86897000569E+02  0.47000000000E+01 0.  1.
         11    1    6    6    0    0  0.21316542686E+02  0.24284382298E+01 -0.60084948303E+01  0.22279908314E+02  0.00000000000E+00 0. -1.
        -12    1    6    6    0    0 -0.40261290740E+02  0.89212819002E+02  0.32836456982E+02  0.10323822700E+03  0.00000000000E+00 0.  1.
</event>
<event>
12    1  0.2710622E-002  0.1961379E+03  0.7818608E-02  0.1153039E+00
          1   -1    0    0  502    0  0.00000000000E+00  0.00000000000E+00  0.33732192522E+03  0.33732192522E+03  0.00000000000E+00 0. -1.
         -1   -1    0    0    0  501 -0.00000000000E+00 -0.00000000000E+00 -0.11426742765E+03  0.11426742765E+03  0.00000000000E+00 0.  1.
          6    2    1    2  502    0  0.91313423461E+02 -0.19803603503E+02  0.10131869219E+03  0.22033107480E+03  0.17190107946E+03 0.  0.
         24    2    3    3    0    0  0.10593343427E+03 -0.11612561725E+02  0.18565610929E+02  0.13576748725E+03  0.82045015683E+02 0.  0.
         -6    2    1    2    0  501 -0.91313423461E+02  0.19803603503E+02  0.12173580537E+03  0.23125827807E+03  0.17300422206E+03 0.  0.
        -24    2    5    5    0    0 -0.98349830832E+02 -0.16731855140E+01  0.14771657644E+03  0.19650408465E+03  0.84369304571E+02 0.  0.
          5    1    3    3  502    0 -0.14620010805E+02 -0.81910417779E+01  0.82753081263E+02  0.84563587553E+02  0.47000000000E+01 0. -1.
        -11    1    4    4    0    0  0.53895720343E+02  0.34889074730E+02  0.14751238453E+02  0.65875604306E+02  0.00000000000E+00 0.  1.
         12    1    4    4    0    0  0.52037713923E+02 -0.46501636455E+02  0.38143724761E+01  0.69891882939E+02  0.00000000000E+00 0. -1.
         -5    1    5    5    0  501  0.70364073704E+01  0.21476789017E+02 -0.25980771069E+02  0.34754193423E+02  0.47000000000E+01 0.  1.
         13    1    6    6    0    0 -0.71678039906E+02  0.34240906198E+02  0.65720903943E+02  0.10309907021E+03  0.00000000000E+00 0. -1.
        -14    1    6    6    0    0 -0.26671790926E+02 -0.35914091712E+02  0.81995672500E+02  0.93405014445E+02  0.00000000000E+00 0.  1.
</event>
<event>
12    1  0.2576962E-002  0.1804594E+03  0.7818608E-02  0.1167359E+00
          2   -1    0    0  502    0  0.00000000000E+00  0.00000000000E+00  0.23623743943E+04  0.23623743943E+04  0.00000000000E+00 0.  1.
         -2   -1    0    0    0  501 -0.00000000000E+00 -0.00000000000E+00 -0.16011272219E+02  0.16011272219E+02  0.00000000000E+00 0. -1.
          6    2    1    2  502    0 -0.38151813998E+02  0.33868672691E+02  0.16222039305E+04  0.16323227364E+04  0.17415302456E+03 0.  0.
         24    2    3    3    0    0 -0.71701603857E+02  0.61487919224E+02  0.86021440533E+03  0.86908061391E+03  0.80065011915E+02 0.  0.
         -6    2    1    2    0  501  0.38151813998E+02 -0.33868672691E+02  0.72415919164E+03  0.74606293011E+03  0.17204857728E+03 0.  0.
        -24    2    5    5    0    0  0.21794062173E+02 -0.70542902759E+02  0.66799814125E+03  0.67686228866E+03  0.80434811008E+02 0.  0.
          5    1    3    3  502    0  0.33549789858E+02 -0.27619246534E+02  0.76198952513E+03  0.76324212252E+03  0.47000000000E+01 0. -1.
        -13    1    4    4    0    0 -0.63538055231E+02  0.35758806740E+02  0.79721332661E+03  0.80054035804E+03  0.00000000000E+00 0.  1.
         14    1    4    4    0    0 -0.81635486260E+01  0.25729112485E+02  0.63001078723E+02  0.68540255877E+02  0.00000000000E+00 0. -1.
         -5    1    5    5    0  501  0.16357751826E+02  0.36674230068E+02  0.56161050391E+02  0.69200641449E+02  0.47000000000E+01 0.  1.
         13    1    6    6    0    0 -0.17329497392E+02 -0.90317739185E+00  0.37451523224E+02  0.41276431544E+02  0.00000000000E+00 0. -1.
        -14    1    6    6    0    0  0.39123559564E+02 -0.69639725367E+02  0.63054661802E+03  0.63558585712E+03  0.00000000000E+00 0.  1.
</event>
<event>
12    1  0.2576962E-002  0.2278086E+03  0.7818608E-02  0.1128192E+00
         -3   -1    0    0    0  501 -0.00000000000E+00  0.00000000000E+00  0.30480885862E+03  0.30480885862E+03  0.00000000000E+00 0. -1.
          3   -1    0    0  502    0  0.00000000000E+00 -0.00000000000E+00 -0.41179081002E+03  0.41179081002E+03  0.00000000000E+00 0.  1.
          6    2    1    2  502    0 -0.14659299505E+03  0.29564331225E+02 -0.32788167691E+03  0.39916011902E+03  0.17163580827E+03 0.  0.
         24    2    3    3    0    0 -0.13590171211E+03  0.45210712271E+02 -0.15186132595E+03  0.22206024121E+03  0.75733774133E+02 0.  0.
         -6    2    1    2    0  501  0.14659299505E+03 -0.29564331225E+02  0.22089972552E+03  0.31743954961E+03  0.17206865794E+03 0.  0.
        -24    2    5    5    0    0  0.17609629359E+03 -0.35042901156E+02  0.17904189578E+03  0.26572275096E+03  0.79464900399E+02 0.  0.
          5    1    3    3  502    0 -0.10691282943E+02 -0.15646381046E+02 -0.17602035096E+03  0.17709987782E+03  0.47000000000E+01 0. -1.
        -13    1    4    4    0    0 -0.35335070816E+02  0.31822188552E+02 -0.93805392445E+02  0.10516972267E+03  0.00000000000E+00 0.  1.
         14    1    4    4    0    0 -0.10056664129E+03  0.13388523719E+02 -0.58055933510E+02  0.11689051854E+03  0.00000000000E+00 0. -1.
         -5    1    5    5    0  501 -0.29503298534E+02  0.54785699306E+01  0.41857829738E+02  0.51716798656E+02  0.47000000000E+01 0.  1.
         11    1    6    6    0    0  0.27249680107E+02 -0.38221319296E+02  0.34854029935E+02  0.58465525888E+02  0.00000000000E+00 0. -1.
        -12    1    6    6    0    0  0.14884661348E+03  0.31784181408E+01  0.14418786585E+03  0.20725722507E+03  0.00000000000E+00 0.  1.
</event>
<event>
12    1  0.2576962E-002  0.1915274E+03  0.7818608E-02  0.1157091E+00
          1   -1    0    0  502    0  0.00000000000E+00  0.00000000000E+00  0.28352097426E+04  0.28352097426E+04  0.00000000000E+00 0.  1.
         -1   -1    0    0    0  501 -0.00000000000E+00 -0.00000000000E+00 -0.16123427245E+02  0.16123427245E+02  0.00000000000E+00 0. -1.
          6    2    1    2  502    0 -0.84717553798E+02 -0.55363950868E+01  0.20451405855E+04  0.20541200364E+04  0.17205055525E+03 0.  0.
         24    2    3    3    0    0 -0.11872561387E+03 -0.20747825561E+02  0.12828858885E+04  0.12909409952E+04  0.78779479692E+02 0.  0.
         -6    2    1    2    0  501  0.84717553798E+02  0.55363950868E+01  0.77394572978E+03  0.79721313345E+03  0.17131570830E+03 0.  0.
        -24    2    5    5    0    0  0.11206487535E+03  0.33885433131E+02  0.48435243013E+03  0.50491548865E+03  0.81459285769E+02 0.  0.
          5    1    3    3  502    0  0.34008060071E+02  0.15211430474E+02  0.76225469703E+03  0.76317904119E+03  0.47000000000E+01 0. -1.
        -11    1    4    4    0    0 -0.51214229452E+02  0.12696974845E+02  0.84299876253E+03  0.84464846185E+03  0.00000000000E+00 0.  1.
         12    1    4    4    0    0 -0.67511384418E+02 -0.33444800406E+02  0.43988712597E+03  0.44629253332E+03  0.00000000000E+00 0. -1.
         -5    1    5    5    0  501 -0.27347321556E+02 -0.28349038045E+02  0.28959329965E+03  0.29229764481E+03  0.47000000000E+01 0.  1.
         13    1    6    6    0    0 -0.56785860785E+01 -0.11353894531E+02  0.19613013335E+02  0.23362952574E+02  0.00000000000E+00 0. -1.
        -14    1    6    6    0    0  0.11774346143E+03  0.45239327663E+02  0.46473941679E+03  0.48155253607E+03  0.00000000000E+00 0.  1.
</event>
<event>
12    1  0.2576962E-002  0.1857925E+03  0.7818608E-02  0.1162312E+00
          2   -1    0    0  502    0  0.00000000000E+00  0.00000000000E+00  0.19006220661E+04  0.19006220661E+04  0.00000000000E+00 0. -1.
         -2   -1    0    0    0  501 -0.00000000000E+00 -0.00000000000E+00 -0.21327760755E+02  0.21327760755E+02  0.00000000000E+00 0.  1.
          6    2    1    2  502    0 -0.32405931037E+02  0.65889499079E+02  0.13179122770E+04  0.13312106590E+04  0.17273528362E+03 0.  0.
         24    2    3    3    0    0  0.36012827540E+02 -0.64688309477E+01  0.57718801016E+03  0.58380756562E+03  0.79664955161E+02 0.  0.
         -6    2    1    2    0  501  0.32405931037E+02 -0.65889499079E+02  0.56138202835E+03  0.59073916789E+03  0.16861616850E+03 0.  0.
        -24    2    5    5    0    0 -0.13720593863E+02 -0.71215562361E+02  0.50777548256E+03  0.51966332811E+03  0.83391383724E+02 0.  0.
          5    1    3    3  502    0 -0.68418758577E+02  0.72358330026E+02  0.74072426683E+03  0.74740309333E+03  0.47000000000E+01 0. -1.
        -13    1    4    4    0    0  0.21806317690E+02 -0.39665316965E+02  0.20856554274E+03  0.21342080142E+03  0.00000000000E+00 0.  1.
         14    1    4    4    0    0  0.14206509850E+02  0.33196486017E+02  0.36862246742E+03  0.37038676420E+03  0.00000000000E+00 0. -1.
         -5    1    5    5    0  501  0.46126524900E+02  0.53260632821E+01  0.53606545785E+02  0.71075839780E+02  0.47000000000E+01 0.  1.
         13    1    6    6    0    0  0.30730937400E+02 -0.50185129380E+02  0.22091559842E+03  0.22861898292E+03  0.00000000000E+00 0. -1.
        -14    1    6    6    0    0 -0.44451531263E+02 -0.21030432981E+02  0.28685988414E+03  0.29104434519E+03  0.00000000000E+00 0.  1.
</event>
<event>
12    1  0.2576962E-002  0.1776635E+03  0.7818608E-02  0.1170084E+00
          3   -1    0    0  502    0  0.00000000000E+00  0.00000000000E+00  0.10123737367E+03  0.10123737367E+03  0.00000000000E+00 0. -1.
         -3   -1    0    0    0  501 -0.00000000000E+00 -0.00000000000E+00 -0.32672870966E+03  0.32672870966E+03  0.00000000000E+00 0.  1.
          6    2    1    2  502    0 -0.83007055095E+01 -0.48886813219E+02 -0.15756439165E+03  0.23635193655E+03  0.16904697032E+03 0.  0.
         24    2    3    3    0    0  0.19623117538E+02  0.28421660501E+02 -0.10801571600E+03  0.14026082738E+03  0.82539973751E+02 0.  0.
         -6    2    1    2    0  501  0.83007055095E+01  0.48886813219E+02 -0.67926944335E+02  0.19161414678E+03  0.17217168542E+03 0.  0.
        -24    2    5    5    0    0 -0.81283626136E+01 -0.14633036735E+02 -0.66541723021E+02  0.12582133216E+03  0.10546568485E+03 0.  0.
          5    1    3    3  502    0 -0.27923823047E+02 -0.77308473721E+02 -0.49548675649E+02  0.96091109168E+02  0.47000000000E+01 0. -1.
        -13    1    4    4    0    0 -0.12305901308E+02  0.30667856361E+02 -0.10260997208E+03  0.10779962426E+03  0.00000000000E+00 0.  1.
         14    1    4    4    0    0  0.31929018846E+02 -0.22461958601E+01 -0.54057439144E+01  0.32461203113E+02  0.00000000000E+00 0. -1.
         -5    1    5    5    0  501  0.16429068123E+02  0.63519849954E+02 -0.13852213145E+01  0.65792814620E+02  0.47000000000E+01 0.  1.
         11    1    6    6    0    0 -0.89777789757E+00  0.33325639873E+02  0.10353319331E+02  0.34908387234E+02  0.00000000000E+00 0. -1.
        -12    1    6    6    0    0 -0.72305847160E+01 -0.47958676607E+02 -0.76895042352E+02  0.90912944929E+02  0.00000000000E+00 0.  1.
</event>
<event>
12    1  0.2576962E-002  0.2567725E+03  0.7818608E-02  0.1109098E+00
          1   -1    0    0  502    0  0.00000000000E+00  0.00000000000E+00  0.22216492703E+03  0.22216492703E+03  0.00000000000E+00 0.  1.
         -1   -1    0    0    0  501 -0.00000000000E+00 -0.00000000000E+00 -0.29721153914E+03  0.29721153914E+03  0.00000000000E+00 0. -1.
          6    2    1    2  502    0 -0.18300662320E+03  0.41263220908E+02 -0.47601568754E+02  0.26317004805E+03  0.17832130357E+03 0.  0.
         24    2    3    3    0    0 -0.40825908602E+02  0.36783427004E+02  0.31138220270E+02  0.10051252891E+03  0.78188262492E+02 0.  0.
         -6    2    1    2    0  501  0.18300662320E+03 -0.41263220908E+02 -0.27445043358E+02  0.25620641812E+03  0.17232069158E+03 0.  0.
        -24    2    5    5    0    0  0.41537241211E+02 -0.65800916212E+02 -0.15361663938E+02  0.11204060182E+03  0.79132880367E+02 0.  0.
          5    1    3    3  502    0 -0.14218071460E+03  0.44797939036E+01 -0.78739789023E+02  0.16265751914E+03  0.47000000000E+01 0. -1.
        -13    1    4    4    0    0 -0.24102107185E+02 -0.15735913754E+02  0.34933152649E+02  0.45264287318E+02  0.00000000000E+00 0.  1.
         14    1    4    4    0    0 -0.16723801417E+02  0.52519340758E+02 -0.37949323794E+01  0.55248241595E+02  0.00000000000E+00 0. -1.
         -5    1    5    5    0  501  0.14146938199E+03  0.24537695304E+02 -0.12083379420E+02  0.14416581630E+03  0.47000000000E+01 0.  1.
         11    1    6    6    0    0  0.14160519845E+02 -0.33664614734E+00 -0.35548756865E+02  0.38266797194E+02  0.00000000000E+00 0. -1.
        -12    1    6    6    0    0  0.27376721366E+02 -0.65464270065E+02  0.20187092926E+02  0.73773804624E+02  0.00000000000E+00 0.  1.
</event>
<event>
12    1  0.2576962E-002  0.2753198E+03  0.7818608E-02  0.1098273E+00
         -2   -1    0    0    0  501 -0.00000000000E+00  0.00000000000E+00  0.10298777241E+03  0.10298777241E+03  0.00000000000E+00 0.  1.
          2   -1    0    0  502    0  0.00000000000E+00 -0.00000000000E+00 -0.98386146885E+03  0.98386146885E+03  0.00000000000E+00 0. -1.
          6    2    1    2  502    0 -0.52800448506E+00  0.22035183963E+03 -0.71119782678E+03  0.76203887211E+03  0.16231352927E+03 0.  0.
         24    2    3    3    0    0  0.23103310221E+02  0.21982145372E+03 -0.53498630787E+03  0.58418694005E+03  0.78795919037E+02 0.  0.
         -6    2    1    2    0  501  0.52800448506E+00 -0.22035183963E+03 -0.16967586966E+03  0.32481036915E+03  0.16779947301E+03 0.  0.
        -24    2    5    5    0    0 -0.38725415751E+02 -0.18903008361E+03 -0.17714241874E+03  0.27382289269E+03  0.79796677313E+02 0.  0.
          5    1    3    3  502    0 -0.23631314706E+02  0.53038591041E+00 -0.17621151891E+03  0.17785193206E+03  0.47000000000E+01 0. -1.
        -11    1    4    4    0    0  0.42538544609E+02  0.19296380274E+03 -0.41395583454E+03  0.45869814681E+03  0.00000000000E+00 0.  1.
         12    1    4    4    0    0 -0.19435234388E+02  0.26857650980E+02 -0.12103047334E+03  0.12548879324E+03  0.00000000000E+00 0. -1.
         -5    1    5    5    0  501  0.39253420236E+02 -0.31321756021E+02  0.74665490772E+01  0.50987476459E+02  0.47000000000E+01 0.  1.
         11    1    6    6    0    0 -0.20979591801E+02 -0.84384074250E+01 -0.41525015381E+02  0.47282945069E+02  0.00000000000E+00 0. -1.
        -12    1    6    6    0    0 -0.17745823950E+02 -0.18059167618E+03 -0.13561740336E+03  0.22653994762E+03  0.00000000000E+00 0.  1.
</event>
<event>
12    1  0.2576962E-002  0.2067056E+03  0.7818608E-02  0.1144202E+00
         -2   -1    0    0    0  501 -0.00000000000E+00  0.00000000000E+00  0.11787029185E+03  0.11787029185E+03  0.00000000000E+00 0.  1.
          2   -1    0    0  502    0  0.00000000000E+00 -0.00000000000E+00 -0.78346278860E+03  0.78346278860E+03  0.00000000000E+00 0. -1.
          6    2    1    2  502    0 -0.38523334513E+02 -0.10853041742E+03 -0.22814919341E+01  0.20649384177E+03  0.17138145372E+03 0.  0.
         24    2    3    3    0    0  0.35133290180E+02 -0.92802481360E+02 -0.21119603391E+02  0.12871446933E+03  0.79213182889E+02 0.  0.
         -6    2    1    2    0  501  0.38523334513E+02  0.10853041742E+03 -0.66331100482E+03  0.69483923867E+03  0.17192201626E+03 0.  0.
        -24    2    5    5    0    0  0.59039781331E+02  0.30365065288E+02 -0.52038605026E+03  0.53058218555E+03  0.79423430733E+02 0.  0.
          5    1    3    3  502    0 -0.73656624693E+02 -0.15727936058E+02  0.18838111457E+02  0.77779372440E+02  0.47000000000E+01 0. -1.
        -13    1    4    4    0    0  0.27513715961E+02 -0.40809786097E+02  0.28134252115E+02  0.56691969002E+02  0.00000000000E+00 0.  1.
         14    1    4    4    0    0  0.76195742193E+01 -0.51992695263E+02 -0.49253855506E+02  0.72022500333E+02  0.00000000000E+00 0. -1.
         -5    1    5    5    0  501 -0.20516446817E+02  0.78165352130E+02 -0.14292495456E+03  0.16425705312E+03  0.47000000000E+01 0.  1.
         13    1    6    6    0    0  0.52697337949E+02 -0.17231181919E+02 -0.28764931812E+03  0.29294377152E+03  0.00000000000E+00 0. -1.
        -14    1    6    6    0    0  0.63424433820E+01  0.47596247207E+02 -0.23273673214E+03  0.23763841404E+03  0.00000000000E+00 0.  1.
</event>
<event>
12    1  0.2576962E-002  0.1926834E+03  0.7818608E-02  0.1156063E+00
          2   -1    0    0  502    0  0.00000000000E+00  0.00000000000E+00  0.30395458640E+04  0.30395458640E+04  0.00000000000E+00 0.  1.
         -2   -1    0    0    0  501 -0.00000000000E+00 -0.00000000000E+00 -0.15157797616E+02  0.15157797616E+02  0.00000000000E+00 0. -1.
          6    2    1    2  502    0 -0.64848322221E+02 -0.54543335782E+02  0.21786506642E+04  0.21870643853E+04  0.17190587056E+03 0.  0.
         24    2    3    3    0    0 -0.31529838762E+02  0.12535173344E+02  0.17160910608E+04  0.17184567408E+04  0.83509160351E+02 0.  0.
         -6    2    1    2    0  501  0.64848322221E+02  0.54543335782E+02  0.84573740216E+03  0.86763927632E+03  0.17420068894E+03 0.  0.
        -24    2    5    5    0    0  0.83829264023E+02  0.92369038145E+02  0.61684013691E+03  0.63481507665E+03  0.83300914342E+02 0.  0.
          5    1    3    3  502    0 -0.33318483459E+02 -0.67078509127E+02  0.46255960340E+03  0.46860764444E+03  0.47000000000E+01 0. -1.
        -11    1    4    4    0    0 -0.52551358413E+02 -0.15212228584E+02  0.94811528835E+03  0.94969240134E+03  0.00000000000E+00 0.  1.
         12    1    4    4    0    0  0.21021519651E+02  0.27747401928E+02  0.76797577245E+03  0.76876433949E+03  0.00000000000E+00 0. -1.
         -5    1    5    5    0  501 -0.18980941802E+02 -0.37825702363E+02  0.22889726525E+03  0.23282419967E+03  0.47000000000E+01 0.  1.
         13    1    6    6    0    0  0.34656415317E+02  0.62330942322E+02  0.17113500202E+03  0.18540065375E+03  0.00000000000E+00 0. -1.
        -14    1    6    6    0    0  0.49172848706E+02  0.30038095823E+02  0.44570513488E+03  0.44941442290E+03  0.00000000000E+00 0.  1.
</event>
<event>
12    1  0.2576962E-002  0.1925911E+03  0.7818608E-02  0.1156145E+00
          2   -1    0    0  502    0  0.00000000000E+00  0.00000000000E+00  0.10137811178E+04  0.10137811178E+04  0.00000000000E+00 0.  1.
         -2   -1    0    0    0  501 -0.00000000000E+00 -0.00000000000E+00 -0.82111135665E+02  0.82111135665E+02  0.00000000000E+00 0. -1.
          6    2    1    2  502    0 -0.58968121647E+01 -0.82526922082E+02  0.87745687265E+03  0.89909399104E+03  0.17774694402E+03 0.  0.
         24    2    3    3    0    0  0.45069369576E+02  0.85676834567E+01  0.41810241052E+03  0.42800547419E+03  0.79211154352E+02 0.  0.
         -6    2    1    2    0  501  0.58968121647E+01  0.82526922082E+02  0.54213109476E+02  0.19679826241E+03  0.17013238842E+03 0.  0.
        -24    2    5    5    0    0 -0.84866401873E+00  0.12216797407E+03  0.29697684979E+02  0.14946951333E+03  0.80829751976E+02 0.  0.
          5    1    3    3  502    0 -0.50966181740E+02 -0.91094605539E+02  0.45935446213E+03  0.47108851686E+03  0.47000000000E+01 0. -1.
        -11    1    4    4    0    0 -0.19192941660E+02  0.11330916407E+02  0.17975448078E+03  0.18113098034E+03  0.00000000000E+00 0.  1.
         12    1    4    4    0    0  0.64262311236E+02 -0.27632329504E+01  0.23834792974E+03  0.24687449385E+03  0.00000000000E+00 0. -1.
         -5    1    5    5    0  501  0.67454761835E+01 -0.39641051984E+02  0.24515424497E+02  0.47328749082E+02  0.47000000000E+01 0.  1.
         13    1    6    6    0    0  0.33151596175E+02  0.58778350539E+02 -0.85139872559E+01  0.68017724161E+02  0.00000000000E+00 0. -1.
        -14    1    6    6    0    0 -0.34000260194E+02  0.63389623527E+02  0.38211672235E+02  0.81451789171E+02  0.00000000000E+00 0.  1.
</event>
<event>
12    1  0.3476673E-002  0.1989844E+03  0.7818608E-02  0.1150599E+00
         -2   -1    0    0    0  501 -0.00000000000E+00  0.00000000000E+00  0.41356743008E+02  0.41356743008E+02  0.00000000000E+00 0. -1.
          2   -1    0    0  502    0  0.00000000000E+00 -0.00000000000E+00 -0.96492612219E+03  0.96492612219E+03  0.00000000000E+00 0.  1.
          6    2    1    2  502    0  0.55800953493E+02  0.84413150895E+02 -0.41809750439E+03  0.46317425757E+03  0.17171354995E+03 0.  0.
         24    2    3    3    0    0 -0.18354871033E+02  0.43729383349E+02 -0.32153833237E+03  0.33472185800E+03  0.80016640633E+02 0.  0.
         -6    2    1    2    0  501 -0.55800953493E+02 -0.84413150895E+02 -0.50547187478E+03  0.54310860763E+03  0.17095559958E+03 0.  0.
        -24    2    5    5    0    0 -0.83106789773E+02 -0.17455685834E+02 -0.22415951742E+03  0.25261309436E+03  0.79714783565E+02 0.  0.
          5    1    3    3  502    0  0.74155824526E+02  0.40683767546E+02 -0.96559172020E+02  0.12845239956E+03  0.47000000000E+01 0. -1.
        -11    1    4    4    0    0  0.44885597209E+01 -0.10063067591E+02 -0.19531495869E+03  0.19562552386E+03  0.00000000000E+00 0.  1.
         12    1    4    4    0    0 -0.22843430754E+02  0.53792450940E+02 -0.12622337368E+03  0.13909633414E+03  0.00000000000E+00 0. -1.
         -5    1    5    5    0  501  0.27305836280E+02 -0.66957465061E+02 -0.28131235736E+03  0.29049551327E+03  0.47000000000E+01 0.  1.
         13    1    6    6    0    0 -0.19408891127E+01 -0.14807199521E+02 -0.80748434392E+00  0.14955675818E+02  0.00000000000E+00 0. -1.
        -14    1    6    6    0    0 -0.81165900660E+02 -0.26484863131E+01 -0.22335203308E+03  0.23765741855E+03  0.00000000000E+00 0.  1.
</event>
<event>
12    1  0.2576962E-002  0.2719576E+03  0.7818608E-02  0.1100164E+00
         -1   -1    0    0    0  501 -0.00000000000E+00  0.00000000000E+00  0.87014525169E+02  0.87014525169E+02  0.00000000000E+00 0. -1.
          1   -1    0    0  502    0  0.00000000000E+00 -0.00000000000E+00 -0.11052377855E+04  0.11052377855E+04  0.00000000000E+00 0.  1.
          6    2    1    2  502    0 -0.12217507915E+03 -0.17091238318E+03 -0.79401341106E+03  0.83894420235E+03  0.17097451572E+03 0.  0.
         24    2    3    3    0    0 -0.34850107969E+02 -0.60139095378E+02 -0.17762303071E+03  0.20660286821E+03  0.79394982799E+02 0.  0.
         -6    2    1    2    0  501  0.12217507915E+03  0.17091238318E+03 -0.22420984931E+03  0.35330810835E+03  0.17440977670E+03 0.  0.
        -24    2    5    5    0    0  0.12978844023E+03  0.66548361924E+02 -0.15843842819E+03  0.22962390550E+03  0.79691146033E+02 0.  0.
          5    1    3    3  502    0 -0.87324971186E+02 -0.11077328781E+03 -0.61639038035E+03  0.63234133414E+03  0.47000000000E+01 0. -1.
        -11    1    4    4    0    0 -0.35381824413E+02 -0.52734074537E+02 -0.18532620324E+03  0.19590446070E+03  0.00000000000E+00 0.  1.
         12    1    4    4    0    0  0.53171644450E+00 -0.74050208415E+01  0.77031725302E+01  0.10698407502E+02  0.00000000000E+00 0. -1.
         -5    1    5    5    0  501 -0.76133610747E+01  0.10436402126E+03 -0.65771421117E+02  0.12368420286E+03  0.47000000000E+01 0.  1.
         11    1    6    6    0    0  0.24829251848E+02 -0.14971161369E+02 -0.10695524793E+02  0.30903424902E+02  0.00000000000E+00 0. -1.
        -12    1    6    6    0    0  0.10495918838E+03  0.81519523292E+02 -0.14774290340E+03  0.19872048059E+03  0.00000000000E+00 0.  1.
</event>
<event>
12    1  0.2576962E-002  0.1924415E+03  0.7818608E-02  0.1156278E+00
         -1   -1    0    0    0  501 -0.00000000000E+00  0.00000000000E+00  0.17054510861E+02  0.17054510861E+02  0.00000000000E+00 0.  1.
          1   -1    0    0  502    0  0.00000000000E+00 -0.00000000000E+00 -0.27220902673E+04  0.27220902673E+04  0.00000000000E+00 0. -1.
          6    2    1    2  502    0 -0.43202062559E+02 -0.72581376128E+02 -0.73548359878E+03  0.76019468103E+03  0.17270018712E+03 0.  0.
         24    2    3    3    0    0  0.23806385150E+02  0.15363602352E+02 -0.29202997963E+03  0.30314145258E+03  0.76226288239E+02 0.  0.
         -6    2    1    2    0  501  0.43202062559E+02  0.72581376128E+02 -0.19695521577E+04  0.19789500972E+04  0.17312801855E+03 0.  0.
        -24    2    5    5    0    0  0.87732364135E+01  0.92622240258E+02 -0.18217544838E+04  0.18258056467E+04  0.78236891105E+02 0.  0.
          5    1    3    3  502    0 -0.67008447709E+02 -0.87944978480E+02 -0.44345361914E+03  0.45705322845E+03  0.47000000000E+01 0. -1.
        -11    1    4    4    0    0  0.14136445408E+02 -0.11185730103E+02 -0.11922882179E+02  0.21612837994E+02  0.00000000000E+00 0.  1.
         12    1    4    4    0    0  0.96699397425E+01  0.26549332456E+02 -0.28010709745E+03  0.28152861459E+03  0.00000000000E+00 0. -1.
         -5    1    5    5    0  501  0.34428826146E+02 -0.20040864130E+02 -0.14779767387E+03  0.15314445046E+03  0.47000000000E+01 0.  1.
         11    1    6    6    0    0  0.22136537801E+02  0.69111262791E+02 -0.70528611434E+03  0.70900979967E+03  0.00000000000E+00 0. -1.
        -12    1    6    6    0    0 -0.13363301388E+02  0.23510977467E+02 -0.11164683695E+04  0.11167958470E+04  0.00000000000E+00 0.  1.
</event>
<event>
12    1  0.2576962E-002  0.1706066E+03  0.7818608E-02  0.1177217E+00
          1   -1    0    0  502    0  0.00000000000E+00  0.00000000000E+00  0.47095736119E+03  0.47095736119E+03  0.00000000000E+00 0. -1.
         -1   -1    0    0    0  501 -0.00000000000E+00 -0.00000000000E+00 -0.74262930891E+02  0.74262930891E+02  0.00000000000E+00 0.  1.
          6    2    1    2  502    0 -0.41712185078E+01  0.56924528903E+01  0.30832207670E+03  0.35155488652E+03  0.16875583595E+03 0.  0.
         24    2    3    3    0    0 -0.13273151015E+02  0.58336609281E+02  0.12214387742E+03  0.15780591422E+03  0.80026515927E+02 0.  0.
         -6    2    1    2    0  501  0.41712185078E+01 -0.56924528903E+01  0.88372353595E+02  0.19366540556E+03  0.17218250012E+03 0.  0.
        -24    2    5    5    0    0  0.50092875883E+02 -0.42161068963E+02  0.85759629654E+02  0.13477843841E+03  0.80769186149E+02 0.  0.
          5    1    3    3  502    0  0.91019325077E+01 -0.52644156391E+02  0.18617819928E+03  0.19374897229E+03  0.47000000000E+01 0. -1.
        -11    1    4    4    0    0 -0.36647964674E+02  0.42023563140E+02  0.11591534878E+03  0.12862900628E+03  0.00000000000E+00 0.  1.
         12    1    4    4    0    0  0.23374813659E+02  0.16313046142E+02  0.62285286419E+01  0.29176907942E+02  0.00000000000E+00 0. -1.
         -5    1    5    5    0  501 -0.45921657375E+02  0.36468616072E+02  0.26127239406E+01  0.58886967155E+02  0.47000000000E+01 0.  1.
         11    1    6    6    0    0  0.61414553644E+01 -0.56285233808E+02  0.37030372855E+02  0.67653481304E+02  0.00000000000E+00 0. -1.
        -12    1    6    6    0    0  0.43951420518E+02  0.14124164845E+02  0.48729256799E+02  0.67124957105E+02  0.00000000000E+00 0.  1.
</event>
<event>
12    1  0.2576962E-002  0.1832037E+03  0.7818608E-02  0.1164738E+00
         -2   -1    0    0    0  501 -0.00000000000E+00  0.00000000000E+00  0.10593488791E+03  0.10593488791E+03  0.00000000000E+00 0.  1.
          2   -1    0    0  502    0  0.00000000000E+00 -0.00000000000E+00 -0.50817697742E+03  0.50817697742E+03  0.00000000000E+00 0. -1.
          6    2    1    2  502    0 -0.64255034082E+01 -0.62410931662E+02 -0.38993880003E+03  0.43108320930E+03  0.17275431715E+03 0.  0.
         24    2    3    3    0    0 -0.26334286983E+02  0.17382965388E+02 -0.26387640680E+03  0.28049355941E+03  0.89722999542E+02 0.  0.
         -6    2    1    2    0  501  0.64255034082E+01  0.62410931662E+02 -0.12303289482E+02  0.18302865602E+03  0.17149841547E+03 0.  0.
        -24    2    5    5    0    0 -0.37299169178E+02  0.35773014109E+02 -0.62263926846E+02  0.11133778540E+03  0.76474631823E+02 0.  0.
          5    1    3    3  502    0  0.19908783574E+02 -0.79793897050E+02 -0.12606239322E+03  0.15058964989E+03  0.47000000000E+01 0. -1.
        -13    1    4    4    0    0  0.54619169081E+01 -0.27797622127E+00  0.60339368575E+01  0.81435987800E+01  0.00000000000E+00 0.  1.
         14    1    4    4    0    0 -0.31796203891E+02  0.17660941610E+02 -0.26991034366E+03  0.27234996063E+03  0.00000000000E+00 0. -1.
         -5    1    5    5    0  501  0.43724672586E+02  0.26637917553E+02  0.49960637364E+02  0.71690870619E+02  0.47000000000E+01 0.  1.
         13    1    6    6    0    0 -0.33420024836E+02 -0.16089998399E+02 -0.40616930590E+02  0.55004737606E+02  0.00000000000E+00 0. -1.
        -14    1    6    6    0    0 -0.38791443413E+01  0.51863012508E+02 -0.21646996256E+02  0.56333047797E+02  0.00000000000E+00 0.  1.
</event>
<event>
12    1  0.2576962E-002  0.3273432E+03  0.7818608E-02  0.1072319E+00
          1   -1    0    0  502    0  0.00000000000E+00  0.00000000000E+00  0.58912467730E+03  0.58912467730E+03  0.00000000000E+00 0.  1.
         -1   -1    0    0    0  501 -0.00000000000E+00 -0.00000000000E+00 -0.18381372882E+03  0.18381372882E+03  0.00000000000E+00 0. -1.
          6    2    1    2  502    0  0.11475120005E+03 -0.25203306100E+03  0.24179304284E+03  0.40639613329E+03  0.17322078351E+03 0.  0.
         24    2    3    3    0    0  0.20524761499E+02 -0.18356551654E+03  0.10573314256E+03  0.22722913625E+03  0.79599109463E+02 0.  0.
         -6    2    1    2    0  501 -0.11475120005E+03  0.25203306100E+03  0.16351790564E+03  0.36654227282E+03  0.17585968996E+03 0.  0.
        -24    2    5    5    0    0 -0.12894794913E+03  0.11535095618E+03  0.94652174656E+02  0.21276280616E+03  0.79847109180E+02 0.  0.
          5    1    3    3  502    0  0.94226438551E+02 -0.68467544461E+02  0.13605990027E+03  0.17916699704E+03  0.47000000000E+01 0. -1.
        -13    1    4    4    0    0  0.26176234439E+01 -0.15678398737E+03  0.11412233732E+03  0.19393807910E+03  0.00000000000E+00 0.  1.
         14    1    4    4    0    0  0.17907138055E+02 -0.26781529167E+02 -0.83891947520E+01  0.33291057154E+02  0.00000000000E+00 0. -1.
         -5    1    5    5    0  501  0.14196749077E+02  0.13668210482E+03  0.68865730981E+02  0.15377946666E+03  0.47000000000E+01 0.  1.
         11    1    6    6    0    0 -0.10671245929E+03  0.11046901411E+03  0.48110927714E+02  0.16095220847E+03  0.00000000000E+00 0. -1.
        -12    1    6    6    0    0 -0.22235489839E+02  0.48819420722E+01  0.46541246942E+02  0.51810597697E+02  0.00000000000E+00 0.  1.
</event>
<event>
12    1  0.2576962E-002  0.2770723E+03  0.7818608E-02  0.1097299E+00
          2   -1    0    0  502    0  0.00000000000E+00  0.00000000000E+00  0.20514022769E+04  0.20514022769E+04  0.00000000000E+00 0.  1.
         -2   -1    0    0    0  501 -0.00000000000E+00 -0.00000000000E+00 -0.44625973422E+02  0.44625973422E+02  0.00000000000E+00 0. -1.
          6    2    1    2  502    0 -0.32385340406E+01  0.21765338439E+03  0.14225373246E+04  0.14491500666E+04  0.17041124297E+03 0.  0.
         24    2    3    3    0    0 -0.26852703440E+02  0.19086487639E+03  0.84323020323E+03  0.86872428835E+03  0.80586877381E+02 0.  0.
         -6    2    1    2    0  501  0.32385340406E+01 -0.21765338439E+03  0.58423897887E+03  0.64687818374E+03  0.17243177297E+03 0.  0.
        -24    2    5    5    0    0 -0.64075483124E+02 -0.11139724949E+03  0.30123614533E+03  0.33714565897E+03  0.80056013989E+02 0.  0.
          5    1    3    3  502    0  0.23614169400E+02  0.26788507996E+02  0.57930712136E+03  0.58042577822E+03  0.47000000000E+01 0. -1.
        -13    1    4    4    0    0 -0.95074462389E+01  0.19048717288E+03  0.79180710210E+03  0.81445333905E+03  0.00000000000E+00 0.  1.
         14    1    4    4    0    0 -0.17345257201E+02  0.37770351694E+00  0.51423101138E+02  0.54270949301E+02  0.00000000000E+00 0. -1.
         -5    1    5    5    0  501  0.67314017165E+02 -0.10625613490E+03  0.28300283354E+03  0.30973252477E+03  0.47000000000E+01 0.  1.
         11    1    6    6    0    0 -0.14620555885E+02  0.95630439548E+01  0.63511942917E+02  0.65870929530E+02  0.00000000000E+00 0. -1.
        -12    1    6    6    0    0 -0.49454927239E+02 -0.12096029344E+03  0.23772420242E+03  0.27127472944E+03  0.00000000000E+00 0.  1.
</event>
<event>
12    1  0.2576962E-002  0.1925769E+03  0.7818608E-02  0.1156157E+00
          2   -1    0    0  502    0  0.00000000000E+00  0.00000000000E+00  0.18117652297E+04  0.18117652297E+04  0.00000000000E+00 0.  1.
         -2   -1    0    0    0  501 -0.00000000000E+00 -0.00000000000E+00 -0.31984683692E+02  0.31984683692E+02  0.00000000000E+00 0. -1.
          6    2    1    2  502    0  0.72560562016E+02  0.47202382783E+02  0.33615827631E+03  0.38731313526E+03  0.17180214758E+03 0.  0.
         24    2    3    3    0    0  0.99627644795E+02  0.23809068449E+02  0.15233928927E+03  0.19998619080E+03  0.79339007469E+02 0.  0.
         -6    2    1    2    0  501 -0.72560562016E+02 -0.47202382783E+02  0.14436222697E+04  0.14564367781E+04  0.17224903781E+03 0.  0.
        -24    2    5    5    0    0  0.97185888383E+01 -0.38157023483E+02  0.42480323027E+03  0.43424990565E+03  0.81023371271E+02 0.  0.
          5    1    3    3  502    0 -0.27067082778E+02  0.23393314335E+02  0.18381898704E+03  0.18732694446E+03  0.47000000000E+01 0. -1.
        -11    1    4    4    0    0  0.98055033708E+02  0.42103555576E+02  0.14539936809E+03  0.18035652267E+03  0.00000000000E+00 0.  1.
         12    1    4    4    0    0  0.15726110869E+01 -0.18294487128E+02  0.69399211809E+01  0.19629668130E+02  0.00000000000E+00 0. -1.
         -5    1    5    5    0  501 -0.82279150855E+02 -0.90453593000E+01  0.10188190394E+04  0.10221868725E+04  0.47000000000E+01 0.  1.
         11    1    6    6    0    0  0.12247188618E+02 -0.62154168440E+02  0.25553164535E+03  0.26326708122E+03  0.00000000000E+00 0. -1.
        -12    1    6    6    0    0 -0.25285997792E+01  0.23997144957E+02  0.16927158493E+03  0.17098282442E+03  0.00000000000E+00 0.  1.
</event>
<event>
12    1  0.2576962E-002  0.1877833E+03  0.7818608E-02  0.1160476E+00
          2   -1    0    0  502    0  0.00000000000E+00  0.00000000000E+00  0.33428984009E+04  0.33428984009E+04  0.00000000000E+00 0. -1.
         -2   -1    0    0    0  501 -0.00000000000E+00 -0.00000000000E+00 -0.11157743907E+02  0.11157743907E+02  0.00000000000E+00 0.  1.
          6    2    1    2  502    0 -0.59429463676E+02 -0.39547653144E+02  0.20579942947E+04  0.20665464692E+04  0.17371791687E+03 0.  0.
         24    2    3    3    0    0 -0.10583714936E+03 -0.24800764217E+02  0.16278671557E+04  0.16336462617E+04  0.83857329068E+02 0.  0.
         -6    2    1    2    0  501  0.59429463676E+02  0.39547653144E+02  0.12737463623E+04  0.12875096755E+04  0.17365336480E+03 0.  0.
        -24    2    5    5    0    0  0.87561996588E+02  0.38668342222E+02  0.12221741676E+04  0.12285690795E+04  0.80684219083E+02 0.  0.
          5    1    3    3  502    0  0.46407685688E+02 -0.14746888928E+02  0.43012713895E+03  0.43290020754E+03  0.47000000000E+01 0. -1.
        -11    1    4    4    0    0 -0.85374446949E+02  0.48607034399E+01  0.71936326393E+03  0.72442800064E+03  0.00000000000E+00 0.  1.
         12    1    4    4    0    0 -0.20462702415E+02 -0.29661467656E+02  0.90850389179E+03  0.90921826106E+03  0.00000000000E+00 0. -1.
         -5    1    5    5    0  501 -0.28132532911E+02  0.87931092263E+00  0.51572194718E+02  0.58940596059E+02  0.47000000000E+01 0.  1.
         13    1    6    6    0    0 -0.37566156291E+01  0.14677037023E+02  0.50243223904E+03  0.50266060359E+03  0.00000000000E+00 0. -1.
        -14    1    6    6    0    0  0.91318612217E+02  0.23991305199E+02  0.71974192854E+03  0.72590847589E+03  0.00000000000E+00 0.  1.
</event>
<event>
12    1  0.2576962E-002  0.4910271E+03  0.7818608E-02  0.1016148E+00
          2   -1    0    0  502    0  0.00000000000E+00  0.00000000000E+00  0.36268831714E+03  0.36268831714E+03  0.00000000000E+00 0. -1.
         -2   -1    0    0    0  501 -0.00000000000E+00 -0.00000000000E+00 -0.13557076214E+04  0.13557076214E+04  0.00000000000E+00 0.  1.
          6    2    1    2  502    0 -0.79048079596E+02 -0.45285348101E+03 -0.11097445879E+04  0.12134091070E+04  0.17176651730E+03 0.  0.
         24    2    3    3    0    0  0.13581948369E+02 -0.25035681362E+03 -0.68559984868E+03  0.73434118678E+03  0.79666948316E+02 0.  0.
         -6    2    1    2    0  501  0.79048079596E+02  0.45285348101E+03  0.11672528364E+03  0.50498683151E+03  0.17338406504E+03 0.  0.
        -24    2    5    5    0    0  0.72747345651E+02  0.32406623898E+03  0.11595562787E+02  0.33855305740E+03  0.64595758782E+02 0.  0.
          5    1    3    3  502    0 -0.92630027965E+02 -0.20249666739E+03 -0.42414473923E+03  0.47906792024E+03  0.47000000000E+01 0. -1.
        -11    1    4    4    0    0  0.28674508581E+02 -0.18759023430E+03 -0.41792684572E+03  0.45899365118E+03  0.00000000000E+00 0.  1.
         12    1    4    4    0    0 -0.15092560211E+02 -0.62766579322E+02 -0.26767300295E+03  0.27534753560E+03  0.00000000000E+00 0. -1.
         -5    1    5    5    0  501  0.63007339445E+01  0.12878724203E+03  0.10512972085E+03  0.16643377411E+03  0.47000000000E+01 0.  1.
         13    1    6    6    0    0  0.16672640640E+02  0.11930208357E+03  0.33741398676E+02  0.12509774608E+03  0.00000000000E+00 0. -1.
        -14    1    6    6    0    0  0.56074705011E+02  0.20476415541E+03 -0.22145835889E+02  0.21345531132E+03  0.00000000000E+00 0.  1.
</event>
<event>
12    1  0.2576962E-002  0.1929790E+03  0.7818608E-02  0.1155802E+00
          2   -1    0    0  502    0  0.00000000000E+00  0.00000000000E+00  0.63887023149E+03  0.63887023149E+03  0.00000000000E+00 0. -1.
         -2   -1    0    0    0  501 -0.00000000000E+00 -0.00000000000E+00 -0.97075853338E+02  0.97075853338E+02  0.00000000000E+00 0.  1.
          6    2    1    2  502    0 -0.86261192118E+02  0.18116801276E+02  0.38309457489E+02  0.19674491973E+03  0.17167334433E+03 0.  0.
         24    2    3    3    0    0 -0.88486738728E+02 -0.34569919335E+02 -0.12799660232E+02  0.12315772315E+03  0.77324066219E+02 0.  0.
         -6    2    1    2    0  501  0.86261192118E+02 -0.18116801276E+02  0.50348492066E+03  0.53920116509E+03  0.17167300123E+03 0.  0.
        -24    2    5    5    0    0  0.37042694265E+02 -0.29709851567E+02  0.46922594100E+03  0.47794247564E+03  0.77467346894E+02 0.  0.
          5    1    3    3  502    0  0.22255466092E+01  0.52686720611E+02  0.51109117721E+02  0.73587196581E+02  0.47000000000E+01 0. -1.
        -13    1    4    4    0    0 -0.99826821989E+02 -0.20377556436E+02 -0.17614247120E+01  0.10190064677E+03  0.00000000000E+00 0.  1.
         14    1    4    4    0    0  0.11340083261E+02 -0.14192362899E+02 -0.11038235520E+02  0.21257076385E+02  0.00000000000E+00 0. -1.
         -5    1    5    5    0  501  0.49218497854E+02  0.11593050292E+02  0.34258979660E+02  0.61258689452E+02  0.47000000000E+01 0.  1.
         11    1    6    6    0    0 -0.11323615650E+02  0.18867729964E+02  0.13172092107E+03  0.13354630864E+03  0.00000000000E+00 0. -1.
        -12    1    6    6    0    0  0.48366309915E+02 -0.48577581531E+02  0.33750501994E+03  0.34439616700E+03  0.00000000000E+00 0.  1.
</event>
<event>
12    1  0.2576962E-002  0.1822583E+03  0.7818608E-02  0.1165635E+00
          2   -1    0    0  502    0  0.00000000000E+00  0.00000000000E+00  0.19667059781E+04  0.19667059781E+04  0.00000000000E+00 0. -1.
         -2   -1    0    0    0  501 -0.00000000000E+00 -0.00000000000E+00 -0.52477763755E+02  0.52477763755E+02  0.00000000000E+00 0.  1.
          6    2    1    2  502    0  0.51445932388E+02 -0.18814841590E+02  0.17845990157E+04  0.17936527402E+04  0.17145210260E+03 0.  0.
         24    2    3    3    0    0 -0.21712970072E+02  0.33991242703E+02  0.10235686884E+04  0.10272781865E+04  0.77335340727E+02 0.  0.
         -6    2    1    2    0  501 -0.51445932388E+02  0.18814841590E+02  0.12962919870E+03  0.22553100167E+03  0.17623796792E+03 0.  0.
        -24    2    5    5    0    0 -0.25191599791E+02  0.79657702484E+02  0.63822151838E+02  0.13202270729E+03  0.79854629859E+02 0.  0.
          5    1    3    3  502    0  0.73158902460E+02 -0.52806084293E+02  0.76103032729E+03  0.76637455373E+03  0.47000000000E+01 0. -1.
        -13    1    4    4    0    0 -0.42954631696E+01  0.43257212938E+02  0.27209013285E+03  0.27554070093E+03  0.00000000000E+00 0.  1.
         14    1    4    4    0    0 -0.17417506902E+02 -0.92659702348E+01  0.75147855551E+03  0.75173748553E+03  0.00000000000E+00 0. -1.
         -5    1    5    5    0  501 -0.26254332598E+02 -0.60842860894E+02  0.65807046858E+02  0.93508294382E+02  0.47000000000E+01 0.  1.
         11    1    6    6    0    0 -0.29362411362E+02  0.26762940850E+02  0.68046878127E+02  0.78795836354E+02  0.00000000000E+00 0. -1.
        -12    1    6    6    0    0  0.41708115718E+01  0.52894761634E+02 -0.42247262881E+01  0.53226870937E+02  0.00000000000E+00 0.  1.
</event>
<event>
12    1  0.2576962E-002  0.2053691E+03  0.7818608E-02  0.1145287E+00
         -1   -1    0    0    0  501 -0.00000000000E+00  0.00000000000E+00  0.38697791888E+02  0.38697791888E+02  0.00000000000E+00 0. -1.
          1   -1    0    0  502    0  0.00000000000E+00 -0.00000000000E+00 -0.12265885864E+04  0.12265885864E+04  0.00000000000E+00 0.  1.
          6    2    1    2  502    0 -0.10744448277E+02 -0.12494712496E+03 -0.80128671662E+03  0.82682092678E+03  0.16076447220E+03 0.  0.
         24    2    3    3    0    0 -0.42959961971E+02 -0.93513676770E+02 -0.73385428027E+03  0.74561055515E+03  0.82478052874E+02 0.  0.
         -6    2    1    2    0  501  0.10744448277E+02  0.12494712496E+03 -0.38660407789E+03  0.43846545151E+03  0.16450535529E+03 0.  0.
        -24    2    5    5    0    0 -0.85209006718E+01  0.13729314735E+03 -0.22177633483E+03  0.27199067017E+03  0.76630071853E+02 0.  0.
          5    1    3    3  502    0  0.32215513694E+02 -0.31433448192E+02 -0.67432436353E+02  0.81210371630E+02  0.47000000000E+01 0. -1.
        -11    1    4    4    0    0 -0.10881961621E+02 -0.18762102835E+00 -0.31879734872E+03  0.31898307454E+03  0.00000000000E+00 0.  1.
         12    1    4    4    0    0 -0.32078000350E+02 -0.93326055742E+02 -0.41505693155E+03  0.42662748061E+03  0.00000000000E+00 0. -1.
         -5    1    5    5    0  501  0.19265348949E+02 -0.12346022387E+02 -0.16482774306E+03  0.16647478134E+03  0.47000000000E+01 0.  1.
         13    1    6    6    0    0  0.13595403625E+02 -0.37486153463E+01 -0.27424543728E+02  0.30838169781E+02  0.00000000000E+00 0. -1.
        -14    1    6    6    0    0 -0.22116304296E+02  0.14104176270E+03 -0.19435179110E+03  0.24115250039E+03  0.00000000000E+00 0.  1.
</event>
<event>
12    1  0.2576962E-002  0.1739526E+03  0.7818608E-02  0.1173787E+00
         -2   -1    0    0    0  501 -0.00000000000E+00  0.00000000000E+00  0.26157892018E+02  0.26157892018E+02  0.00000000000E+00 0. -1.
          2   -1    0    0  502    0  0.00000000000E+00 -0.00000000000E+00 -0.15758274178E+04  0.15758274178E+04  0.00000000000E+00 0.  1.
          6    2    1    2  502    0 -0.94669549029E+01 -0.75909601406E+01 -0.36459819428E+03  0.40433828477E+03  0.17438566267E+03 0.  0.
         24    2    3    3    0    0 -0.20152704509E+02 -0.53576339297E+02 -0.33273951044E+03  0.34719017826E+03  0.80925165699E+02 0.  0.
         -6    2    1    2    0  501  0.94669549029E+01  0.75909601406E+01 -0.11850713315E+04  0.11976470250E+04  0.17267625765E+03 0.  0.
        -24    2    5    5    0    0  0.28669207285E+02 -0.57936095080E+02 -0.78728327862E+03  0.79401359423E+03  0.80399704378E+02 0.  0.
          5    1    3    3  502    0  0.10685749606E+02  0.45985379157E+02 -0.31858683840E+02  0.57148106503E+02  0.47000000000E+01 0. -1.
        -13    1    4    4    0    0  0.14398011722E+02  0.73451311421E+01 -0.15967826708E+03  0.16049424498E+03  0.00000000000E+00 0.  1.
         14    1    4    4    0    0 -0.34550716231E+02 -0.60921470440E+02 -0.17306124336E+03  0.18669593329E+03  0.00000000000E+00 0. -1.
         -5    1    5    5    0  501 -0.19202252382E+02  0.65527055221E+02 -0.39778805284E+03  0.40363343078E+03  0.47000000000E+01 0.  1.
         11    1    6    6    0    0 -0.75781743608E+01  0.15736276584E+00 -0.58209545591E+01  0.95570393774E+01  0.00000000000E+00 0. -1.
        -12    1    6    6    0    0  0.36247381646E+02 -0.58093457846E+02 -0.78146232406E+03  0.78445655485E+03  0.00000000000E+00 0.  1.
</event>
<event>
12    1  0.2576962E-002  0.1760723E+03  0.7818608E-02  0.1171659E+00
          1   -1    0    0  502    0  0.00000000000E+00  0.00000000000E+00  0.11295877190E+04  0.11295877190E+04  0.00000000000E+00 0. -1.
         -1   -1    0    0    0  501 -0.00000000000E+00 -0.00000000000E+00 -0.27905415539E+02  0.27905415539E+02  0.00000000000E+00 0.  1.
          6    2    1    2  502    0  0.93411328326E+00  0.45808251783E+02  0.46780734208E+03  0.49879064511E+03  0.16688058559E+03 0.  0.
         24    2    3    3    0    0 -0.37834035499E+02 -0.22780690983E+02  0.29704744958E+03  0.31067248193E+03  0.79560226288E+02 0.  0.
         -6    2    1    2    0  501 -0.93411328326E+00 -0.45808251783E+02  0.63387496138E+03  0.65870248943E+03  0.17318266199E+03 0.  0.
        -24    2    5    5    0    0  0.45132181217E+02  0.14651806964E+02  0.45567196618E+03  0.46490899188E+03  0.79068582508E+02 0.  0.
          5    1    3    3  502    0  0.38768148783E+02  0.68588942766E+02  0.17075989250E+03  0.18811816318E+03  0.47000000000E+01 0. -1.
        -13    1    4    4    0    0  0.80768330918E+01 -0.39729544502E+02  0.10694872611E+03  0.11437526811E+03  0.00000000000E+00 0.  1.
         14    1    4    4    0    0 -0.45910868591E+02  0.16948853520E+02  0.19009872347E+03  0.19629721382E+03  0.00000000000E+00 0. -1.
         -5    1    5    5    0  501 -0.46066294500E+02 -0.60460058747E+02  0.17820299520E+03  0.19379349754E+03  0.47000000000E+01 0.  1.
         11    1    6    6    0    0 -0.19226738919E+02 -0.11896487061E+01  0.19474806464E+03  0.19569847070E+03  0.00000000000E+00 0. -1.
        -12    1    6    6    0    0  0.64358920136E+02  0.15841455670E+02  0.26092390154E+03  0.26921052118E+03  0.00000000000E+00 0.  1.
</event>
<event>
12    1  0.2576962E-002  0.1940330E+03  0.7818608E-02  0.1154873E+00
          2   -1    0    0  502    0  0.00000000000E+00  0.00000000000E+00  0.32113013818E+03  0.32113013818E+03  0.00000000000E+00 0.  1.
         -2   -1    0    0    0  501 -0.00000000000E+00 -0.00000000000E+00 -0.16512580879E+03  0.16512580879E+03  0.00000000000E+00 0. -1.
          6    2    1    2  502    0 -0.81072726816E+02 -0.37240230225E+02 -0.52920567730E+02  0.20114340000E+03  0.17233240871E+03 0.  0.
         24    2    3    3    0    0 -0.89562090502E+02 -0.42692315475E+02  0.17236634164E+02  0.13010877811E+03  0.82384408279E+02 0.  0.
         -6    2    1    2    0  501  0.81072726816E+02  0.37240230225E+02  0.20892489712E+03  0.28511254697E+03  0.17227864065E+03 0.  0.
        -24    2    5    5    0    0  0.92756916940E+02  0.25343020924E+02  0.67772180017E+02  0.14290058041E+03  0.81125785954E+02 0.  0.
          5    1    3    3  502    0  0.84893636860E+01  0.54520852504E+01 -0.70157201893E+02  0.71034621889E+02  0.47000000000E+01 0. -1.
        -11    1    4    4    0    0  0.37416279625E+01 -0.29345001049E+02  0.20178643619E+02  0.35809307794E+02  0.00000000000E+00 0.  1.
         12    1    4    4    0    0 -0.93303718464E+02 -0.13347314426E+02 -0.29420094555E+01  0.94299470313E+02  0.00000000000E+00 0. -1.
         -5    1    5    5    0  501 -0.11684190124E+02  0.11897209301E+02  0.14115271711E+03  0.14221196657E+03  0.47000000000E+01 0.  1.
         13    1    6    6    0    0  0.12304492924E+01 -0.17232706782E+02 -0.55398577145E+01  0.18143048586E+02  0.00000000000E+00 0. -1.
        -14    1    6    6    0    0  0.91526467647E+02  0.42575727706E+02  0.73312037731E+02  0.12475753182E+03  0.00000000000E+00 0.  1.
</event>
<event>
12    1  0.2576962E-002  0.1781319E+03  0.7818608E-02  0.1169623E+00
          2   -1    0    0  502    0  0.00000000000E+00  0.00000000000E+00  0.75600170024E+02  0.75600170024E+02  0.00000000000E+00 0.  1.
         -2   -1    0    0    0  501 -0.00000000000E+00 -0.00000000000E+00 -0.43471929733E+03  0.43471929733E+03  0.00000000000E+00 0. -1.
          6    2    1    2  502    0  0.18348357371E+02 -0.46388064035E+02 -0.13218200722E+03  0.22183189899E+03  0.17102278700E+03 0.  0.
         24    2    3    3    0    0 -0.33264658819E+02 -0.10307666370E+02 -0.14348890567E+02  0.88144083852E+02  0.79691300311E+02 0.  0.
         -6    2    1    2    0  501 -0.18348357371E+02  0.46388064035E+02 -0.22693712008E+03  0.28848756836E+03  0.17098568924E+03 0.  0.
        -24    2    5    5    0    0 -0.82944877020E+01  0.81088130231E+02 -0.87064240674E+02  0.14394799841E+03  0.80602486626E+02 0.  0.
          5    1    3    3  502    0  0.51613016189E+02 -0.36080397665E+02 -0.11783311665E+03  0.13368781514E+03  0.47000000000E+01 0. -1.
        -11    1    4    4    0    0  0.20640924779E+02 -0.20541884113E+02  0.58005487874E+01  0.29692813017E+02  0.00000000000E+00 0.  1.
         12    1    4    4    0    0 -0.53905583598E+02  0.10234217744E+02 -0.20149439355E+02  0.58451270834E+02  0.00000000000E+00 0. -1.
         -5    1    5    5    0  501 -0.10053869669E+02 -0.34700066196E+02 -0.13987287941E+03  0.14453956996E+03  0.47000000000E+01 0.  1.
         13    1    6    6    0    0 -0.29704659154E+02  0.33661216716E+02 -0.79589877403E+02  0.91378295406E+02  0.00000000000E+00 0. -1.
        -14    1    6    6    0    0  0.21410171452E+02  0.47426913515E+02 -0.74743632708E+01  0.52569702999E+02  0.00000000000E+00 0.  1.
</event>
<event>
12    1  0.2576962E-002  0.1890059E+03  0.7818608E-02  0.1159361E+00
         -1   -1    0    0    0  501 -0.00000000000E+00  0.00000000000E+00  0.49378182854E+02  0.49378182854E+02  0.00000000000E+00 0.  1.
          1   -1    0    0  502    0  0.00000000000E+00 -0.00000000000E+00 -0.81421782587E+03  0.81421782587E+03  0.00000000000E+00 0. -1.
          6    2    1    2  502    0  0.71210612357E+02 -0.33687820587E+02 -0.52583461391E+03  0.55863172059E+03  0.17135208635E+03 0.  0.
         24    2    3    3    0    0  0.11094576877E+03 -0.88175726015E+01 -0.43776188301E+03  0.45875025175E+03  0.80184874317E+02 0.  0.
         -6    2    1    2    0  501 -0.71210612357E+02  0.33687820587E+02 -0.23900502911E+03  0.30496428813E+03  0.17226140754E+03 0.  0.
        -24    2    5    5    0    0 -0.11184321770E+03  0.49153594556E+02 -0.18977312702E+03  0.23911545394E+03  0.78977081311E+02 0.  0.
          5    1    3    3  502    0 -0.39735156413E+02 -0.24870247985E+02 -0.88072730899E+02  0.99881468842E+02  0.47000000000E+01 0. -1.
        -11    1    4    4    0    0  0.40344479765E+02 -0.39500050728E+02 -0.13449798687E+03  0.14586856936E+03  0.00000000000E+00 0.  1.
         12    1    4    4    0    0  0.70601289006E+02  0.30682478126E+02 -0.30326389614E+03  0.31288168239E+03  0.00000000000E+00 0. -1.
         -5    1    5    5    0  501  0.40632605339E+02 -0.15465773969E+02 -0.49231902085E+02  0.65848834189E+02  0.47000000000E+01 0.  1.
         13    1    6    6    0    0 -0.90560284523E+02  0.32810482415E+02 -0.18916343801E+03  0.21227458437E+03  0.00000000000E+00 0. -1.
        -14    1    6    6    0    0 -0.21282933174E+02  0.16343112140E+02 -0.60968901389E+00  0.26840869576E+02  0.00000000000E+00 0.  1.
</event>
<event>
12    1  0.2576962E-002  0.2818789E+03  0.7818608E-02  0.1094667E+00
          2   -1    0    0  502    0  0.00000000000E+00  0.00000000000E+00  0.11166090117E+03  0.11166090117E+03  0.00000000000E+00 0. -1.
         -2   -1    0    0    0  501 -0.00000000000E+00 -0.00000000000E+00 -0.11153650168E+04  0.11153650168E+04  0.00000000000E+00 0.  1.
          6    2    1    2  502    0  0.76962923981E+02  0.20905499307E+03 -0.13313252626E+03  0.31207070164E+03  0.17331062138E+03 0.  0.
         24    2    3    3    0    0 -0.24195144572E+02  0.12153712248E+03 -0.75652903747E+02  0.16640557366E+03  0.81306678318E+02 0.  0.
         -6    2    1    2    0  501 -0.76962923981E+02 -0.20905499307E+03 -0.87057158932E+03  0.91495521628E+03  0.17210715811E+03 0.  0.
        -24    2    5    5    0    0 -0.13048365075E+02 -0.15754081546E+03 -0.71537786197E+03  0.73932502427E+03  0.99230226024E+02 0.  0.
          5    1    3    3  502    0  0.10115806855E+03  0.87517870584E+02 -0.57479622511E+02  0.14566512798E+03  0.47000000000E+01 0. -1.
        -13    1    4    4    0    0 -0.10414305546E+02 -0.57603741076E+01  0.71870915626E+01  0.13903019636E+02  0.00000000000E+00 0.  1.
         14    1    4    4    0    0 -0.13780839026E+02  0.12729749659E+03 -0.82839995309E+02  0.15250255403E+03  0.00000000000E+00 0. -1.
         -5    1    5    5    0  501 -0.63914558905E+02 -0.51514177606E+02 -0.15519372736E+03  0.17563019201E+03  0.47000000000E+01 0.  1.
         13    1    6    6    0    0 -0.27117123108E+02 -0.29806906961E+02 -0.65804355598E+02  0.77162188175E+02  0.00000000000E+00 0. -1.
        -14    1    6    6    0    0  0.14068758033E+02 -0.12773390850E+03 -0.64957350637E+03  0.66216283610E+03  0.00000000000E+00 0.  1.
</event>
<event>
12    1  0.2576962E-002  0.2023734E+03  0.7818608E-02  0.1147752E+00
         -2   -1    0    0    0  501 -0.00000000000E+00  0.00000000000E+00  0.12405271230E+03  0.12405271230E+03  0.00000000000E+00 0.  1.
          2   -1    0    0  502    0  0.00000000000E+00 -0.00000000000E+00 -0.71011667587E+03  0.71011667587E+03  0.00000000000E+00 0. -1.
          6    2    1    2  502    0  0.64686395265E+02  0.84015637442E+02  0.12218291178E+02  0.20251317397E+03  0.17210270749E+03 0.  0.
         24    2    3    3    0    0  0.14365460008E+02 -0.21862468805E+02  0.24706018745E+01  0.84786892479E+02  0.80612525572E+02 0.  0.
         -6    2    1    2    0  501 -0.64686395265E+02 -0.84015637442E+02 -0.59828225475E+03  0.63165621420E+03  0.17264112929E+03 0.  0.
        -24    2    5    5    0    0 -0.85341333244E+02 -0.10554971168E+03 -0.38566133726E+03  0.41690033565E+03  0.81531208838E+02 0.  0.
          5    1    3    3  502    0  0.50320935257E+02  0.10587810625E+03  0.97476893034E+01  0.11772628149E+03  0.47000000000E+01 0. -1.
        -13    1    4    4    0    0 -0.31185309788E+02  0.39303673087E+01  0.71397041155E+01  0.32232696267E+02  0.00000000000E+00 0.  1.
         14    1    4    4    0    0  0.45550769796E+02 -0.25792836113E+02 -0.46691022410E+01  0.52554196212E+02  0.00000000000E+00 0. -1.
         -5    1    5    5    0  501  0.20654937979E+02  0.21534074242E+02 -0.21262091749E+03  0.21475587855E+03  0.47000000000E+01 0.  1.
         11    1    6    6    0    0  0.40577419878E+01 -0.84898219519E+01 -0.11903930874E+03  0.11941063341E+03  0.00000000000E+00 0. -1.
        -12    1    6    6    0    0 -0.89399075232E+02 -0.97059889732E+02 -0.26662202852E+03  0.29748970224E+03  0.00000000000E+00 0.  1.
</event>
<event>
12    1  0.2576962E-002  0.1790911E+03  0.7818608E-02  0.1168686E+00
         -2   -1    0    0    0  501 -0.00000000000E+00  0.00000000000E+00  0.13727270674E+03  0.13727270674E+03  0.00000000000E+00 0. -1.
          2   -1    0    0  502    0  0.00000000000E+00 -0.00000000000E+00 -0.24026856602E+03  0.24026856602E+03  0.00000000000E+00 0.  1.
          6    2    1    2  502    0 -0.38723914792E+02 -0.29338250345E+02 -0.82935394529E+02  0.19771037059E+03  0.17277394614E+03 0.  0.
         24    2    3    3    0    0  0.31778063112E+02 -0.18342262978E+02 -0.78734447800E+01  0.94038643846E+02  0.86226396755E+02 0.  0.
         -6    2    1    2    0  501  0.38723914792E+02  0.29338250345E+02 -0.20060464755E+02  0.17983090216E+03  0.17197807016E+03 0.  0.
        -24    2    5    5    0    0 -0.37309121021E+02  0.33820835757E+01 -0.40341234725E+02  0.96836054378E+02  0.79664278116E+02 0.  0.
          5    1    3    3  502    0 -0.70501977904E+02 -0.10995987367E+02 -0.75061949749E+02  0.10367172675E+03  0.47000000000E+01 0. -1.
        -11    1    4    4    0    0 -0.17461368234E+02  0.15645631135E+02 -0.22447257587E+02  0.32458658743E+02  0.00000000000E+00 0.  1.
         12    1    4    4    0    0  0.49239431346E+02 -0.33987894113E+02  0.14573812807E+02  0.61579985103E+02  0.00000000000E+00 0. -1.
         -5    1    5    5    0  501  0.76033035813E+02  0.25956166769E+02  0.20280769970E+02  0.82994847785E+02  0.47000000000E+01 0.  1.
         11    1    6    6    0    0  0.10239130914E+02 -0.22683125290E+02  0.58951700844E+01  0.25575711234E+02  0.00000000000E+00 0. -1.
        -12    1    6    6    0    0 -0.47548251935E+02  0.26065208866E+02 -0.46236404809E+02  0.71260343144E+02  0.00000000000E+00 0.  1.
</event>
<event>
12    1  0.2576962E-002  0.2267889E+03  0.7818608E-02  0.1128921E+00
         -1   -1    0    0    0  501 -0.00000000000E+00  0.00000000000E+00  0.71842680047E+02  0.71842680047E+02  0.00000000000E+00 0. -1.
          1   -1    0    0  502    0  0.00000000000E+00 -0.00000000000E+00 -0.10771746403E+04  0.10771746403E+04  0.00000000000E+00 0.  1.
          6    2    1    2  502    0 -0.10946167620E+03 -0.99271022149E+02 -0.16892963850E+03  0.28222966375E+03  0.17111331316E+03 0.  0.
         24    2    3    3    0    0 -0.91076830826E+02 -0.27026644317E+02 -0.16642928777E+03  0.20749282931E+03  0.79555878283E+02 0.  0.
         -6    2    1    2    0  501  0.10946167620E+03  0.99271022149E+02 -0.83640232173E+03  0.86678765658E+03  0.17296069901E+03 0.  0.
        -24    2    5    5    0    0  0.12769583414E+03  0.10283136461E+03 -0.54011591994E+03  0.56988214562E+03  0.78485268133E+02 0.  0.
          5    1    3    3  502    0 -0.18384845378E+02 -0.72244377832E+02 -0.25003507245E+01  0.74736834437E+02  0.47000000000E+01 0. -1.
        -11    1    4    4    0    0 -0.66783760487E+02 -0.44541516648E+02 -0.69961036019E+02  0.10648269311E+03  0.00000000000E+00 0.  1.
         12    1    4    4    0    0 -0.24293070339E+02  0.17514872331E+02 -0.96468251754E+02  0.10101013620E+03  0.00000000000E+00 0. -1.
         -5    1    5    5    0  501 -0.18234157933E+02 -0.35603424634E+01 -0.29628640179E+03  0.29690551096E+03  0.47000000000E+01 0.  1.
         13    1    6    6    0    0  0.10600988814E+03  0.37003470129E+02 -0.34615753930E+03  0.36391262028E+03  0.00000000000E+00 0. -1.
        -14    1    6    6    0    0  0.21685945996E+02  0.65827894484E+02 -0.19395838065E+03  0.20596952534E+03  0.00000000000E+00 0.  1.
</event>
<event>
12    1  0.2576962E-002  0.1920488E+03  0.7818608E-02  0.1156626E+00
         -2   -1    0    0    0  501 -0.00000000000E+00  0.00000000000E+00  0.73954821362E+02  0.73954821362E+02  0.00000000000E+00 0.  1.
          2   -1    0    0  502    0  0.00000000000E+00 -0.00000000000E+00 -0.49896856042E+03  0.49896856042E+03  0.00000000000E+00 0. -1.
          6    2    1    2  502    0 -0.16966878804E+02  0.84344699479E+02 -0.21912279493E+03  0.29150873392E+03  0.17193207783E+03 0.  0.
         24    2    3    3    0    0 -0.26168191036E+02  0.59989206621E+02 -0.42316615407E+02  0.11273410122E+03  0.81454297031E+02 0.  0.
         -6    2    1    2    0  501  0.16966878804E+02 -0.84344699479E+02 -0.20589094412E+03  0.28141464786E+03  0.17146783912E+03 0.  0.
        -24    2    5    5    0    0 -0.37491785281E+02 -0.10130877734E+03 -0.15528840225E+03  0.20501940405E+03  0.79052930607E+02 0.  0.
          5    1    3    3  502    0  0.92013122326E+01  0.24355492858E+02 -0.17680617953E+03  0.17877463270E+03  0.47000000000E+01 0. -1.
        -13    1    4    4    0    0 -0.13361576893E+01  0.45471201113E+02 -0.62711032851E+02  0.77473150764E+02  0.00000000000E+00 0.  1.
         14    1    4    4    0    0 -0.24832033347E+02  0.14518005507E+02  0.20394417443E+02  0.35260950454E+02  0.00000000000E+00 0. -1.
         -5    1    5    5    0  501  0.54458664085E+02  0.16964077858E+02 -0.50602541874E+02  0.76395243802E+02  0.47000000000E+01 0.  1.
         11    1    6    6    0    0  0.17449434037E+01 -0.90297506841E+02 -0.12514290770E+03  0.15432897303E+03  0.00000000000E+00 0. -1.
        -12    1    6    6    0    0 -0.39236728685E+02 -0.11011270496E+02 -0.30145494542E+02  0.50690431020E+02  0.00000000000E+00 0.  1.
</event>
<event>
12    1  0.2576962E-002  0.1808348E+03  0.7818608E-02  0.1166998E+00
         -1   -1    0    0    0  501 -0.00000000000E+00  0.00000000000E+00  0.46581391835E+02  0.46581391835E+02  0.00000000000E+00 0.  1.
          1   -1    0    0  502    0  0.00000000000E+00 -0.00000000000E+00 -0.70564643607E+03  0.70564643607E+03  0.00000000000E+00 0. -1.
          6    2    1    2  502    0 -0.25296644932E+02  0.47437526311E+02 -0.30138135539E+03  0.35112119657E+03  0.17194514869E+03 0.  0.
         24    2    3    3    0    0 -0.47729971166E+02 -0.32655556971E+02 -0.15827789874E+03  0.18553482811E+03  0.77632104587E+02 0.  0.
         -6    2    1    2    0  501  0.25296644932E+02 -0.47437526311E+02 -0.35768368885E+03  0.40110663134E+03  0.17337436168E+03 0.  0.
        -24    2    5    5    0    0 -0.40883872105E+02 -0.20587217688E+01 -0.86180748949E+02  0.11795467018E+03  0.69357432140E+02 0.  0.
          5    1    3    3  502    0  0.22433326235E+02  0.80093083282E+02 -0.14310345665E+03  0.16558636846E+03  0.47000000000E+01 0. -1.
        -13    1    4    4    0    0  0.12809410950E+02  0.13962391324E+02 -0.45736143891E+02  0.49505800048E+02  0.00000000000E+00 0.  1.
         14    1    4    4    0    0 -0.60539382116E+02 -0.46617948295E+02 -0.11254175485E+03  0.13602902806E+03  0.00000000000E+00 0. -1.
         -5    1    5    5    0  501  0.66180517037E+02 -0.45378804542E+02 -0.27150293990E+03  0.28315196116E+03  0.47000000000E+01 0.  1.
         11    1    6    6    0    0 -0.23944867293E+02 -0.15252170125E+02 -0.91526444251E+02  0.95828364071E+02  0.00000000000E+00 0. -1.
        -12    1    6    6    0    0 -0.16939004812E+02  0.13193448357E+02  0.53456953022E+01  0.22126306104E+02  0.00000000000E+00 0.  1.
</event>
<event>
12    1  0.2576962E-002  0.1925762E+03  0.7818608E-02  0.1156158E+00
          2   -1    0    0  502    0  0.00000000000E+00  0.00000000000E+00  0.89155990101E+03  0.89155990101E+03  0.00000000000E+00 0. -1.
         -2   -1    0    0    0  501 -0.00000000000E+00 -0.00000000000E+00 -0.45945924671E+02  0.45945924671E+02  0.00000000000E+00 0.  1.
          6    2    1    2  502    0 -0.76328839691E+02 -0.32533797717E+02  0.56431103107E+03  0.59583193729E+03  0.17229108492E+03 0.  0.
         24    2    3    3    0    0 -0.63896894036E+01 -0.29671449235E+02  0.12397687629E+03  0.14994413117E+03  0.78687696539E+02 0.  0.
         -6    2    1    2    0  501  0.76328839691E+02  0.32533797717E+02  0.28130294527E+03  0.34167388839E+03  0.17528593563E+03 0.  0.
        -24    2    5    5    0    0  0.32639105836E+02  0.24779392949E+02  0.41094058527E+02  0.97355811068E+02  0.78167146282E+02 0.  0.
          5    1    3    3  502    0 -0.69939150287E+02 -0.28623484823E+01  0.44033415478E+03  0.44588780612E+03  0.47000000000E+01 0. -1.
        -11    1    4    4    0    0 -0.10664661150E+02 -0.43478370008E+02  0.12744609470E+03  0.13508001596E+03  0.00000000000E+00 0.  1.
         12    1    4    4    0    0  0.42749717462E+01  0.13806920773E+02 -0.34692184104E+01  0.14864115212E+02  0.00000000000E+00 0. -1.
         -5    1    5    5    0  501  0.43689733855E+02  0.77544047685E+01  0.24020888674E+03  0.24431807732E+03  0.47000000000E+01 0.  1.
         11    1    6    6    0    0 -0.23355129776E+02  0.11063926858E+02  0.28260138126E+02  0.38295012355E+02  0.00000000000E+00 0. -1.
        -12    1    6    6    0    0  0.55994235611E+02  0.13715466091E+02  0.12833920400E+02  0.59060798713E+02  0.00000000000E+00 0.  1.
</event>
<event>
12    1  0.2576962E-002  0.1785730E+03  0.7818608E-02  0.1169191E+00
          2   -1    0    0  502    0  0.00000000000E+00  0.00000000000E+00  0.11212556431E+04  0.11212556431E+04  0.00000000000E+00 0. -1.
         -2   -1    0    0    0  501 -0.00000000000E+00 -0.00000000000E+00 -0.28842466239E+02  0.28842466239E+02  0.00000000000E+00 0.  1.
          6    2    1    2  502    0  0.15713691472E+02  0.52261906575E+02  0.60618717109E+03  0.63124988234E+03  0.16743745272E+03 0.  0.
         24    2    3    3    0    0  0.30911025345E+02 -0.22420675092E+02  0.26127756592E+03  0.27798911080E+03  0.86912606186E+02 0.  0.
         -6    2    1    2    0  501 -0.15713691472E+02 -0.52261906575E+02  0.48622600579E+03  0.51884822702E+03  0.17265435703E+03 0.  0.
        -24    2    5    5    0    0  0.54151823734E+01  0.37542704562E+02  0.27115460353E+03  0.28477752070E+03  0.78323932560E+02 0.  0.
          5    1    3    3  502    0 -0.15197333873E+02  0.74682581667E+02  0.34490960518E+03  0.35326077154E+03  0.47000000000E+01 0. -1.
        -11    1    4    4    0    0  0.46118368647E+02 -0.40092643519E+02  0.11858440568E+03  0.13340384275E+03  0.00000000000E+00 0.  1.
         12    1    4    4    0    0 -0.15207343302E+02  0.17671968428E+02  0.14269316024E+03  0.14458526805E+03  0.00000000000E+00 0. -1.
         -5    1    5    5    0  501 -0.21128873845E+02 -0.89804611138E+02  0.21507140226E+03  0.23407070633E+03  0.47000000000E+01 0.  1.
         13    1    6    6    0    0 -0.26071894544E+02  0.47204120098E+02  0.17668942220E+03  0.18473528239E+03  0.00000000000E+00 0. -1.
        -14    1    6    6    0    0  0.31487076918E+02 -0.96614155357E+01  0.94465181330E+02  0.10004223831E+03  0.00000000000E+00 0.  1.
</event>
<event>
12    1  0.2576962E-002  0.3562506E+03  0.7818608E-02  0.1060078E+00
         -1   -1    0    0    0  501 -0.00000000000E+00  0.00000000000E+00  0.28421223606E+03  0.28421223606E+03  0.00000000000E+00 0. -1.
          1   -1    0    0  502    0  0.00000000000E+00 -0.00000000000E+00 -0.46259481175E+03  0.46259481175E+03  0.00000000000E+00 0.  1.
          6    2    1    2  502    0 -0.30267948012E+03  0.67232532182E+02 -0.19374919237E+02  0.35561517632E+03  0.17306555135E+03 0.  0.
         24    2    3    3    0    0 -0.49458587471E+02  0.71843692382E+01  0.93753564112E+01  0.93746371958E+02  0.78757335604E+02 0.  0.
         -6    2    1    2    0  501  0.30267948012E+03 -0.67232532182E+02 -0.15900765645E+03  0.39119187150E+03  0.17779922511E+03 0.  0.
        -24    2    5    5    0    0  0.20924642453E+03 -0.12924335023E+02 -0.35384059842E+02  0.22692379854E+03  0.79317551901E+02 0.  0.
          5    1    3    3  502    0 -0.25322089265E+03  0.60048162943E+02 -0.28750275648E+02  0.26186880436E+03  0.47000000000E+01 0. -1.
        -11    1    4    4    0    0 -0.50982930066E+02  0.37152402329E+02  0.91120014336E+01  0.63738439948E+02  0.00000000000E+00 0.  1.
         12    1    4    4    0    0  0.15243425953E+01 -0.29968033090E+02  0.26335497755E+00  0.30007932010E+02  0.00000000000E+00 0. -1.
         -5    1    5    5    0  501  0.93433055592E+02 -0.54308197158E+02 -0.12362359661E+03  0.16426807296E+03  0.47000000000E+01 0.  1.
         13    1    6    6    0    0  0.98689630435E+02  0.26342682217E+02 -0.39530819237E+02  0.10952746565E+03  0.00000000000E+00 0. -1.
        -14    1    6    6    0    0  0.11055679409E+03 -0.39267017240E+02  0.41467593952E+01  0.11739633289E+03  0.00000000000E+00 0.  1.
</event>
<event>
12    1  0.2576962E-002  0.3118417E+03  0.7818608E-02  0.1079466E+00
          4   -1    0    0  502    0  0.00000000000E+00  0.00000000000E+00  0.51027796426E+03  0.51027796426E+03  0.00000000000E+00 0.  1.
         -4   -1    0    0    0  501 -0.00000000000E+00 -0.00000000000E+00 -0.19310443313E+03  0.19310443313E+03  0.00000000000E+00 0. -1.
          6    2    1    2  502    0 -0.25564087382E+03 -0.43694602274E+02  0.19895882133E+03  0.37008494582E+03  0.17354186788E+03 0.  0.
         24    2    3    3    0    0 -0.20415819127E+03 -0.58949020907E+02  0.21709099166E+03  0.31321641770E+03  0.76292014830E+02 0.  0.
         -6    2    1    2    0  501  0.25564087382E+03  0.43694602274E+02  0.11821470981E+03  0.33329745157E+03  0.17277441643E+03 0.  0.
        -24    2    5    5    0    0  0.15039123153E+03  0.31537080506E+02 -0.17083912667E+01  0.17320706238E+03  0.79910311547E+02 0.  0.
          5    1    3    3  502    0 -0.51482682547E+02  0.15254418633E+02 -0.18132170335E+02  0.56868528125E+02  0.47000000000E+01 0. -1.
        -13    1    4    4    0    0 -0.14284380327E+03 -0.75103034029E+02  0.14225813802E+03  0.21513297211E+03  0.00000000000E+00 0.  1.
         14    1    4    4    0    0 -0.61314387999E+02  0.16154013122E+02  0.74832853638E+02  0.98083445592E+02  0.00000000000E+00 0. -1.
         -5    1    5    5    0  501  0.10524964229E+03  0.12157521769E+02  0.11992310107E+03  0.16009038919E+03  0.47000000000E+01 0.  1.
         11    1    6    6    0    0  0.63754016661E+02 -0.30655457586E+01 -0.36632161792E+02  0.73592713558E+02  0.00000000000E+00 0. -1.
        -12    1    6    6    0    0  0.86637214866E+02  0.34602626264E+02  0.34923770526E+02  0.99614348825E+02  0.00000000000E+00 0.  1.
</event>
<event>
12    1  0.2576962E-002  0.1753644E+03  0.7818608E-02  0.1172366E+00
          2   -1    0    0  502    0  0.00000000000E+00  0.00000000000E+00  0.11304710273E+03  0.11304710273E+03  0.00000000000E+00 0.  1.
         -2   -1    0    0    0  501 -0.00000000000E+00 -0.00000000000E+00 -0.27291517233E+03  0.27291517233E+03  0.00000000000E+00 0. -1.
          6    2    1    2  502    0  0.25731320350E+02  0.26945910137E+02 -0.90606264132E+02  0.19685718433E+03  0.17074856661E+03 0.  0.
         24    2    3    3    0    0 -0.18726623558E+02  0.51739723880E+02 -0.42422844331E+01  0.96497486410E+02  0.79158590496E+02 0.  0.
         -6    2    1    2    0  501 -0.25731320350E+02 -0.26945910137E+02 -0.69261805470E+02  0.18910509073E+03  0.17197486654E+03 0.  0.
        -24    2    5    5    0    0 -0.23849719993E+02 -0.38387210744E+02 -0.11407303074E+03  0.14258004704E+03  0.72622492248E+02 0.  0.
          5    1    3    3  502    0  0.44457943908E+02 -0.24793813743E+02 -0.86363979699E+02  0.10035969792E+03  0.47000000000E+01 0. -1.
        -13    1    4    4    0    0 -0.59121072091E+01  0.29664467166E+02 -0.41488553004E+02  0.51344266030E+02  0.00000000000E+00 0.  1.
         14    1    4    4    0    0 -0.12814516349E+02  0.22075256714E+02  0.37246268570E+02  0.45153220380E+02  0.00000000000E+00 0. -1.
         -5    1    5    5    0  501 -0.18816003575E+01  0.11441300607E+02  0.44811225271E+02  0.46525043684E+02  0.47000000000E+01 0.  1.
         13    1    6    6    0    0 -0.36654315250E+02  0.40542664742E+01 -0.74620620267E+02  0.83235886925E+02  0.00000000000E+00 0. -1.
        -14    1    6    6    0    0  0.12804595257E+02 -0.42441477218E+02 -0.39452410473E+02  0.59344160119E+02  0.00000000000E+00 0.  1.
</event>
<event>
12    1  0.2576962E-002  0.1988155E+03  0.7818608E-02  0.1150742E+00
         -2   -1    0    0    0  501 -0.00000000000E+00  0.00000000000E+00  0.58633843641E+02  0.58633843641E+02  0.00000000000E+00 0.  1.
          2   -1    0    0  502    0  0.00000000000E+00 -0.00000000000E+00 -0.74864319845E+03  0.74864319845E+03  0.00000000000E+00 0. -1.
          6    2    1    2  502    0  0.82861626728E+02 -0.51636416040E+02 -0.21825323944E+03  0.29548133862E+03  0.17361559924E+03 0.  0.
         24    2    3    3    0    0 -0.33690282923E+01 -0.64436673940E+02 -0.57206586804E+02  0.11229376591E+03  0.71929555742E+02 0.  0.
         -6    2    1    2    0  501 -0.82861626728E+02  0.51636416040E+02 -0.47175611537E+03  0.51179570347E+03  0.17276759263E+03 0.  0.
        -24    2    5    5    0    0 -0.11941214623E+03  0.13391726467E+02 -0.30522814425E+03  0.33700367871E+03  0.77257105930E+02 0.  0.
          5    1    3    3  502    0  0.86230655020E+02  0.12800257900E+02 -0.16104665264E+03  0.18318757270E+03  0.47000000000E+01 0. -1.
        -13    1    4    4    0    0 -0.10261721990E+02  0.64371075171E+01  0.89776710417E+01  0.15077727571E+02  0.00000000000E+00 0.  1.
         14    1    4    4    0    0  0.68926936972E+01 -0.70873781457E+02 -0.66184257846E+02  0.97216038343E+02  0.00000000000E+00 0. -1.
         -5    1    5    5    0  501  0.36550519502E+02  0.38244689572E+02 -0.16652797112E+03  0.17479202476E+03  0.47000000000E+01 0.  1.
         13    1    6    6    0    0 -0.31460230941E+01 -0.12556857395E+02 -0.90702101052E+02  0.91621194404E+02  0.00000000000E+00 0. -1.
        -14    1    6    6    0    0 -0.11626612314E+03  0.25948583862E+02 -0.21452604320E+03  0.24538248430E+03  0.00000000000E+00 0.  1.
</event>
<event>
12    1  0.2576962E-002  0.2119671E+03  0.7818608E-02  0.1140018E+00
          2   -1    0    0  502    0  0.00000000000E+00  0.00000000000E+00  0.17481732111E+04  0.17481732111E+04  0.00000000000E+00 0.  1.
         -2   -1    0    0    0  501 -0.00000000000E+00 -0.00000000000E+00 -0.29306520637E+02  0.29306520637E+02  0.00000000000E+00 0. -1.
          6    2    1    2  502    0  0.11971041254E+03 -0.31359915621E+02  0.11734496028E+04  0.11925559446E+04  0.17289211563E+03 0.  0.
         24    2    3    3    0    0  0.13876627240E+03  0.13185063971E+02  0.78954569575E+03  0.80557832147E+03  0.78384322886E+02 0.  0.
         -6    2    1    2    0  501 -0.11971041254E+03  0.31359915621E+02  0.54541708766E+03  0.58492378707E+03  0.17129509624E+03 0.  0.
        -24    2    5    5    0    0 -0.66352918427E+02  0.34969443549E+02  0.50950650352E+03  0.52033500381E+03  0.74337522799E+02 0.  0.
          5    1    3    3  502    0 -0.19055859857E+02 -0.44544979592E+02  0.38390390700E+03  0.38697762314E+03  0.47000000000E+01 0. -1.
        -11    1    4    4    0    0  0.29164215200E+01  0.56464571697E+01  0.21681960548E+03  0.21691272280E+03  0.00000000000E+00 0.  1.
         12    1    4    4    0    0  0.13584985088E+03  0.75386068013E+01  0.57272609027E+03  0.58866559867E+03  0.00000000000E+00 0. -1.
         -5    1    5    5    0  501 -0.53357494115E+02 -0.36095279279E+01  0.35910584134E+02  0.64588783259E+02  0.47000000000E+01 0.  1.
         11    1    6    6    0    0 -0.20040560764E+02  0.43417498215E+02  0.14222691694E+03  0.15005065521E+03  0.00000000000E+00 0. -1.
        -12    1    6    6    0    0 -0.46312357662E+02 -0.84480546657E+01  0.36727958658E+03  0.37028434860E+03  0.00000000000E+00 0.  1.
</event>
<event>
12    1  0.2576962E-002  0.2321941E+03  0.7818608E-02  0.1125105E+00
         -2   -1    0    0    0  501 -0.00000000000E+00  0.00000000000E+00  0.46780595559E+02  0.46780595559E+02  0.00000000000E+00 0. -1.
          2   -1    0    0  502    0  0.00000000000E+00 -0.00000000000E+00 -0.12818050599E+04  0.12818050599E+04  0.00000000000E+00 0.  1.
          6    2    1    2  502    0 -0.12161029681E+03  0.97178209069E+02 -0.40741479575E+03  0.46912187481E+03  0.17278845162E+03 0.  0.
         24    2    3    3    0    0 -0.77815793224E+01 -0.14737018654E+01 -0.11737395109E+03  0.14226570150E+03  0.80001004082E+02 0.  0.
         -6    2    1    2    0  501  0.12161029681E+03 -0.97178209069E+02 -0.82760966856E+03  0.85946378063E+03  0.17177764147E+03 0.  0.
        -24    2    5    5    0    0  0.53227720487E+02 -0.91546422260E+02 -0.31349440251E+03  0.34076879265E+03  0.81429061041E+02 0.  0.
          5    1    3    3  502    0 -0.11382871749E+03  0.98651910935E+02 -0.29004084467E+03  0.32685617331E+03  0.47000000000E+01 0. -1.
        -13    1    4    4    0    0 -0.40332062886E+01  0.34233213083E+02 -0.92154651889E+02  0.98390342492E+02  0.00000000000E+00 0.  1.
         14    1    4    4    0    0 -0.37483730339E+01 -0.35706914949E+02 -0.25219299199E+02  0.43875359003E+02  0.00000000000E+00 0. -1.
         -5    1    5    5    0  501  0.68382576325E+02 -0.56317868088E+01 -0.51411526605E+03  0.51869498798E+03  0.47000000000E+01 0.  1.
         13    1    6    6    0    0  0.74720074282E+02 -0.71517345166E+02 -0.25839075850E+03  0.27832284174E+03  0.00000000000E+00 0. -1.
        -14    1    6    6    0    0 -0.21492353795E+02 -0.20029077094E+02 -0.55103644014E+02  0.62445950905E+02  0.00000000000E+00 0.  1.
</event>
<event>
12    1  0.2576962E-002  0.2015511E+03  0.7818608E-02  0.1148437E+00
          2   -1    0    0  502    0  0.00000000000E+00  0.00000000000E+00  0.86688228299E+03  0.86688228299E+03  0.00000000000E+00 0. -1.
         -2   -1    0    0    0  501 -0.00000000000E+00 -0.00000000000E+00 -0.48821487407E+02  0.48821487407E+02  0.00000000000E+00 0.  1.
          6    2    1    2  502    0  0.21698171583E+02 -0.10167914047E+03  0.50241063807E+03  0.54164724532E+03  0.17365434306E+03 0.  0.
         24    2    3    3    0    0  0.26501043912E+02 -0.98796370120E+02  0.51283684254E+03  0.52891250201E+03  0.79270294807E+02 0.  0.
         -6    2    1    2    0  501 -0.21698171583E+02  0.10167914047E+03  0.31565015751E+03  0.37405652507E+03  0.17167936322E+03 0.  0.
        -24    2    5    5    0    0 -0.13558181905E+02 -0.81018956081E+01  0.19675299626E+03  0.21195544467E+03  0.77226316615E+02 0.  0.
          5    1    3    3  502    0 -0.48028723292E+01 -0.28827703496E+01 -0.10426204473E+02  0.12734743312E+02  0.47000000000E+01 0. -1.
        -13    1    4    4    0    0 -0.23105094337E+02 -0.17685932889E+02  0.66916962976E+02  0.72969291763E+02  0.00000000000E+00 0.  1.
         14    1    4    4    0    0  0.49606138249E+02 -0.81110437232E+02  0.44591987957E+03  0.45594321025E+03  0.00000000000E+00 0. -1.
         -5    1    5    5    0  501 -0.81399896778E+01  0.10978103608E+03  0.11889716125E+03  0.16210108040E+03  0.47000000000E+01 0.  1.
         13    1    6    6    0    0  0.24580808704E+02  0.13640104665E+02  0.12259773062E+03  0.12577945844E+03  0.00000000000E+00 0. -1.
        -14    1    6    6    0    0 -0.38138990609E+02 -0.21742000273E+02  0.74155265644E+02  0.86175986233E+02  0.00000000000E+00 0.  1.
</event>
<event>
12    1  0.2576962E-002  0.1834727E+03  0.7818608E-02  0.1164484E+00
          2   -1    0    0  502    0  0.00000000000E+00  0.00000000000E+00  0.17357142682E+03  0.17357142682E+03  0.00000000000E+00 0.  1.
         -2   -1    0    0    0  501 -0.00000000000E+00 -0.00000000000E+00 -0.54311874145E+03  0.54311874145E+03  0.00000000000E+00 0. -1.
          6    2    1    2  502    0  0.53911370605E+02 -0.37847164741E+02  0.10222758042E+03  0.21081988087E+03  0.17220830471E+03 0.  0.
         24    2    3    3    0    0  0.84399297323E+02 -0.66239748536E+02  0.97217591105E+02  0.16859616143E+03  0.86385530931E+02 0.  0.
         -6    2    1    2    0  501 -0.53911370605E+02  0.37847164741E+02 -0.47177489504E+03  0.50587028740E+03  0.17027728070E+03 0.  0.
        -24    2    5    5    0    0  0.33788558763E+01 -0.34630926814E+02 -0.19002034103E+03  0.20931850016E+03  0.80596443757E+02 0.  0.
          5    1    3    3  502    0 -0.30487926718E+02  0.28392583795E+02  0.50099893106E+01  0.42223719436E+02  0.47000000000E+01 0. -1.
        -11    1    4    4    0    0 -0.13241327577E+02 -0.31118642410E+02  0.27456180056E+02  0.43560813637E+02  0.00000000000E+00 0.  1.
         12    1    4    4    0    0  0.97640624901E+02 -0.35121106127E+02  0.69761411048E+02  0.12503534779E+03  0.00000000000E+00 0. -1.
         -5    1    5    5    0  501 -0.57290226482E+02  0.72478091556E+02 -0.28175455402E+03  0.29655178724E+03  0.47000000000E+01 0.  1.
         11    1    6    6    0    0 -0.14422810780E+01 -0.60918041548E+02 -0.13714422191E+03  0.15007206790E+03  0.00000000000E+00 0. -1.
        -12    1    6    6    0    0  0.48211369543E+01  0.26287114734E+02 -0.52876119113E+02  0.59246432256E+02  0.00000000000E+00 0.  1.
</event>
<event>
12    1  0.2576962E-002  0.3308705E+03  0.7818608E-02  0.1070752E+00
          1   -1    0    0  502    0  0.00000000000E+00  0.00000000000E+00  0.34555563235E+03  0.34555563235E+03  0.00000000000E+00 0. -1.
         -1   -1    0    0    0  501 -0.00000000000E+00 -0.00000000000E+00 -0.31730483528E+03  0.31730483528E+03  0.00000000000E+00 0.  1.
          6    2    1    2  502    0 -0.18291465276E+03 -0.21479264887E+03  0.10565718275E+01  0.33131046231E+03  0.17370047176E+03 0.  0.
         24    2    3    3    0    0 -0.17918397631E+02 -0.77055919565E+02 -0.49194827587E+00  0.11632288425E+03  0.85276536476E+02 0.  0.
         -6    2    1    2    0  501  0.18291465276E+03  0.21479264887E+03  0.27194225234E+02  0.33155000532E+03  0.17202391676E+03 0.  0.
        -24    2    5    5    0    0  0.44286455570E+02  0.13086516233E+03  0.52556005784E+02  0.16745579468E+03  0.78691350021E+02 0.  0.
          5    1    3    3  502    0 -0.16499625513E+03 -0.13773672930E+03  0.15485201033E+01  0.21498757806E+03  0.47000000000E+01 0. -1.
        -13    1    4    4    0    0  0.44361368309E+01  0.13156036223E+02 -0.16977581120E+02  0.21931686204E+02  0.00000000000E+00 0.  1.
         14    1    4    4    0    0 -0.22354534462E+02 -0.90211955788E+02  0.16485632844E+02  0.94391198045E+02  0.00000000000E+00 0. -1.
         -5    1    5    5    0  501  0.13862819719E+03  0.83927486541E+02 -0.25361780549E+02  0.16409421064E+03  0.47000000000E+01 0.  1.
         11    1    6    6    0    0  0.35242374723E+02  0.44912663052E+02  0.57317288638E+02  0.80897737022E+02  0.00000000000E+00 0. -1.
        -12    1    6    6    0    0  0.90440808472E+01  0.85952499277E+02 -0.47612828539E+01  0.86558057653E+02  0.00000000000E+00 0.  1.
</event>
<event>
12    1  0.2576962E-002  0.1775169E+03  0.7818608E-02  0.1170228E+00
          1   -1    0    0  502    0  0.00000000000E+00  0.00000000000E+00  0.26292409308E+03  0.26292409308E+03  0.00000000000E+00 0.  1.
         -1   -1    0    0    0  501 -0.00000000000E+00 -0.00000000000E+00 -0.12107842317E+03  0.12107842317E+03  0.00000000000E+00 0. -1.
          6    2    1    2  502    0  0.36734169936E+02 -0.13450325962E+02  0.90074481611E+02  0.19870475417E+03  0.17274216794E+03 0.  0.
         24    2    3    3    0    0 -0.94042740020E+01  0.39178007313E+02  0.91725738164E+02  0.12853842236E+03  0.80530480897E+02 0.  0.
         -6    2    1    2    0  501 -0.36734169936E+02  0.13450325962E+02  0.51771188299E+02  0.18529776208E+03  0.17356466859E+03 0.  0.
        -24    2    5    5    0    0 -0.42927221724E+01  0.20862047488E+02 -0.37728980767E+02  0.89695714966E+02  0.78537843137E+02 0.  0.
          5    1    3    3  502    0  0.46138443938E+02 -0.52628333275E+02 -0.16512565531E+01  0.70166331816E+02  0.47000000000E+01 0. -1.
        -13    1    4    4    0    0 -0.30481691211E+02  0.10607579169E+02  0.86910215847E+02  0.92709437780E+02  0.00000000000E+00 0.  1.
         14    1    4    4    0    0  0.21077417209E+02  0.28570428144E+02  0.48155223169E+01  0.35828984576E+02  0.00000000000E+00 0. -1.
         -5    1    5    5    0  501 -0.32441447763E+02 -0.74117215256E+01  0.89500169065E+02  0.95602047110E+02  0.47000000000E+01 0.  1.
         13    1    6    6    0    0 -0.37328574182E+02 -0.69098929948E+01 -0.14133203438E+02  0.40508227696E+02  0.00000000000E+00 0. -1.
        -14    1    6    6    0    0  0.33035852010E+02  0.27771940482E+02 -0.23595777329E+02  0.49187487270E+02  0.00000000000E+00 0.  1.
</event>
<event>
12    1  0.2576962E-002  0.2680236E+03  0.7818608E-02  0.1102416E+00
         -2   -1    0    0    0  501 -0.00000000000E+00  0.00000000000E+00  0.59318088011E+03  0.59318088011E+03  0.00000000000E+00 0.  1.
          2   -1    0    0  502    0  0.00000000000E+00 -0.00000000000E+00 -0.12319713442E+03  0.12319713442E+03  0.00000000000E+00 0. -1.
          6    2    1    2  502    0 -0.14638294408E+03  0.14491913777E+03  0.28141617590E+03  0.38841937871E+03  0.17101177411E+03 0.  0.
         24    2    3    3    0    0 -0.16348097469E+03  0.85640796048E+02  0.24439572533E+03  0.31631620118E+03  0.79159923820E+02 0.  0.
         -6    2    1    2    0  501  0.14638294408E+03 -0.14491913777E+03  0.18856756979E+03  0.32795863582E+03  0.17195817986E+03 0.  0.
        -24    2    5    5    0    0  0.38913333460E+02 -0.12572563089E+03  0.69902417391E+02  0.16664646545E+03  0.74588971754E+02 0.  0.
          5    1    3    3  502    0  0.17098030608E+02  0.59278341724E+02  0.37020450575E+02  0.72103177524E+02  0.47000000000E+01 0. -1.
        -13    1    4    4    0    0 -0.15008640551E+01 -0.98224984139E+01  0.27670381627E+02  0.29400409647E+02  0.00000000000E+00 0.  1.
         14    1    4    4    0    0 -0.16198011063E+03  0.95463294462E+02  0.21672534370E+03  0.28691579154E+03  0.00000000000E+00 0. -1.
         -5    1    5    5    0  501  0.10746961062E+03 -0.19193506881E+02  0.11866515240E+03  0.16131217036E+03  0.47000000000E+01 0.  1.
         13    1    6    6    0    0  0.29438343209E+02 -0.12753959217E+02  0.36208593220E+02  0.48377078763E+02  0.00000000000E+00 0. -1.
        -14    1    6    6    0    0  0.94749902507E+01 -0.11297167167E+03  0.33693824171E+02  0.11826938669E+03  0.00000000000E+00 0.  1.
</event>
<event>
12    1  0.2576962E-002  0.2295569E+03  0.7818608E-02  0.1126952E+00
         -1   -1    0    0    0  501 -0.00000000000E+00  0.00000000000E+00  0.33521236261E+03  0.33521236261E+03  0.00000000000E+00 0.  1.
          1   -1    0    0  502    0  0.00000000000E+00 -0.00000000000E+00 -0.17103018715E+03  0.17103018715E+03  0.00000000000E+00 0. -1.
          6    2    1    2  502    0  0.13673502155E+03  0.58028074218E+02  0.94752480266E+01  0.22769335023E+03  0.17231006325E+03 0.  0.
         24    2    3    3    0    0  0.15811927564E+03  0.75995402661E+02 -0.11598754783E+02  0.19239016612E+03  0.78118105139E+02 0.  0.
         -6    2    1    2    0  501 -0.13673502155E+03 -0.58028074218E+02  0.15470692744E+03  0.27854919952E+03  0.17774054023E+03 0.  0.
        -24    2    5    5    0    0 -0.59929507938E+02  0.10724474233E+02  0.10253478536E+02  0.10102486671E+03  0.79964552167E+02 0.  0.
          5    1    3    3  502    0 -0.21384254088E+02 -0.17967328444E+02  0.21074002809E+02  0.35303184116E+02  0.47000000000E+01 0. -1.
        -13    1    4    4    0    0  0.70368260122E+02  0.52427831504E+02  0.29621624413E+02  0.92616468200E+02  0.00000000000E+00 0.  1.
         14    1    4    4    0    0  0.87751015519E+02  0.23567571157E+02 -0.41220379195E+02  0.99773697917E+02  0.00000000000E+00 0. -1.
         -5    1    5    5    0  501 -0.76805513616E+02 -0.68752548451E+02  0.14445344890E+03  0.17752433281E+03  0.47000000000E+01 0.  1.
         13    1    6    6    0    0 -0.60767311505E+02  0.24895299250E+02 -0.19124230916E+02  0.68397209595E+02  0.00000000000E+00 0. -1.
        -14    1    6    6    0    0  0.83780356699E+00 -0.14170825017E+02  0.29377709451E+02  0.32627657119E+02  0.00000000000E+00 0.  1.
</event>
<event>
12    1  0.2576962E-002  0.1784416E+03  0.7818608E-02  0.1169320E+00
          2   -1    0    0  502    0  0.00000000000E+00  0.00000000000E+00  0.52949623355E+03  0.52949623355E+03  0.00000000000E+00 0. -1.
         -2   -1    0    0    0  501 -0.00000000000E+00 -0.00000000000E+00 -0.61170802961E+02  0.61170802961E+02  0.00000000000E+00 0.  1.
          6    2    1    2  502    0 -0.48729533567E+02 -0.39239943244E+01  0.19540182789E+03  0.26444295993E+03  0.17134246275E+03 0.  0.
         24    2    3    3    0    0 -0.96597933397E+02  0.15586367175E+02  0.14389244878E+03  0.19131742373E+03  0.79518703646E+02 0.  0.
         -6    2    1    2    0  501  0.48729533567E+02  0.39239943244E+01  0.27292360270E+03  0.32622407658E+03  0.17188627071E+03 0.  0.
        -24    2    5    5    0    0  0.50017901321E+02 -0.54019752312E+02  0.22765259080E+03  0.25253084633E+03  0.80784912948E+02 0.  0.
          5    1    3    3  502    0  0.47868399830E+02 -0.19510361499E+02  0.51509379112E+02  0.73125536201E+02  0.47000000000E+01 0. -1.
        -11    1    4    4    0    0 -0.89254953171E+02 -0.12309259484E+02  0.13265498540E+03  0.16035993791E+03  0.00000000000E+00 0.  1.
         12    1    4    4    0    0 -0.73429802257E+01  0.27895626659E+02  0.11237463379E+02  0.30957485823E+02  0.00000000000E+00 0. -1.
         -5    1    5    5    0  501 -0.12883677543E+01  0.57943746636E+02  0.45271011900E+02  0.73693230247E+02  0.47000000000E+01 0.  1.
         13    1    6    6    0    0  0.78382428018E+01 -0.98934695666E+01  0.16346468494E+03  0.16395127939E+03  0.00000000000E+00 0. -1.
        -14    1    6    6    0    0  0.42179658519E+02 -0.44126282745E+02  0.64187905858E+02  0.88579566945E+02  0.00000000000E+00 0.  1.
</event>
<event>
12    1  0.2576962E-002  0.1838509E+03  0.7818608E-02  0.1164127E+00
          2   -1    0    0  502    0  0.00000000000E+00  0.00000000000E+00  0.24752659090E+04  0.24752659090E+04  0.00000000000E+00 0.  1.
         -2   -1    0    0    0  501 -0.00000000000E+00 -0.00000000000E+00 -0.19474124098E+02  0.19474124098E+02  0.00000000000E+00 0. -1.
          6    2    1    2  502    0 -0.29176847972E+01 -0.66215042388E+02  0.54337060153E+03  0.57344639534E+03  0.17086899367E+03 0.  0.
         24    2    3    3    0    0  0.21387944021E+02 -0.10716303488E+03  0.42863917490E+03  0.44913673386E+03  0.77787552026E+02 0.  0.
         -6    2    1    2    0  501  0.29176847972E+01  0.66215042388E+02  0.19124211833E+04  0.19212936377E+04  0.17210902114E+03 0.  0.
        -24    2    5    5    0    0 -0.43325762617E+01 -0.55051848386E+00  0.15859863603E+04  0.15879889872E+04  0.79606620040E+02 0.  0.
          5    1    3    3  502    0 -0.24305628818E+02  0.40947992487E+02  0.11473142663E+03  0.12430966148E+03  0.47000000000E+01 0. -1.
        -11    1    4    4    0    0 -0.12243284643E+02  0.75548609936E+01  0.54210566483E+02  0.56087070363E+02  0.00000000000E+00 0.  1.
         12    1    4    4    0    0  0.33631228664E+02 -0.11471789587E+03  0.37442860842E+03  0.39304966350E+03  0.00000000000E+00 0. -1.
         -5    1    5    5    0  501  0.72502610589E+01  0.66765560872E+02  0.32643482298E+03  0.33330465052E+03  0.47000000000E+01 0.  1.
         11    1    6    6    0    0  0.61547204357E+01 -0.36613056873E+02  0.51108552776E+03  0.51243225231E+03  0.00000000000E+00 0. -1.
        -12    1    6    6    0    0 -0.10487296697E+02  0.36062538389E+02  0.10749008326E+04  0.10755567349E+04  0.00000000000E+00 0.  1.
</event>
<event>
12    1  0.2576962E-002  0.1766042E+03  0.7818608E-02  0.1171131E+00
          1   -1    0    0  502    0  0.00000000000E+00  0.00000000000E+00  0.20368360537E+03  0.20368360537E+03  0.00000000000E+00 0. -1.
         -1   -1    0    0    0  501 -0.00000000000E+00 -0.00000000000E+00 -0.36925419323E+03  0.36925419323E+03  0.00000000000E+00 0.  1.
          6    2    1    2  502    0  0.12802750460E+02 -0.38401389518E+02 -0.30196675728E+03  0.34986097626E+03  0.17198896206E+03 0.  0.
         24    2    3    3    0    0 -0.32176204099E+01 -0.86723935363E+02 -0.25491250866E+03  0.28037779101E+03  0.78102013887E+02 0.  0.
         -6    2    1    2    0  501 -0.12802750460E+02  0.38401389518E+02  0.13639616942E+03  0.22307682233E+03  0.17181611244E+03 0.  0.
        -24    2    5    5    0    0 -0.30878278455E+02  0.81234619077E+02  0.12960617931E+03  0.17585813713E+03  0.81091252685E+02 0.  0.
          5    1    3    3  502    0  0.16020370870E+02  0.48322545846E+02 -0.47054248625E+02  0.69483185257E+02  0.47000000000E+01 0. -1.
        -13    1    4    4    0    0 -0.55849573243E+01 -0.79923302714E+02 -0.25966892678E+03  0.27174781987E+03  0.00000000000E+00 0.  1.
         14    1    4    4    0    0  0.23673369144E+01 -0.68006326490E+01  0.47564181256E+01  0.86299711401E+01  0.00000000000E+00 0. -1.
         -5    1    5    5    0  501  0.18075527994E+02 -0.42833229559E+02  0.67899901077E+01  0.47218685204E+02  0.47000000000E+01 0.  1.
         11    1    6    6    0    0  0.19651626325E+02  0.10692228513E+02  0.61830379605E+02  0.65753372612E+02  0.00000000000E+00 0. -1.
        -12    1    6    6    0    0 -0.50529904780E+02  0.70542390564E+02  0.67775799706E+02  0.11010476452E+03  0.00000000000E+00 0.  1.
</event>
<event>
12    1  0.2576962E-002  0.2170993E+03  0.7818608E-02  0.1136064E+00
          2   -1    0    0  502    0  0.00000000000E+00  0.00000000000E+00  0.17075437405E+04  0.17075437405E+04  0.00000000000E+00 0. -1.
         -2   -1    0    0    0  501 -0.00000000000E+00 -0.00000000000E+00 -0.27996119411E+02  0.27996119411E+02  0.00000000000E+00 0.  1.
          6    2    1    2  502    0  0.13343760344E+03 -0.89165558601E+00  0.94443446540E+03  0.96916905346E+03  0.17183074719E+03 0.  0.
         24    2    3    3    0    0  0.10706027090E+03 -0.64046869607E+02  0.69050154555E+03  0.70613224517E+03  0.79160976182E+02 0.  0.
         -6    2    1    2    0  501 -0.13343760344E+03  0.89165558601E+00  0.73511315570E+03  0.76637080647E+03  0.17066479502E+03 0.  0.
        -24    2    5    5    0    0 -0.91476649272E+02  0.64711695775E+02  0.48871388860E+03  0.50836226391E+03  0.83876966595E+02 0.  0.
          5    1    3    3  502    0  0.26377332532E+02  0.63155214021E+02  0.25393291985E+03  0.26303680828E+03  0.47000000000E+01 0. -1.
        -13    1    4    4    0    0  0.30232021780E+02 -0.44612516636E+02  0.44267633398E+03  0.44594460244E+03  0.00000000000E+00 0.  1.
         14    1    4    4    0    0  0.76828249124E+02 -0.19434352972E+02  0.24782521158E+03  0.26018764273E+03  0.00000000000E+00 0. -1.
         -5    1    5    5    0  501 -0.41960954163E+02 -0.63820040189E+02  0.24639926711E+03  0.25800854256E+03  0.47000000000E+01 0.  1.
         13    1    6    6    0    0  0.14248511306E+02  0.18467545900E+02  0.11053585229E+03  0.11297010653E+03  0.00000000000E+00 0. -1.
        -14    1    6    6    0    0 -0.10572516058E+03  0.46244149875E+02  0.37817803630E+03  0.39539215738E+03  0.00000000000E+00 0.  1.
</event>
<event>
12    1  0.2576962E-002  0.1996061E+03  0.7818608E-02  0.1150072E+00
         -1   -1    0    0    0  501 -0.00000000000E+00  0.00000000000E+00  0.33850326384E+02  0.33850326384E+02  0.00000000000E+00 0.  1.
          1   -1    0    0  502    0  0.00000000000E+00 -0.00000000000E+00 -0.12030229652E+04  0.12030229652E+04  0.00000000000E+00 0. -1.
          6    2    1    2  502    0  0.39157693636E+02 -0.92710177690E+02 -0.67506684485E+03  0.70391556896E+03  0.17220157138E+03 0.  0.
         24    2    3    3    0    0 -0.95166060717E+01 -0.28901282322E+02 -0.19064382991E+03  0.21286719050E+03  0.89674528144E+02 0.  0.
         -6    2    1    2    0  501 -0.39157693636E+02  0.92710177690E+02 -0.49410579398E+03  0.53295772264E+03  0.17255403925E+03 0.  0.
        -24    2    5    5    0    0  0.28321382525E+02  0.98453607695E+02 -0.34907042530E+03  0.37282102829E+03  0.81548413501E+02 0.  0.
          5    1    3    3  502    0  0.48674299707E+02 -0.63808895369E+02 -0.48442301494E+03  0.49104837846E+03  0.47000000000E+01 0. -1.
        -11    1    4    4    0    0  0.16540285422E+02 -0.45881566406E+02 -0.16649467335E+03  0.17349113934E+03  0.00000000000E+00 0.  1.
         12    1    4    4    0    0 -0.26056891494E+02  0.16980284084E+02 -0.24149156558E+02  0.39376051152E+02  0.00000000000E+00 0. -1.
         -5    1    5    5    0  501 -0.67479076161E+02 -0.57434300048E+01 -0.14503536869E+03  0.16013669435E+03  0.47000000000E+01 0.  1.
         11    1    6    6    0    0  0.15146224637E+01  0.84204036489E+02 -0.15510463793E+03  0.17649380315E+03  0.00000000000E+00 0. -1.
        -12    1    6    6    0    0  0.26806760061E+02  0.14249571206E+02 -0.19396578737E+03  0.19632722515E+03  0.00000000000E+00 0.  1.
</event>
<event>
12    1  0.2576962E-002  0.1867766E+03  0.7818608E-02  0.1161401E+00
          2   -1    0    0  502    0  0.00000000000E+00  0.00000000000E+00  0.21189681451E+04  0.21189681451E+04  0.00000000000E+00 0.  1.
         -2   -1    0    0    0  501 -0.00000000000E+00 -0.00000000000E+00 -0.16740859456E+02  0.16740859456E+02  0.00000000000E+00 0. -1.
          6    2    1    2  502    0 -0.27371629450E+02  0.69722945757E+02  0.11737235019E+04  0.11880971190E+04  0.16833719184E+03 0.  0.
         24    2    3    3    0    0  0.15195203447E+02  0.10738556200E+02  0.97186030896E+03  0.97347668170E+03  0.52897815343E+02 0.  0.
         -6    2    1    2    0  501  0.27371629450E+02 -0.69722945757E+02  0.92850378377E+03  0.94761188551E+03  0.17389224776E+03 0.  0.
        -24    2    5    5    0    0 -0.36377375465E+02 -0.10927415776E+02  0.64585626285E+03  0.65192191095E+03  0.80181942232E+02 0.  0.
          5    1    3    3  502    0 -0.42566832897E+02  0.58984389557E+02  0.20186319291E+03  0.21462043734E+03  0.47000000000E+01 0. -1.
        -13    1    4    4    0    0  0.31471340551E+02 -0.47204223352E+01  0.68530651270E+03  0.68604500145E+03  0.00000000000E+00 0.  1.
         14    1    4    4    0    0 -0.16276137104E+02  0.15458978535E+02  0.28655379626E+03  0.28743168024E+03  0.00000000000E+00 0. -1.
         -5    1    5    5    0  501  0.63749004915E+02 -0.58795529981E+02  0.28264752092E+03  0.29568997456E+03  0.47000000000E+01 0.  1.
         11    1    6    6    0    0 -0.20326396897E+02 -0.16170917617E+02  0.55004458724E+02  0.60828870341E+02  0.00000000000E+00 0. -1.
        -12    1    6    6    0    0 -0.16050978568E+02  0.52435018411E+01  0.59085180412E+03  0.59109304061E+03  0.00000000000E+00 0.  1.
</event>
<event>
12    1  0.2576962E-002  0.1743601E+03  0.7818608E-02  0.1173376E+00
          2   -1    0    0  502    0  0.00000000000E+00  0.00000000000E+00  0.55424558737E+03  0.55424558737E+03  0.00000000000E+00 0.  1.
         -2   -1    0    0    0  501 -0.00000000000E+00 -0.00000000000E+00 -0.79922066187E+02  0.79922066187E+02  0.00000000000E+00 0. -1.
          6    2    1    2  502    0 -0.67412512881E+01  0.28607365507E+02  0.41451837170E+03  0.44959985284E+03  0.17161212477E+03 0.  0.
         24    2    3    3    0    0  0.40457370400E+02 -0.17444898025E+02  0.12707496179E+03  0.15465184935E+03  0.76341504477E+02 0.  0.
         -6    2    1    2    0  501  0.67412512881E+01 -0.28607365507E+02  0.59805149485E+02  0.18456780072E+03  0.17211853859E+03 0.  0.
        -24    2    5    5    0    0  0.45166124043E+02  0.90143304136E+01 -0.12202789251E+02  0.94572822572E+02  0.81693780607E+02 0.  0.
          5    1    3    3  502    0 -0.47198621688E+02  0.46052263532E+02  0.28744340991E+03  0.29494800349E+03  0.47000000000E+01 0. -1.
        -13    1    4    4    0    0  0.29723828744E+02 -0.27675393946E+02  0.13271287662E+03  0.13878811565E+03  0.00000000000E+00 0.  1.
         14    1    4    4    0    0  0.10733541656E+02  0.10230495921E+02 -0.56379148268E+01  0.15863733699E+02  0.00000000000E+00 0. -1.
         -5    1    5    5    0  501 -0.38424872755E+02 -0.37621695921E+02  0.72007938736E+02  0.89994978144E+02  0.47000000000E+01 0.  1.
         13    1    6    6    0    0  0.42843986223E+02 -0.10369506376E+02 -0.40721942700E+02  0.60011752476E+02  0.00000000000E+00 0. -1.
        -14    1    6    6    0    0  0.23221378198E+01  0.19383836790E+02  0.28519153449E+02  0.34561070096E+02  0.00000000000E+00 0.  1.
</event>
<event>
12    1  0.2576962E-002  0.2025120E+03  0.7818608E-02  0.1147637E+00
         -2   -1    0    0    0  501 -0.00000000000E+00  0.00000000000E+00  0.59330311701E+02  0.59330311701E+02  0.00000000000E+00 0. -1.
          2   -1    0    0  502    0  0.00000000000E+00 -0.00000000000E+00 -0.13853320500E+04  0.13853320500E+04  0.00000000000E+00 0.  1.
          6    2    1    2  502    0  0.19823980801E+01  0.10577425032E+03 -0.11745804491E+04  0.11919402384E+04  0.17288776282E+03 0.  0.
         24    2    3    3    0    0  0.35723666143E+02  0.82451513758E+02 -0.44132114851E+03  0.45751957206E+03  0.80531796551E+02 0.  0.
         -6    2    1    2    0  501 -0.19823980801E+01 -0.10577425032E+03 -0.15142128916E+03  0.25272212328E+03  0.17247591963E+03 0.  0.
        -24    2    5    5    0    0  0.62758293982E+02 -0.75631880462E+02 -0.12177482783E+03  0.17525650292E+03  0.78911015177E+02 0.  0.
          5    1    3    3  502    0 -0.33741268063E+02  0.23322736559E+02 -0.73325930062E+03  0.73442066635E+03  0.47000000000E+01 0. -1.
        -11    1    4    4    0    0 -0.26057216204E+02  0.26075502917E+02 -0.14622161283E+03  0.15079678520E+03  0.00000000000E+00 0.  1.
         12    1    4    4    0    0  0.61780882347E+02  0.56376010841E+02 -0.29509953568E+03  0.30672278686E+03  0.00000000000E+00 0. -1.
         -5    1    5    5    0  501 -0.64740692063E+02 -0.30142369854E+02 -0.29646461335E+02  0.77465620367E+02  0.47000000000E+01 0.  1.
         11    1    6    6    0    0  0.51566072664E+02 -0.92049504225E+02 -0.95471823882E+02  0.14229209477E+03  0.00000000000E+00 0. -1.
        -12    1    6    6    0    0  0.11192221318E+02  0.16417623763E+02 -0.26303003946E+02  0.32964408149E+02  0.00000000000E+00 0.  1.
</event>
<event>
12    1  0.2576962E-002  0.1809699E+03  0.7818608E-02  0.1166868E+00
          2   -1    0    0  502    0  0.00000000000E+00  0.00000000000E+00  0.11261020876E+04  0.11261020876E+04  0.00000000000E+00 0. -1.
         -2   -1    0    0    0  501 -0.00000000000E+00 -0.00000000000E+00 -0.29584231483E+02  0.29584231483E+02  0.00000000000E+00 0.  1.
          6    2    1    2  502    0 -0.56259883721E+02 -0.15080414103E+01  0.47541471845E+03  0.50897550682E+03  0.17282784301E+03 0.  0.
         24    2    3    3    0    0 -0.50643374132E+02  0.51009645444E+02  0.41547134188E+03  0.42894456901E+03  0.78805279564E+02 0.  0.
         -6    2    1    2    0  501  0.56259883721E+02  0.15080414103E+01  0.62110313770E+03  0.64671081229E+03  0.17116751553E+03 0.  0.
        -24    2    5    5    0    0  0.82721258600E+02  0.47826883900E+02  0.46863858713E+03  0.48511511709E+03  0.81143909371E+02 0.  0.
          5    1    3    3  502    0 -0.56165095894E+01 -0.52517686854E+02  0.59943376569E+02  0.80030937811E+02  0.47000000000E+01 0. -1.
        -13    1    4    4    0    0  0.17974277203E+02  0.21136026980E+02  0.17223389077E+03  0.17445434763E+03  0.00000000000E+00 0.  1.
         14    1    4    4    0    0 -0.68617651335E+02  0.29873618465E+02  0.24323745111E+03  0.25449022138E+03  0.00000000000E+00 0. -1.
         -5    1    5    5    0  501 -0.26461374879E+02 -0.46318842490E+02  0.15246455056E+03  0.16159569520E+03  0.47000000000E+01 0.  1.
         13    1    6    6    0    0  0.12118861212E+02  0.49854276489E+02  0.25478079435E+03  0.25989530363E+03  0.00000000000E+00 0. -1.
        -14    1    6    6    0    0  0.70602397388E+02 -0.20273925886E+01  0.21385779278E+03  0.22521981345E+03  0.00000000000E+00 0.  1.
</event>
<event>
12    1  0.2576962E-002  0.1805927E+03  0.7818608E-02  0.1167231E+00
         -1   -1    0    0    0  501 -0.00000000000E+00  0.00000000000E+00  0.11624358547E+02  0.11624358547E+02  0.00000000000E+00 0. -1.
          1   -1    0    0  502    0  0.00000000000E+00 -0.00000000000E+00 -0.28065206844E+04  0.28065206844E+04  0.00000000000E+00 0.  1.
          6    2    1    2  502    0  0.49587427568E+02 -0.11940194028E+02 -0.13923168618E+04  0.14036528157E+04  0.17056817478E+03 0.  0.
         24    2    3    3    0    0  0.70695348646E+02  0.35449139195E+02 -0.64407375661E+03  0.65359873255E+03  0.78139781442E+02 0.  0.
         -6    2    1    2    0  501 -0.49587427568E+02  0.11940194028E+02 -0.14025794641E+04  0.14144922272E+04  0.17594779528E+03 0.  0.
        -24    2    5    5    0    0 -0.69564787979E+02  0.18372731236E+02 -0.13768513613E+04  0.13809586957E+04  0.78424684858E+02 0.  0.
          5    1    3    3  502    0 -0.21107921078E+02 -0.47389333223E+02 -0.74824310519E+03  0.75005408319E+03  0.47000000000E+01 0. -1.
        -13    1    4    4    0    0  0.69520549205E+02  0.44361874820E+02 -0.63656719630E+03  0.64188696676E+03  0.00000000000E+00 0.  1.
         14    1    4    4    0    0  0.11747994404E+01 -0.89127356245E+01 -0.75065603126E+01  0.11711765783E+02  0.00000000000E+00 0. -1.
         -5    1    5    5    0  501  0.19977360411E+02 -0.64325372082E+01 -0.25728102799E+02  0.33533531540E+02  0.47000000000E+01 0.  1.
         11    1    6    6    0    0 -0.66553929275E+01 -0.24490933102E+02 -0.19286327071E+03  0.19452593978E+03  0.00000000000E+00 0. -1.
        -12    1    6    6    0    0 -0.62909395051E+02  0.42863664338E+02 -0.11839880906E+04  0.11864327559E+04  0.00000000000E+00 0.  1.
</event>
<event>
12    1  0.2576962E-002  0.2248054E+03  0.7818608E-02  0.1130350E+00
          1   -1    0    0  502    0  0.00000000000E+00  0.00000000000E+00  0.10016976439E+04  0.10016976439E+04  0.00000000000E+00 0. -1.
         -1   -1    0    0    0  501 -0.00000000000E+00 -0.00000000000E+00 -0.77537782850E+02  0.77537782850E+02  0.00000000000E+00 0.  1.
          6    2    1    2  502    0  0.21750460311E+02 -0.14209365920E+03  0.14300544003E+03  0.26634747561E+03  0.17270417300E+03 0.  0.
         24    2    3    3    0    0 -0.26782938830E+02 -0.10730017281E+03  0.32199746189E+02  0.14038688925E+03  0.80255854124E+02 0.  0.
         -6    2    1    2    0  501 -0.21750460311E+02  0.14209365920E+03  0.78115442098E+03  0.81288795110E+03  0.17297659127E+03 0.  0.
        -24    2    5    5    0    0 -0.52106039152E+02  0.14223340106E+03  0.45376497908E+03  0.48406061441E+03  0.73936746513E+02 0.  0.
          5    1    3    3  502    0  0.48533399141E+02 -0.34793486399E+02  0.11080569384E+03  0.12596058636E+03  0.47000000000E+01 0. -1.
        -11    1    4    4    0    0 -0.39699802543E+02 -0.67908867072E+02  0.52152580192E+02  0.94379977588E+02  0.00000000000E+00 0.  1.
         12    1    4    4    0    0  0.12916863713E+02 -0.39391305734E+02 -0.19952834002E+02  0.46006911658E+02  0.00000000000E+00 0. -1.
         -5    1    5    5    0  501  0.30355578842E+02 -0.13974185757E+00  0.32738944190E+03  0.32882733670E+03  0.47000000000E+01 0.  1.
         13    1    6    6    0    0 -0.55633575384E+02  0.51164386941E+02  0.17068559103E+03  0.18667206590E+03  0.00000000000E+00 0. -1.
        -14    1    6    6    0    0  0.35275362315E+01  0.91069014121E+02  0.28307938805E+03  0.29738854851E+03  0.00000000000E+00 0.  1.
</event>
<event>
12    1  0.2576962E-002  0.2272070E+03  0.7818608E-02  0.1128621E+00
         -2   -1    0    0    0  501 -0.00000000000E+00  0.00000000000E+00  0.20526029122E+04  0.20526029122E+04  0.00000000000E+00 0.  1.
          2   -1    0    0  502    0  0.00000000000E+00 -0.00000000000E+00 -0.54412537588E+02  0.54412537588E+02  0.00000000000E+00 0. -1.
          6    2    1    2  502    0 -0.11659146785E+03 -0.91892221196E+02  0.17714150177E+04  0.17859103862E+04  0.17183419950E+03 0.  0.
         24    2    3    3    0    0 -0.27548347804E+02 -0.59397576330E+02  0.38828056817E+03  0.39952386921E+03  0.67605760923E+02 0.  0.
         -6    2    1    2    0  501  0.11659146785E+03  0.91892221196E+02  0.22677535692E+03  0.32110506354E+03  0.17217330987E+03 0.  0.
        -24    2    5    5    0    0  0.12697989559E+03  0.70609077464E+02  0.24133383348E+03  0.29291054497E+03  0.80280959538E+02 0.  0.
          5    1    3    3  502    0 -0.89043120043E+02 -0.32494644866E+02  0.13831344495E+04  0.13863865170E+04  0.47000000000E+01 0. -1.
        -11    1    4    4    0    0 -0.30972189082E+02 -0.53479748530E+02  0.38777440761E+03  0.39266824572E+03  0.00000000000E+00 0.  1.
         12    1    4    4    0    0  0.34238412780E+01 -0.59178277991E+01  0.50616056184E+00  0.68556234925E+01  0.00000000000E+00 0. -1.
         -5    1    5    5    0  501 -0.10388427747E+02  0.21283143732E+02 -0.14558476556E+02  0.28194518577E+02  0.47000000000E+01 0.  1.
         13    1    6    6    0    0  0.30778156943E+02  0.10403889764E+02  0.80270304846E+01  0.33465939183E+02  0.00000000000E+00 0. -1.
        -14    1    6    6    0    0  0.96201738651E+02  0.60205187700E+02  0.23330680300E+03  0.25944460578E+03  0.00000000000E+00 0.  1.
</event>
<event>
12    1  0.2576962E-002  0.2199154E+03  0.7818608E-02  0.1133946E+00
         -2   -1    0    0    0  501 -0.00000000000E+00  0.00000000000E+00  0.23409292639E+03  0.23409292639E+03  0.00000000000E+00 0.  1.
          2   -1    0    0  502    0  0.00000000000E+00 -0.00000000000E+00 -0.20873542840E+03  0.20873542840E+03  0.00000000000E+00 0. -1.
          6    2    1    2  502    0 -0.13186952958E+03 -0.35414508889E+02 -0.97696839258E+01  0.21871585549E+03  0.17057965426E+03 0.  0.
         24    2    3    3    0    0 -0.13247878859E+03 -0.65626538588E+02  0.26671621978E+02  0.17114278842E+03  0.81981745620E+02 0.  0.
         -6    2    1    2    0  501  0.13186952958E+03  0.35414508889E+02  0.35127181913E+02  0.22411249929E+03  0.17420887795E+03 0.  0.
        -24    2    5    5    0    0  0.12591244816E+02 -0.72224369552E+01  0.50371257233E+02  0.96442259216E+02  0.80951484026E+02 0.  0.
          5    1    3    3  502    0  0.60925900507E+00  0.30212029699E+02 -0.36441305904E+02  0.47573067076E+02  0.47000000000E+01 0. -1.
        -13    1    4    4    0    0 -0.16799231394E+02 -0.48578891519E+02  0.91034491171E+00  0.51409645054E+02  0.00000000000E+00 0.  1.
         14    1    4    4    0    0 -0.11567955720E+03 -0.17047647069E+02  0.25761277066E+02  0.11973314336E+03  0.00000000000E+00 0. -1.
         -5    1    5    5    0  501  0.11927828477E+03  0.42636945844E+02 -0.15244075320E+02  0.12767024007E+03  0.47000000000E+01 0.  1.
         13    1    6    6    0    0  0.44661697874E+02 -0.10768296802E+00  0.12643287822E+02  0.46416932035E+02  0.00000000000E+00 0. -1.
        -14    1    6    6    0    0 -0.32070453059E+02 -0.71147539872E+01  0.37727969411E+02  0.50025327181E+02  0.00000000000E+00 0.  1.
</event>
<event>
12    1  0.2576962E-002  0.1742515E+03  0.7818608E-02  0.1173485E+00
         -2   -1    0    0    0  501 -0.00000000000E+00  0.00000000000E+00  0.53997297078E+02  0.53997297078E+02  0.00000000000E+00 0. -1.
          2   -1    0    0  502    0  0.00000000000E+00 -0.00000000000E+00 -0.12724034464E+04  0.12724034464E+04  0.00000000000E+00 0.  1.
          6    2    1    2  502    0 -0.25921909778E+02  0.71000791215E+01 -0.11038775477E+04  0.11174696259E+04  0.17166935687E+03 0.  0.
         24    2    3    3    0    0 -0.76669645307E+02  0.17037909778E+02 -0.72139447766E+03  0.73147806904E+03  0.92095864259E+02 0.  0.
         -6    2    1    2    0  501  0.25921909778E+02 -0.71000791215E+01 -0.11452860167E+03  0.20893111757E+03  0.17266457297E+03 0.  0.
        -24    2    5    5    0    0  0.58329449115E+02 -0.29725954262E+02 -0.13205902187E+03  0.16543876809E+03  0.75129513101E+02 0.  0.
          5    1    3    3  502    0  0.50747735529E+02 -0.99378306561E+01 -0.38248307000E+03  0.38599155687E+03  0.47000000000E+01 0. -1.
        -11    1    4    4    0    0 -0.62523354057E+02  0.50205106306E+02 -0.58189232689E+03  0.58739118362E+03  0.00000000000E+00 0.  1.
         12    1    4    4    0    0 -0.14146291250E+02 -0.33167196528E+02 -0.13950215077E+03  0.14408688542E+03  0.00000000000E+00 0. -1.
         -5    1    5    5    0  501 -0.32407539337E+02  0.22625875140E+02  0.17530420194E+02  0.43492349487E+02  0.47000000000E+01 0.  1.
         11    1    6    6    0    0  0.25515825975E+02 -0.53276090890E+02 -0.83404207760E+02  0.10220401708E+03  0.00000000000E+00 0. -1.
        -12    1    6    6    0    0  0.32813623140E+02  0.23550136628E+02 -0.48654814106E+02  0.63234751004E+02  0.00000000000E+00 0.  1.
</event>
<event>
12    1  0.2576962E-002  0.1908131E+03  0.7818608E-02  0.1157730E+00
         -2   -1    0    0    0  501 -0.00000000000E+00  0.00000000000E+00  0.33383909317E+02  0.33383909317E+02  0.00000000000E+00 0. -1.
          2   -1    0    0  502    0  0.00000000000E+00 -0.00000000000E+00 -0.11783609883E+04  0.11783609883E+04  0.00000000000E+00 0.  1.
          6    2    1    2  502    0  0.49456827129E+02 -0.70315967249E+02 -0.73467479590E+03  0.75877174272E+03  0.16910703360E+03 0.  0.
         24    2    3    3    0    0 -0.33461173566E+02 -0.37312477860E+02 -0.46012777573E+03  0.47004560702E+03  0.81935532816E+02 0.  0.
         -6    2    1    2    0  501 -0.49456827129E+02  0.70315967249E+02 -0.41030228304E+03  0.45297315485E+03  0.17159954124E+03 0.  0.
        -24    2    5    5    0    0 -0.92783647862E+02  0.26724709973E+02 -0.28073102547E+03  0.30948722560E+03  0.87460955380E+02 0.  0.
          5    1    3    3  502    0  0.82918000696E+02 -0.33003489389E+02 -0.27454702017E+03  0.28872613570E+03  0.47000000000E+01 0. -1.
        -13    1    4    4    0    0 -0.16316878204E+02 -0.35028267229E+02 -0.44611573647E+03  0.44778618820E+03  0.00000000000E+00 0.  1.
         14    1    4    4    0    0 -0.17144295363E+02 -0.22842106309E+01 -0.14012039257E+02  0.22259418812E+02  0.00000000000E+00 0. -1.
         -5    1    5    5    0  501  0.43326820733E+02  0.43591257276E+02 -0.12957125757E+03  0.14348592925E+03  0.47000000000E+01 0.  1.
         11    1    6    6    0    0  0.83619313335E+01  0.26836779275E+02 -0.46263017050E+02  0.54133181729E+02  0.00000000000E+00 0. -1.
        -12    1    6    6    0    0 -0.10114557920E+03 -0.11206930229E+00 -0.23446800842E+03  0.25535404387E+03  0.00000000000E+00 0.  1.
</event>
<event>
12    1  0.2576962E-002  0.1960545E+03  0.7818608E-02  0.1153111E+00
         -2   -1    0    0    0  501 -0.00000000000E+00  0.00000000000E+00  0.26775856595E+02  0.26775856595E+02  0.00000000000E+00 0. -1.
          2   -1    0    0  502    0  0.00000000000E+00 -0.00000000000E+00 -0.22622765213E+04  0.22622765213E+04  0.00000000000E+00 0.  1.
          6    2    1    2  502    0  0.74897463759E+02 -0.70454205907E+02 -0.17930579675E+04  0.18032699083E+04  0.16171599236E+03 0.  0.
         24    2    3    3    0    0  0.32323601797E+02  0.52124459750E+01 -0.48854199260E+03  0.49585949276E+03  0.78303085469E+02 0.  0.
         -6    2    1    2    0  501 -0.74897463759E+02  0.70454205907E+02 -0.44244269720E+03  0.48578246958E+03  0.17220813640E+03 0.  0.
        -24    2    5    5    0    0 -0.62109019053E+02 -0.22732551026E+02 -0.27407356601E+03  0.29286391079E+03  0.79237942546E+02 0.  0.
          5    1    3    3  502    0  0.42573861962E+02 -0.75666651882E+02 -0.13045159749E+04  0.13074104155E+04  0.47000000000E+01 0. -1.
        -11    1    4    4    0    0  0.37484545536E+02 -0.30756612956E+02 -0.28742401312E+03  0.29148520325E+03  0.00000000000E+00 0.  1.
         12    1    4    4    0    0 -0.51609437395E+01  0.35969058931E+02 -0.20111797948E+03  0.20437428951E+03  0.00000000000E+00 0. -1.
         -5    1    5    5    0  501 -0.12788444705E+02  0.93186756933E+02 -0.16836913119E+03  0.19291855879E+03  0.47000000000E+01 0.  1.
         11    1    6    6    0    0 -0.49427231329E+02 -0.56179584686E+01 -0.26513840537E+03  0.26976468756E+03  0.00000000000E+00 0. -1.
        -12    1    6    6    0    0 -0.12681787724E+02 -0.17114592557E+02 -0.89351606359E+01  0.23099223231E+02  0.00000000000E+00 0.  1.
</event>
<event>
12    1  0.2576962E-002  0.2129210E+03  0.7818608E-02  0.1139273E+00
          1   -1    0    0  502    0  0.00000000000E+00  0.00000000000E+00  0.28338889151E+04  0.28338889151E+04  0.00000000000E+00 0.  1.
         -1   -1    0    0    0  501 -0.00000000000E+00 -0.00000000000E+00 -0.16017377927E+02  0.16017377927E+02  0.00000000000E+00 0. -1.
          6    2    1    2  502    0 -0.12431752385E+03 -0.20310272550E+02  0.14597890630E+04  0.14752521105E+04  0.17180607388E+03 0.  0.
         24    2    3    3    0    0 -0.14216647476E+03 -0.38649928660E+02  0.14003753788E+04  0.14103906896E+04  0.80284322543E+02 0.  0.
         -6    2    1    2    0  501  0.12431752385E+03  0.20310272550E+02  0.13580824742E+04  0.13746541826E+04  0.17151898180E+03 0.  0.
        -24    2    5    5    0    0  0.45547153990E+02 -0.26755634746E+02  0.10110751251E+04  0.10156887788E+04  0.80996170033E+02 0.  0.
          5    1    3    3  502    0  0.17848950911E+02  0.18339656110E+02  0.59413684254E+02  0.64861420826E+02  0.47000000000E+01 0. -1.
        -11    1    4    4    0    0 -0.10551567458E+03  0.10865147761E+02  0.90962917827E+03  0.91579301754E+03  0.00000000000E+00 0.  1.
         12    1    4    4    0    0 -0.36650800185E+02 -0.49515076422E+02  0.49074620049E+03  0.49459767210E+03  0.00000000000E+00 0. -1.
         -5    1    5    5    0  501  0.78770369861E+02  0.47065907296E+02  0.34700734904E+03  0.35896540374E+03  0.47000000000E+01 0.  1.
         11    1    6    6    0    0  0.35224601528E+02 -0.71658965762E+01  0.14704206183E+03  0.15137202705E+03  0.00000000000E+00 0. -1.
        -12    1    6    6    0    0  0.10322552461E+02 -0.19589738169E+02  0.86403306330E+03  0.86431675178E+03  0.00000000000E+00 0.  1.
</event>
<event>
12    1  0.2576962E-002  0.1678873E+03  0.7818608E-02  0.1180069E+00
         -1   -1    0    0    0  501 -0.00000000000E+00  0.00000000000E+00  0.20146827009E+03  0.20146827009E+03  0.00000000000E+00 0.  1.
          1   -1    0    0  502    0  0.00000000000E+00 -0.00000000000E+00 -0.27885002771E+03  0.27885002771E+03  0.00000000000E+00 0. -1.
          6    2    1    2  502    0 -0.21990140727E+01  0.37030510177E+02 -0.20640670082E+03  0.25951532274E+03  0.15286720462E+03 0.  0.
         24    2    3    3    0    0 -0.48199919588E+02  0.49484834325E+02 -0.11230596406E+03  0.15393013365E+03  0.79434724167E+02 0.  0.
         -6    2    1    2    0  501  0.21990140727E+01 -0.37030510177E+02  0.12902494320E+03  0.22080297505E+03  0.17530095116E+03 0.  0.
        -24    2    5    5    0    0  0.23053707261E+02 -0.59034498941E+02  0.15164434685E+03  0.18268708373E+03  0.79762253912E+02 0.  0.
          5    1    3    3  502    0  0.46000905515E+02 -0.12454324148E+02 -0.94100736754E+02  0.10558518909E+03  0.47000000000E+01 0. -1.
        -13    1    4    4    0    0 -0.39324497249E+02  0.12508886375E+02 -0.68539049744E+01  0.41831379796E+02  0.00000000000E+00 0.  1.
         14    1    4    4    0    0 -0.88754223390E+01  0.36975947950E+02 -0.10545205909E+03  0.11209875385E+03  0.00000000000E+00 0. -1.
         -5    1    5    5    0  501 -0.20854693189E+02  0.22003988763E+02 -0.22619403650E+02  0.38115891318E+02  0.47000000000E+01 0.  1.
         13    1    6    6    0    0  0.18615362836E+02  0.51977591597E+01  0.94953431540E+02  0.96900477786E+02  0.00000000000E+00 0. -1.
        -14    1    6    6    0    0  0.44383444256E+01 -0.64232258100E+02  0.56690915306E+02  0.85786605949E+02  0.00000000000E+00 0.  1.
</event>
<event>
12    1  0.2576962E-002  0.2090926E+03  0.7818608E-02  0.1142287E+00
          1   -1    0    0  502    0  0.00000000000E+00  0.00000000000E+00  0.20569402843E+04  0.20569402843E+04  0.00000000000E+00 0. -1.
         -1   -1    0    0    0  501 -0.00000000000E+00 -0.00000000000E+00 -0.28480016314E+02  0.28480016314E+02  0.00000000000E+00 0.  1.
          6    2    1    2  502    0  0.36078563255E+02  0.12342804164E+03  0.15568593035E+04  0.15715142126E+04  0.17120130103E+03 0.  0.
         24    2    3    3    0    0  0.53507446956E+02  0.12215320788E+02  0.87450409551E+03  0.87991985528E+03  0.80556053272E+02 0.  0.
         -6    2    1    2    0  501 -0.36078563255E+02 -0.12342804164E+03  0.47160096454E+03  0.51390608801E+03  0.15860596885E+03 0.  0.
        -24    2    5    5    0    0  0.23028110299E+02 -0.43315231370E+02  0.31135828355E+03  0.32519607758E+03  0.80012530303E+02 0.  0.
          5    1    3    3  502    0 -0.17428883701E+02  0.11121272086E+03  0.68235520798E+03  0.69159435735E+03  0.47000000000E+01 0. -1.
        -13    1    4    4    0    0  0.58947934755E+01 -0.79172661372E+01  0.10651511581E+02  0.14521927977E+02  0.00000000000E+00 0.  1.
         14    1    4    4    0    0  0.47612653481E+02  0.20132586925E+02  0.86385258393E+03  0.86539792730E+03  0.00000000000E+00 0. -1.
         -5    1    5    5    0  501 -0.59106673554E+02 -0.80112810274E+02  0.16024268099E+03  0.18871001043E+03  0.47000000000E+01 0.  1.
         13    1    6    6    0    0  0.12887342261E+02 -0.47925297955E+02  0.31003086293E+03  0.31397779180E+03  0.00000000000E+00 0. -1.
        -14    1    6    6    0    0  0.10140768038E+02  0.46100665847E+01  0.13274206192E+01  0.11218285779E+02  0.00000000000E+00 0.  1.
</event>
<event>
12    1  0.2576962E-002  0.2613537E+03  0.7818608E-02  0.1106333E+00
         -2   -1    0    0    0  501 -0.00000000000E+00  0.00000000000E+00  0.12787497013E+03  0.12787497013E+03  0.00000000000E+00 0.  1.
          2   -1    0    0  502    0  0.00000000000E+00 -0.00000000000E+00 -0.62381914302E+03  0.62381914302E+03  0.00000000000E+00 0. -1.
          6    2    1    2  502    0 -0.51370151032E+02  0.18965806175E+03 -0.39021321190E+03  0.46948274411E+03  0.17186804088E+03 0.  0.
         24    2    3    3    0    0  0.15101716713E+02  0.12476488116E+03 -0.14969111507E+03  0.21160175770E+03  0.81077348958E+02 0.  0.
         -6    2    1    2    0  501  0.51370151032E+02 -0.18965806175E+03 -0.10573096100E+03  0.28221136903E+03  0.17278642277E+03 0.  0.
        -24    2    5    5    0    0  0.15826960256E+02 -0.15935162780E+03 -0.12292732099E+02  0.17764277447E+03  0.75910540143E+02 0.  0.
          5    1    3    3  502    0 -0.66471867745E+02  0.64893180594E+02 -0.24052209683E+03  0.25788098641E+03  0.47000000000E+01 0. -1.
        -13    1    4    4    0    0  0.47376724270E+02  0.81402412291E+02 -0.10825305339E+03  0.14349087183E+03  0.00000000000E+00 0.  1.
         14    1    4    4    0    0 -0.32275007557E+02  0.43362468867E+02 -0.41438061678E+02  0.68110885875E+02  0.00000000000E+00 0. -1.
         -5    1    5    5    0  501  0.35543190776E+02 -0.30306433949E+02 -0.93438228898E+02  0.10456859456E+03  0.47000000000E+01 0.  1.
         13    1    6    6    0    0 -0.13708074694E+02 -0.86822444005E+01 -0.17698116799E+02  0.24010747965E+02  0.00000000000E+00 0. -1.
        -14    1    6    6    0    0  0.29535034950E+02 -0.15066938340E+03  0.54053847003E+01  0.15363202651E+03  0.00000000000E+00 0.  1.
</event>
<event>
12    1  0.2576962E-002  0.2906064E+03  0.7818608E-02  0.1090033E+00
         -2   -1    0    0    0  501 -0.00000000000E+00  0.00000000000E+00  0.15273850579E+03  0.15273850579E+03  0.00000000000E+00 0. -1.
          2   -1    0    0  502    0  0.00000000000E+00 -0.00000000000E+00 -0.58359814697E+03  0.58359814697E+03  0.00000000000E+00 0.  1.
          6    2    1    2  502    0 -0.18988914392E+03 -0.13695191071E+03 -0.29993126392E+03  0.41771309327E+03  0.17237097316E+03 0.  0.
         24    2    3    3    0    0 -0.89133984276E+02 -0.29740793565E+01 -0.15834632930E+03  0.19823634006E+03  0.79185694513E+02 0.  0.
         -6    2    1    2    0  501  0.18988914392E+03  0.13695191071E+03 -0.13092837726E+03  0.31862355949E+03  0.17194481633E+03 0.  0.
        -24    2    5    5    0    0  0.88671271633E+02  0.13966908530E+03 -0.90558718771E+02  0.20951700590E+03  0.91249363926E+02 0.  0.
          5    1    3    3  502    0 -0.10075515965E+03 -0.13397783136E+03 -0.14158493462E+03  0.21947675322E+03  0.47000000000E+01 0. -1.
        -11    1    4    4    0    0 -0.53652064997E+02  0.24647237694E+02 -0.39156616284E+02  0.70846813642E+02  0.00000000000E+00 0.  1.
         12    1    4    4    0    0 -0.35481919278E+02 -0.27621317050E+02 -0.11918971302E+03  0.12738952642E+03  0.00000000000E+00 0. -1.
         -5    1    5    5    0  501  0.10121787229E+03 -0.27171745829E+01 -0.40369658489E+02  0.10910655358E+03  0.47000000000E+01 0.  1.
         11    1    6    6    0    0 -0.16194363570E+02  0.13392712999E+02  0.19439242499E+01  0.21104525922E+02  0.00000000000E+00 0. -1.
        -12    1    6    6    0    0  0.10486563520E+03  0.12627637230E+03 -0.92502643021E+02  0.18841247998E+03  0.00000000000E+00 0.  1.
</event>
<event>
12    1  0.2576962E-002  0.1848661E+03  0.7818608E-02  0.1163175E+00
         -2   -1    0    0    0  501 -0.00000000000E+00  0.00000000000E+00  0.12306830651E+03  0.12306830651E+03  0.00000000000E+00 0. -1.
          2   -1    0    0  502    0  0.00000000000E+00 -0.00000000000E+00 -0.28644019231E+03  0.28644019231E+03  0.00000000000E+00 0.  1.
          6    2    1    2  502    0  0.68537017294E+02 -0.18331341822E+02 -0.46276705768E+02  0.19137710784E+03  0.17161090605E+03 0.  0.
         24    2    3    3    0    0  0.53714575299E+02  0.15638448390E+02 -0.90814676431E+02  0.13324473936E+03  0.79856361329E+02 0.  0.
         -6    2    1    2    0  501 -0.68537017294E+02  0.18331341822E+02 -0.11709518003E+03  0.21813139098E+03  0.16981360873E+03 0.  0.
        -24    2    5    5    0    0 -0.10653586147E+02 -0.35474628986E+02 -0.10733190449E+03  0.13836306615E+03  0.79071184089E+02 0.  0.
          5    1    3    3  502    0  0.14822441996E+02 -0.33969790212E+02  0.44537970663E+02  0.58132368476E+02  0.47000000000E+01 0. -1.
        -11    1    4    4    0    0  0.58207970710E+02  0.39396873628E+01 -0.20524493951E+02  0.61846130377E+02  0.00000000000E+00 0.  1.
         12    1    4    4    0    0 -0.44933954111E+01  0.11698761027E+02 -0.70290182479E+02  0.71398608984E+02  0.00000000000E+00 0. -1.
         -5    1    5    5    0  501 -0.57883431147E+02  0.53805970808E+02 -0.97632755408E+01  0.79768324824E+02  0.47000000000E+01 0.  1.
         13    1    6    6    0    0  0.10506753513E+02 -0.31636487280E+02 -0.48949661176E+01  0.33693024353E+02  0.00000000000E+00 0. -1.
        -14    1    6    6    0    0 -0.21160339660E+02 -0.38381417064E+01 -0.10243693838E+03  0.10467004180E+03  0.00000000000E+00 0.  1.
</event>
<event>
12    1  0.2576962E-002  0.2697462E+03  0.7818608E-02  0.1101425E+00
          1   -1    0    0  502    0  0.00000000000E+00  0.00000000000E+00  0.13607014138E+04  0.13607014138E+04  0.00000000000E+00 0.  1.
         -1   -1    0    0    0  501 -0.00000000000E+00 -0.00000000000E+00 -0.54227541973E+02  0.54227541973E+02  0.00000000000E+00 0. -1.
          6    2    1    2  502    0  0.91816884479E+02  0.18600556197E+03  0.73493551660E+03  0.78263829261E+03  0.17135948802E+03 0.  0.
         24    2    3    3    0    0  0.10501057949E+03  0.11273925894E+03  0.33658029972E+03  0.37735938424E+03  0.73324241587E+02 0.  0.
         -6    2    1    2    0  501 -0.91816884479E+02 -0.18600556197E+03  0.57153835518E+03  0.63229066312E+03  0.17351363598E+03 0.  0.
        -24    2    5    5    0    0 -0.82750556608E+02 -0.19095543583E+03  0.57620862785E+03  0.62001870325E+03  0.95368634673E+02 0.  0.
          5    1    3    3  502    0 -0.13193695014E+02  0.73266303023E+02  0.39835521689E+03  0.40527890837E+03  0.47000000000E+01 0. -1.
        -13    1    4    4    0    0  0.14395916356E+02  0.62493243710E+02  0.96396333707E+02  0.11577953649E+03  0.00000000000E+00 0.  1.
         14    1    4    4    0    0  0.90614663137E+02  0.50246015234E+02  0.24018396601E+03  0.26157984775E+03  0.00000000000E+00 0. -1.
         -5    1    5    5    0  501 -0.90663278712E+01  0.49498738599E+01 -0.46702726696E+01  0.12271959872E+02  0.47000000000E+01 0.  1.
         11    1    6    6    0    0  0.10552742651E+02 -0.63780844149E+02  0.10705928168E+03  0.12506416853E+03  0.00000000000E+00 0. -1.
        -12    1    6    6    0    0 -0.93303299258E+02 -0.12717459168E+03  0.46914934618E+03  0.49495453472E+03  0.00000000000E+00 0.  1.
</event>
<event>
12    1  0.2576962E-002  0.2487275E+03  0.7818608E-02  0.1114112E+00
          2   -1    0    0  502    0  0.00000000000E+00  0.00000000000E+00  0.11113697293E+04  0.11113697293E+04  0.00000000000E+00 0. -1.
         -2   -1    0    0    0  501 -0.00000000000E+00 -0.00000000000E+00 -0.92074100432E+02  0.92074100432E+02  0.00000000000E+00 0.  1.
          6    2    1    2  502    0  0.14890173501E+03 -0.99683334261E+02  0.88814926139E+03  0.92234688072E+03  0.17264461778E+03 0.  0.
         24    2    3    3    0    0  0.79336614227E+02 -0.10646716928E+03  0.39665542520E+03  0.42588579719E+03  0.80085138550E+02 0.  0.
         -6    2    1    2    0  501 -0.14890173501E+03  0.99683334261E+02  0.13114636748E+03  0.28109694902E+03  0.17235901840E+03 0.  0.
        -24    2    5    5    0    0 -0.16898164093E+02 -0.30141813940E+01  0.53772492305E+02  0.96758865547E+02  0.78588573559E+02 0.  0.
          5    1    3    3  502    0  0.69565120786E+02  0.67838350172E+01  0.49149383619E+03  0.49646108353E+03  0.47000000000E+01 0. -1.
        -11    1    4    4    0    0  0.14147211166E+02 -0.84748909846E+02  0.23593795110E+03  0.25109607339E+03  0.00000000000E+00 0.  1.
         12    1    4    4    0    0  0.65189403060E+02 -0.21718259432E+02  0.16071747410E+03  0.17478972379E+03  0.00000000000E+00 0. -1.
         -5    1    5    5    0  501 -0.13200357092E+03  0.10269751565E+03  0.77373875178E+02  0.18433808347E+03  0.47000000000E+01 0.  1.
         11    1    6    6    0    0  0.28300859273E+02 -0.13578822173E+02  0.99649917159E+01  0.32933631854E+02  0.00000000000E+00 0. -1.
        -12    1    6    6    0    0 -0.45199023366E+02  0.10564640779E+02  0.43807500589E+02  0.63825233692E+02  0.00000000000E+00 0.  1.
</event>
<event>
12    1  0.2576962E-002  0.1828578E+03  0.7818608E-02  0.1165066E+00
          1   -1    0    0  502    0  0.00000000000E+00  0.00000000000E+00  0.10801890182E+04  0.10801890182E+04  0.00000000000E+00 0.  1.
         -1   -1    0    0    0  501 -0.00000000000E+00 -0.00000000000E+00 -0.42541606968E+02  0.42541606968E+02  0.00000000000E+00 0. -1.
          6    2    1    2  502    0  0.57792335199E+02  0.20777664567E+02  0.81208917558E+03  0.83245323658E+03  0.17238879501E+03 0.  0.
         24    2    3    3    0    0  0.83680794150E+02  0.38122813230E+02  0.77139802396E+03  0.78098551554E+03  0.80172563344E+02 0.  0.
         -6    2    1    2    0  501 -0.57792335199E+02 -0.20777664567E+02  0.22555823565E+03  0.29027738859E+03  0.17208364043E+03 0.  0.
        -24    2    5    5    0    0  0.54530097100E+01 -0.65674237409E+02  0.11808584870E+03  0.15765733029E+03  0.81047673359E+02 0.  0.
          5    1    3    3  502    0 -0.25888458951E+02 -0.17345148662E+02  0.40691151614E+02  0.51467721036E+02  0.47000000000E+01 0. -1.
        -11    1    4    4    0    0  0.46025852525E+02 -0.52456192584E+01  0.15128373811E+03  0.15821714521E+03  0.00000000000E+00 0.  1.
         12    1    4    4    0    0  0.37654941625E+02  0.43368432488E+02  0.62011428586E+03  0.62276837033E+03  0.00000000000E+00 0. -1.
         -5    1    5    5    0  501 -0.63245344909E+02  0.44896572842E+02  0.10747238696E+03  0.13262005830E+03  0.47000000000E+01 0.  1.
         13    1    6    6    0    0 -0.37212831531E+02 -0.30783218134E+02  0.44113617649E+02  0.65409575838E+02  0.00000000000E+00 0. -1.
        -14    1    6    6    0    0  0.42665841241E+02 -0.34891019275E+02  0.73972231048E+02  0.92247754450E+02  0.00000000000E+00 0.  1.
</event>
<event>
12    1  0.2576962E-002  0.1820352E+03  0.7818608E-02  0.1165848E+00
         -1   -1    0    0    0  501 -0.00000000000E+00  0.00000000000E+00  0.18642714883E+02  0.18642714883E+02  0.00000000000E+00 0.  1.
          1   -1    0    0  502    0  0.00000000000E+00 -0.00000000000E+00 -0.19037097033E+04  0.19037097033E+04  0.00000000000E+00 0. -1.
          6    2    1    2  502    0  0.55201685438E+02  0.65503326544E+00 -0.11982053113E+04  0.12122150363E+04  0.17527598493E+03 0.  0.
         24    2    3    3    0    0 -0.20806925337E+02  0.26962838634E+02 -0.35948362544E+03  0.36963236025E+03  0.78991657619E+02 0.  0.
         -6    2    1    2    0  501 -0.55201685438E+02 -0.65503326544E+00 -0.68686167711E+03  0.71013738195E+03  0.17166386518E+03 0.  0.
        -24    2    5    5    0    0 -0.11108045607E+02 -0.51688980019E+02 -0.24322519327E+03  0.26137894738E+03  0.79782956591E+02 0.  0.
          5    1    3    3  502    0  0.76008610775E+02 -0.26307805368E+02 -0.83872168590E+03  0.84258267602E+03  0.47000000000E+01 0. -1.
        -11    1    4    4    0    0 -0.58657397048E+01  0.48250601955E+02 -0.13195916883E+03  0.14062627681E+03  0.00000000000E+00 0.  1.
         12    1    4    4    0    0 -0.14941185632E+02 -0.21287763322E+02 -0.22752445661E+03  0.22900608344E+03  0.00000000000E+00 0. -1.
         -5    1    5    5    0  501 -0.44093639832E+02  0.51033946753E+02 -0.44363648385E+03  0.44875843457E+03  0.47000000000E+01 0.  1.
         11    1    6    6    0    0  0.15030551091E+02 -0.55398191398E+02 -0.21583217457E+03  0.22333473679E+03  0.00000000000E+00 0. -1.
        -12    1    6    6    0    0 -0.26138596698E+02  0.37092113796E+01 -0.27393018694E+02  0.38044210592E+02  0.00000000000E+00 0.  1.
</event>
<event>
12    1  0.2576962E-002  0.1800881E+03  0.7818608E-02  0.1167718E+00
          1   -1    0    0  502    0  0.00000000000E+00  0.00000000000E+00  0.53181659049E+02  0.53181659049E+02  0.00000000000E+00 0. -1.
         -1   -1    0    0    0  501 -0.00000000000E+00 -0.00000000000E+00 -0.10002580985E+04  0.10002580985E+04  0.00000000000E+00 0.  1.
          6    2    1    2  502    0 -0.32732077261E+02 -0.44597685775E+02 -0.80204371878E+03  0.82193582582E+03  0.17100886666E+03 0.  0.
         24    2    3    3    0    0  0.44615737549E+02 -0.23755993531E+02 -0.48718058706E+03  0.49700823033E+03  0.84364360647E+02 0.  0.
         -6    2    1    2    0  501  0.32732077261E+02  0.44597685775E+02 -0.14503272072E+03  0.23150393177E+03  0.17175342177E+03 0.  0.
        -24    2    5    5    0    0  0.49758108775E+01  0.93115283915E+02 -0.11240974040E+03  0.16661389789E+03  0.80181210021E+02 0.  0.
          5    1    3    3  502    0 -0.77347814810E+02 -0.20841692244E+02 -0.31486313172E+03  0.32492759549E+03  0.47000000000E+01 0. -1.
        -11    1    4    4    0    0  0.13862299566E+02 -0.23164217328E+02 -0.43910943299E+03  0.43993844848E+03  0.00000000000E+00 0.  1.
         12    1    4    4    0    0  0.30753437984E+02 -0.59177620333E+00 -0.48071154064E+02  0.57069781846E+02  0.00000000000E+00 0. -1.
         -5    1    5    5    0  501  0.27756266383E+02 -0.48517598140E+02 -0.32622980320E+02  0.64890033886E+02  0.47000000000E+01 0.  1.
         11    1    6    6    0    0  0.30863443353E+02  0.26861445115E+02 -0.10337492281E+02  0.42201340215E+02  0.00000000000E+00 0. -1.
        -12    1    6    6    0    0 -0.25887632476E+02  0.66253838801E+02 -0.10207224812E+03  0.12441255767E+03  0.00000000000E+00 0.  1.
</event>
<event>
12    1  0.2576962E-002  0.1885965E+03  0.7818608E-02  0.1159733E+00
         -2   -1    0    0    0  501 -0.00000000000E+00  0.00000000000E+00  0.27926260493E+03  0.27926260493E+03  0.00000000000E+00 0.  1.
          2   -1    0    0  502    0  0.00000000000E+00 -0.00000000000E+00 -0.13598006973E+03  0.13598006973E+03  0.00000000000E+00 0. -1.
          6    2    1    2  502    0 -0.51168772095E+01 -0.75465832862E+02  0.19613353857E+02  0.19023838012E+03  0.17344936800E+03 0.  0.
         24    2    3    3    0    0 -0.29387810205E+01 -0.11934366219E+03  0.52225360112E+01  0.14377125575E+03  0.79945937722E+02 0.  0.
         -6    2    1    2    0  501  0.51168772095E+01  0.75465832862E+02  0.12366918135E+03  0.22500429455E+03  0.17208018999E+03 0.  0.
        -24    2    5    5    0    0 -0.37976185528E+02  0.34478727535E+02  0.13421993890E+03  0.16442077084E+03  0.79926369666E+02 0.  0.
          5    1    3    3  502    0 -0.21780961890E+01  0.43877829324E+02  0.14390817846E+02  0.46467124373E+02  0.47000000000E+01 0. -1.
        -13    1    4    4    0    0  0.19085562704E+02 -0.10021098393E+03 -0.21448964789E+02  0.10424278438E+03  0.00000000000E+00 0.  1.
         14    1    4    4    0    0 -0.22024343725E+02 -0.19132678255E+02  0.26671500800E+02  0.39528471368E+02  0.00000000000E+00 0. -1.
         -5    1    5    5    0  501  0.43093062737E+02  0.40987105328E+02 -0.10550757550E+02  0.60583523701E+02  0.47000000000E+01 0.  1.
         13    1    6    6    0    0  0.19408394331E+02 -0.49204027488E+01  0.57218016320E+02  0.60620108259E+02  0.00000000000E+00 0. -1.
        -14    1    6    6    0    0 -0.57384579859E+02  0.39399130283E+02  0.77001922576E+02  0.10380066258E+03  0.00000000000E+00 0.  1.
</event>
<event>
12    1  0.2576962E-002  0.4394266E+03  0.7818608E-02  0.1030923E+00
         -1   -1    0    0    0  501 -0.00000000000E+00  0.00000000000E+00  0.21386601999E+03  0.21386601999E+03  0.00000000000E+00 0.  1.
          1   -1    0    0  502    0  0.00000000000E+00 -0.00000000000E+00 -0.10047909085E+04  0.10047909085E+04  0.00000000000E+00 0. -1.
          6    2    1    2  502    0 -0.21926284980E+03  0.33917604241E+03 -0.58929610075E+03  0.73493387483E+03  0.17245672199E+03 0.  0.
         24    2    3    3    0    0 -0.15413018867E+03  0.23680114322E+03 -0.29182871134E+03  0.41363678288E+03  0.78105664961E+02 0.  0.
         -6    2    1    2    0  501  0.21926284980E+03 -0.33917604241E+03 -0.20162878776E+03  0.48372305365E+03  0.17383106606E+03 0.  0.
        -24    2    5    5    0    0  0.21998821066E+03 -0.31276981051E+03 -0.13717935827E+03  0.41391163486E+03  0.79277348236E+02 0.  0.
          5    1    3    3  502    0 -0.65132661126E+02  0.10237489920E+03 -0.29746738942E+03  0.32129709195E+03  0.47000000000E+01 0. -1.
        -11    1    4    4    0    0 -0.45191599096E+02  0.14056635201E+03 -0.15323871028E+03  0.21279868955E+03  0.00000000000E+00 0.  1.
         12    1    4    4    0    0 -0.10893858958E+03  0.96234791207E+02 -0.13859000105E+03  0.20083809332E+03  0.00000000000E+00 0. -1.
         -5    1    5    5    0  501 -0.72536085807E+00 -0.26406231904E+02 -0.64449429487E+02  0.69811418786E+02  0.47000000000E+01 0.  1.
         11    1    6    6    0    0  0.51341010521E+02 -0.51597726643E+02 -0.58068509392E+02  0.93113782755E+02  0.00000000000E+00 0. -1.
        -12    1    6    6    0    0  0.16864720014E+03 -0.26117208387E+03 -0.79110848876E+02  0.32079785211E+03  0.00000000000E+00 0.  1.
</event>
<event>
12    1  0.2576962E-002  0.1860305E+03  0.7818608E-02  0.1162091E+00
         -3   -1    0    0    0  501 -0.00000000000E+00  0.00000000000E+00  0.11474562524E+03  0.11474562524E+03  0.00000000000E+00 0.  1.
          3   -1    0    0  502    0  0.00000000000E+00 -0.00000000000E+00 -0.30165593120E+03  0.30165593120E+03  0.00000000000E+00 0. -1.
          6    2    1    2  502    0 -0.83833216517E+01  0.62092573694E+02 -0.91013115262E+02  0.20511222765E+03  0.17280587661E+03 0.  0.
         24    2    3    3    0    0  0.43549558598E+02  0.46169561403E+02 -0.69740109425E+01  0.10493624536E+03  0.83275364352E+02 0.  0.
         -6    2    1    2    0  501  0.83833216517E+01 -0.62092573694E+02 -0.95897190693E+02  0.21128932879E+03  0.17754194290E+03 0.  0.
        -24    2    5    5    0    0  0.63702623692E+02 -0.78664813580E+02 -0.52025594073E+02  0.13861422093E+03  0.79126876877E+02 0.  0.
          5    1    3    3  502    0 -0.51932880250E+02  0.15923012292E+02 -0.84039104319E+02  0.10017598228E+03  0.47000000000E+01 0. -1.
        -13    1    4    4    0    0  0.10145149600E+02 -0.20048270952E+02 -0.19461971946E+02  0.29725840284E+02  0.00000000000E+00 0.  1.
         14    1    4    4    0    0  0.33404408998E+02  0.66217832354E+02  0.12487961003E+02  0.75210405079E+02  0.00000000000E+00 0. -1.
         -5    1    5    5    0  501 -0.55319302040E+02  0.16572239886E+02 -0.43871596619E+02  0.72675107864E+02  0.47000000000E+01 0.  1.
         13    1    6    6    0    0  0.55277878940E+02 -0.43325610961E+02 -0.69051488579E+02  0.98492946653E+02  0.00000000000E+00 0. -1.
        -14    1    6    6    0    0  0.84247447518E+01 -0.35339202619E+02  0.17025894506E+02  0.40121274277E+02  0.00000000000E+00 0.  1.
</event>
<event>
12    1  0.2576962E-002  0.2073563E+03  0.7818608E-02  0.1143677E+00
         -1   -1    0    0    0  501 -0.00000000000E+00  0.00000000000E+00  0.15236806819E+03  0.15236806819E+03  0.00000000000E+00 0. -1.
          1   -1    0    0  502    0  0.00000000000E+00 -0.00000000000E+00 -0.28999571697E+03  0.28999571697E+03  0.00000000000E+00 0.  1.
          6    2    1    2  502    0 -0.97361035396E+02 -0.62900846267E+02 -0.10519766172E+03  0.23277898247E+03  0.17228992709E+03 0.  0.
         24    2    3    3    0    0  0.49125094640E+01 -0.57263471741E+02 -0.22991328949E+02  0.10135741226E+03  0.80258867845E+02 0.  0.
         -6    2    1    2    0  501  0.97361035396E+02  0.62900846267E+02 -0.32429987053E+02  0.20958480268E+03  0.17157621566E+03 0.  0.
        -24    2    5    5    0    0  0.10847411994E+03  0.94304363824E+02 -0.21820075183E+01  0.16434420333E+03  0.79651166211E+02 0.  0.
          5    1    3    3  502    0 -0.10227354486E+03 -0.56373745253E+01 -0.82206332775E+02  0.13142157022E+03  0.47000000000E+01 0. -1.
        -11    1    4    4    0    0 -0.73382882056E+01 -0.34241500115E+02 -0.51781978027E+02  0.62511631336E+02  0.00000000000E+00 0.  1.
         12    1    4    4    0    0  0.12250797670E+02 -0.23021971627E+02  0.28790649078E+02  0.38845780922E+02  0.00000000000E+00 0. -1.
         -5    1    5    5    0  501 -0.11113084548E+02 -0.31403517558E+02 -0.30247979535E+02  0.45240599345E+02  0.47000000000E+01 0.  1.
         11    1    6    6    0    0  0.95152185068E+01  0.15550705386E+01  0.24309767735E+02  0.26151910732E+02  0.00000000000E+00 0. -1.
        -12    1    6    6    0    0  0.98958901437E+02  0.92749293286E+02 -0.26491775253E+02  0.13819229260E+03  0.00000000000E+00 0.  1.
</event>
<event>
12    1  0.2576962E-002  0.2097762E+03  0.7818608E-02  0.1141743E+00
          2   -1    0    0  502    0  0.00000000000E+00  0.00000000000E+00  0.16365569549E+04  0.16365569549E+04  0.00000000000E+00 0.  1.
         -2   -1    0    0    0  501 -0.00000000000E+00 -0.00000000000E+00 -0.33792434525E+02  0.33792434525E+02  0.00000000000E+00 0. -1.
          6    2    1    2  502    0 -0.26356311555E+02  0.11631427690E+03  0.42656030908E+03  0.47573648005E+03  0.17363131917E+03 0.  0.
         24    2    3    3    0    0 -0.25154024952E+02  0.15226008184E+03  0.36593363706E+03  0.40508784421E+03  0.79830303136E+02 0.  0.
         -6    2    1    2    0  501  0.26356311555E+02 -0.11631427690E+03  0.11762042113E+04  0.11946129094E+04  0.17152256531E+03 0.  0.
        -24    2    5    5    0    0 -0.21232485315E+01 -0.52419011153E+01  0.70994051426E+03  0.71443368952E+03  0.79799606695E+02 0.  0.
          5    1    3    3  502    0 -0.12022866024E+01 -0.35945804941E+02  0.60626672021E+02  0.70648635842E+02  0.47000000000E+01 0. -1.
        -13    1    4    4    0    0 -0.36780185445E+02  0.28158409935E+02  0.13403581022E+03  0.14181423241E+03  0.00000000000E+00 0.  1.
         14    1    4    4    0    0  0.11626160493E+02  0.12410167191E+03  0.23189782684E+03  0.26327361180E+03  0.00000000000E+00 0. -1.
         -5    1    5    5    0  501  0.28479560086E+02 -0.11107237579E+03  0.46626369708E+03  0.48017921990E+03  0.47000000000E+01 0.  1.
         13    1    6    6    0    0  0.50193464987E+01  0.16681405702E+02  0.34962808875E+02  0.39062272590E+02  0.00000000000E+00 0. -1.
        -14    1    6    6    0    0 -0.71425950302E+01 -0.21923306817E+02  0.67497770538E+03  0.67537141693E+03  0.00000000000E+00 0.  1.
</event>
<event>
12    1  0.2576962E-002  0.1738208E+03  0.7818608E-02  0.1173921E+00
         -2   -1    0    0    0  501 -0.00000000000E+00  0.00000000000E+00  0.16930788724E+02  0.16930788724E+02  0.00000000000E+00 0. -1.
          2   -1    0    0  502    0  0.00000000000E+00 -0.00000000000E+00 -0.18066634178E+04  0.18066634178E+04  0.00000000000E+00 0.  1.
          6    2    1    2  502    0 -0.14829856520E+02  0.24877343222E+02 -0.79152826587E+03  0.81028521908E+03  0.17089860658E+03 0.  0.
         24    2    3    3    0    0 -0.28568317465E+02 -0.50305037050E+02 -0.57999370163E+03  0.58531833822E+03  0.53461365626E+02 0.  0.
         -6    2    1    2    0  501  0.14829856520E+02 -0.24877343222E+02 -0.99820436324E+03  0.10133089875E+04  0.17188468946E+03 0.  0.
        -24    2    5    5    0    0  0.26373468435E+02 -0.16264725170E+02 -0.99401140355E+03  0.99758947487E+03  0.78523810830E+02 0.  0.
          5    1    3    3  502    0  0.13738460945E+02  0.75182380272E+02 -0.21153456425E+03  0.22496688086E+03  0.47000000000E+01 0. -1.
        -11    1    4    4    0    0  0.14304002725E+02 -0.25343310738E+02 -0.22556998575E+03  0.22743945648E+03  0.00000000000E+00 0.  1.
         12    1    4    4    0    0 -0.42872320190E+02 -0.24961726312E+02 -0.35442371588E+03  0.35787888174E+03  0.00000000000E+00 0. -1.
         -5    1    5    5    0  501 -0.11543611915E+02 -0.86126180514E+01 -0.41929596924E+01  0.15719512611E+02  0.47000000000E+01 0.  1.
         11    1    6    6    0    0 -0.27006898829E+02 -0.14506399501E+02 -0.31987235156E+03  0.32133802996E+03  0.00000000000E+00 0. -1.
        -12    1    6    6    0    0  0.53380367265E+02 -0.17583256690E+01 -0.67413905199E+03  0.67625144490E+03  0.00000000000E+00 0.  1.
</event>
<event>
12    1  0.2576962E-002  0.1884860E+03  0.7818608E-02  0.1159834E+00
         -1   -1    0    0    0  501 -0.00000000000E+00  0.00000000000E+00  0.35071256050E+02  0.35071256050E+02  0.00000000000E+00 0. -1.
          1   -1    0    0  502    0  0.00000000000E+00 -0.00000000000E+00 -0.14304021104E+04  0.14304021104E+04  0.00000000000E+00 0.  1.
          6    2    1    2  502    0  0.56744737027E+02  0.52870549462E+02 -0.30407076933E+03  0.35819807775E+03  0.17271818075E+03 0.  0.
         24    2    3    3    0    0  0.57447723867E+02  0.78479605307E+02 -0.11102276133E+03  0.16340089777E+03  0.70103569339E+02 0.  0.
         -6    2    1    2    0  501 -0.56744737027E+02 -0.52870549462E+02 -0.10912600850E+04  0.11072752887E+04  0.17086465881E+03 0.  0.
        -24    2    5    5    0    0 -0.85283278716E+02 -0.84298381275E+02 -0.70038019946E+03  0.71406881379E+03  0.70586063230E+02 0.  0.
          5    1    3    3  502    0 -0.70298684004E+00 -0.25609055846E+02 -0.19304800801E+03  0.19479717998E+03  0.47000000000E+01 0. -1.
        -13    1    4    4    0    0 -0.14241219160E+02  0.21399720437E+02 -0.39626119805E+02  0.47233353986E+02  0.00000000000E+00 0.  1.
         14    1    4    4    0    0  0.71688943028E+02  0.57079884871E+02 -0.71396641522E+02  0.11616754379E+03  0.00000000000E+00 0. -1.
         -5    1    5    5    0  501  0.28538541689E+02  0.31427831813E+02 -0.39087988557E+03  0.39320647492E+03  0.47000000000E+01 0.  1.
         13    1    6    6    0    0 -0.26186737573E+02  0.81477827344E+01 -0.19470137093E+03  0.19662338475E+03  0.00000000000E+00 0. -1.
        -14    1    6    6    0    0 -0.59096541143E+02 -0.92446164009E+02 -0.50567882853E+03  0.51744542904E+03  0.00000000000E+00 0.  1.
</event>
<event>
12    1  0.2576962E-002  0.2013221E+03  0.7818608E-02  0.1148628E+00
         -1   -1    0    0    0  501 -0.00000000000E+00  0.00000000000E+00  0.54000346672E+02  0.54000346672E+02  0.00000000000E+00 0.  1.
          1   -1    0    0  502    0  0.00000000000E+00 -0.00000000000E+00 -0.13131363339E+04  0.13131363339E+04  0.00000000000E+00 0. -1.
          6    2    1    2  502    0  0.87416466858E+02  0.56730909371E+02 -0.10759740258E+04  0.10945424930E+04  0.17159000547E+03 0.  0.
         24    2    3    3    0    0  0.11365040780E+02  0.88140929831E+02 -0.73672249727E+03  0.74542346112E+03  0.70697317790E+02 0.  0.
         -6    2    1    2    0  501 -0.87416466858E+02 -0.56730909371E+02 -0.18316196140E+03  0.27259418757E+03  0.17291400243E+03 0.  0.
        -24    2    5    5    0    0  0.28039906871E+01  0.23915795107E+01 -0.12936415950E+03  0.15196461764E+03  0.79652854534E+02 0.  0.
          5    1    3    3  502    0  0.76051426078E+02 -0.31410020459E+02 -0.33925152857E+03  0.34911903189E+03  0.47000000000E+01 0. -1.
        -13    1    4    4    0    0  0.15984271211E+02 -0.75959708806E+01 -0.11934548394E+03  0.12065048793E+03  0.00000000000E+00 0.  1.
         14    1    4    4    0    0 -0.46192304307E+01  0.95736900711E+02 -0.61737701332E+03  0.62477297319E+03  0.00000000000E+00 0. -1.
         -5    1    5    5    0  501 -0.90220457545E+02 -0.59122488882E+02 -0.53797801897E+02  0.12062956992E+03  0.47000000000E+01 0.  1.
         13    1    6    6    0    0 -0.18174619692E+02 -0.27118587838E+02 -0.10047269395E+03  0.10564325268E+03  0.00000000000E+00 0. -1.
        -14    1    6    6    0    0  0.20978610379E+02  0.29510167348E+02 -0.28891465555E+02  0.46321364966E+02  0.00000000000E+00 0.  1.
</event>
<event>
12    1  0.2576962E-002  0.1834907E+03  0.7818608E-02  0.1164467E+00
          2   -1    0    0  502    0  0.00000000000E+00  0.00000000000E+00  0.54207178974E+03  0.54207178974E+03  0.00000000000E+00 0. -1.
         -2   -1    0    0    0  501 -0.00000000000E+00 -0.00000000000E+00 -0.68454409549E+02  0.68454409549E+02  0.00000000000E+00 0.  1.
          6    2    1    2  502    0 -0.54081442245E+02  0.35325207986E+02  0.33013700069E+03  0.37787184933E+03  0.17211630539E+03 0.  0.
         24    2    3    3    0    0 -0.31867689316E+01  0.43310215857E+02  0.30734389099E+03  0.32134182216E+03  0.83152685154E+02 0.  0.
         -6    2    1    2    0  501  0.54081442245E+02 -0.35325207986E+02  0.14348037950E+03  0.23265434995E+03  0.17137314415E+03 0.  0.
        -24    2    5    5    0    0  0.84329805495E+02  0.92649314571E+00  0.14167727880E+03  0.18517287476E+03  0.84286225056E+02 0.  0.
          5    1    3    3  502    0 -0.50894673313E+02 -0.79850078712E+01  0.22793109701E+02  0.56530027174E+02  0.47000000000E+01 0. -1.
        -13    1    4    4    0    0  0.36645003154E+02  0.31824109501E+02  0.11954248323E+03  0.12901951596E+03  0.00000000000E+00 0.  1.
         14    1    4    4    0    0 -0.39831772086E+02  0.11486106356E+02  0.18780140776E+03  0.19232230620E+03  0.00000000000E+00 0. -1.
         -5    1    5    5    0  501 -0.30248363250E+02 -0.36251701132E+02  0.18031006987E+01  0.47481475192E+02  0.47000000000E+01 0.  1.
         13    1    6    6    0    0  0.54382881252E+02  0.19363302432E+02  0.13827519658E+03  0.14984146704E+03  0.00000000000E+00 0. -1.
        -14    1    6    6    0    0  0.29946924243E+02 -0.18436809286E+02  0.34020822199E+01  0.35331407723E+02  0.00000000000E+00 0.  1.
</event>
<event>
12    1  0.2576962E-002  0.2736267E+03  0.7818608E-02  0.1099222E+00
          4   -1    0    0  502    0  0.00000000000E+00  0.00000000000E+00  0.31116992521E+03  0.31116992521E+03  0.00000000000E+00 0.  1.
         -4   -1    0    0    0  501 -0.00000000000E+00 -0.00000000000E+00 -0.26772251081E+03  0.26772251081E+03  0.00000000000E+00 0. -1.
          6    2    1    2  502    0  0.21253545646E+03 -0.90985838248E+01  0.11377059847E+03  0.29562551103E+03  0.17087009456E+03 0.  0.
         24    2    3    3    0    0  0.96778526727E+02  0.39995752206E+01  0.12868176561E+03  0.17808546910E+03  0.75982614243E+02 0.  0.
         -6    2    1    2    0  501 -0.21253545646E+03  0.90985838248E+01 -0.70323184071E+02  0.28326692499E+03  0.17332252045E+03 0.  0.
        -24    2    5    5    0    0 -0.20777190499E+03 -0.29103676560E+02 -0.84303722195E+02  0.24204011857E+03  0.86371945281E+02 0.  0.
          5    1    3    3  502    0  0.11575692974E+03 -0.13098159045E+02 -0.14911167135E+02  0.11754004193E+03  0.47000000000E+01 0. -1.
        -13    1    4    4    0    0  0.61163598273E+02  0.34097117702E+02  0.47997319803E+02  0.84896065265E+02  0.00000000000E+00 0.  1.
         14    1    4    4    0    0  0.35614928454E+02 -0.30097542482E+02  0.80684445803E+02  0.93189403833E+02  0.00000000000E+00 0. -1.
         -5    1    5    5    0  501 -0.47635514753E+01  0.38202260385E+02  0.13980538124E+02  0.41226806418E+02  0.47000000000E+01 0.  1.
         13    1    6    6    0    0 -0.40254517068E+02  0.20568133728E+02 -0.43235112526E+02  0.62551972188E+02  0.00000000000E+00 0. -1.
        -14    1    6    6    0    0 -0.16751738792E+03 -0.49671810288E+02 -0.41068609668E+02  0.17948814638E+03  0.00000000000E+00 0.  1.
</event>
<event>
12    1  0.2576962E-002  0.2054183E+03  0.7818608E-02  0.1145246E+00
          3   -1    0    0  502    0  0.00000000000E+00  0.00000000000E+00  0.17131534591E+03  0.17131534591E+03  0.00000000000E+00 0.  1.
         -3   -1    0    0    0  501 -0.00000000000E+00 -0.00000000000E+00 -0.25873845670E+03  0.25873845670E+03  0.00000000000E+00 0. -1.
          6    2    1    2  502    0 -0.19708380463E+02  0.11095135463E+03 -0.90795351024E+02  0.22439599937E+03  0.17149677960E+03 0.  0.
         24    2    3    3    0    0 -0.59740021577E+02  0.43116020186E+02 -0.42923281864E+01  0.10731044156E+03  0.77905361891E+02 0.  0.
         -6    2    1    2    0  501  0.19708380463E+02 -0.11095135463E+03  0.33722402315E+01  0.20565780323E+03  0.17200330425E+03 0.  0.
        -24    2    5    5    0    0  0.69235424147E+02 -0.11408522837E+03  0.41777817831E+01  0.15580313326E+03  0.80300555314E+02 0.  0.
          5    1    3    3  502    0  0.40031641114E+02  0.67835334443E+02 -0.86503022838E+02  0.11708555782E+03  0.47000000000E+01 0. -1.
        -13    1    4    4    0    0 -0.73157730762E+02  0.13315404376E+02 -0.58656832316E+01  0.74590614716E+02  0.00000000000E+00 0.  1.
         14    1    4    4    0    0  0.13417709186E+02  0.29800615809E+02  0.15733550452E+01  0.32719826841E+02  0.00000000000E+00 0. -1.
         -5    1    5    5    0  501 -0.49527043684E+02  0.31338737442E+01 -0.80554155154E+00  0.49854669971E+02  0.47000000000E+01 0.  1.
         13    1    6    6    0    0  0.31344282103E+02 -0.55669738397E+01 -0.20996512929E+02  0.38135400529E+02  0.00000000000E+00 0. -1.
        -14    1    6    6    0    0  0.37891142043E+02 -0.10851825453E+03  0.25174294712E+02  0.11766773273E+03  0.00000000000E+00 0.  1.
</event>
<event>
12    1  0.2576962E-002  0.3783260E+03  0.7818608E-02  0.1051554E+00
         -1   -1    0    0    0  501 -0.00000000000E+00  0.00000000000E+00  0.42896922162E+03  0.42896922162E+03  0.00000000000E+00 0.  1.
          1   -1    0    0  502    0  0.00000000000E+00 -0.00000000000E+00 -0.84030285591E+03  0.84030285591E+03  0.00000000000E+00 0. -1.
          6    2    1    2  502    0 -0.17539793092E+02 -0.33649733543E+03 -0.69849280566E+03  0.79446106126E+03  0.17244731715E+03 0.  0.
         24    2    3    3    0    0 -0.40307848062E+02 -0.10834987275E+03 -0.22623152733E+03  0.26946348596E+03  0.89807843567E+02 0.  0.
         -6    2    1    2    0  501  0.17539793092E+02  0.33649733543E+03  0.28715917137E+03  0.47481101628E+03  0.17160131229E+03 0.  0.
        -24    2    5    5    0    0  0.30162184551E+02  0.66589979298E+02  0.69342132259E+02  0.12771498030E+03  0.78478036212E+02 0.  0.
          5    1    3    3  502    0  0.22768054970E+02 -0.22814746268E+03 -0.47226127833E+03  0.52499757529E+03  0.47000000000E+01 0. -1.
        -13    1    4    4    0    0 -0.47646402880E+01  0.29151189987E+01  0.67983318781E+01  0.87986949132E+01  0.00000000000E+00 0.  1.
         14    1    4    4    0    0 -0.35543207774E+02 -0.11126499175E+03 -0.23302985921E+03  0.26066479105E+03  0.00000000000E+00 0. -1.
         -5    1    5    5    0  501 -0.12622391459E+02  0.26990735613E+03  0.21781703912E+03  0.34709603598E+03  0.47000000000E+01 0.  1.
         11    1    6    6    0    0  0.33616281004E+02  0.11289547451E+02  0.62535623462E+02  0.71890280511E+02  0.00000000000E+00 0. -1.
        -12    1    6    6    0    0 -0.34540964533E+01  0.55300431848E+02  0.68065087971E+01  0.55824699792E+02  0.00000000000E+00 0.  1.
</event>
<event>
12    1  0.2576962E-002  0.1991950E+03  0.7818608E-02  0.1150420E+00
         -2   -1    0    0    0  501 -0.00000000000E+00  0.00000000000E+00  0.16954784483E+03  0.16954784483E+03  0.00000000000E+00 0.  1.
          2   -1    0    0  502    0  0.00000000000E+00 -0.00000000000E+00 -0.99931138040E+03  0.99931138040E+03  0.00000000000E+00 0. -1.
          6    2    1    2  502    0  0.99193646726E+02  0.10731463553E+02  0.96321398009E+02  0.22169458680E+03  0.17296281173E+03 0.  0.
         24    2    3    3    0    0 -0.63679741245E+00 -0.12868553519E+01  0.93127558506E+02  0.12098287856E+03  0.77214333145E+02 0.  0.
         -6    2    1    2    0  501 -0.99193646726E+02 -0.10731463553E+02 -0.92608493358E+03  0.94716463843E+03  0.17185169255E+03 0.  0.
        -24    2    5    5    0    0 -0.13511179505E+03  0.64648604710E+01 -0.79519610842E+03  0.81027124381E+03  0.76848201785E+02 0.  0.
          5    1    3    3  502    0  0.99830444138E+02  0.12018318905E+02  0.31938395029E+01  0.10071170824E+03  0.47000000000E+01 0. -1.
        -11    1    4    4    0    0  0.26518984625E+02 -0.28391480527E+02  0.47809774647E+02  0.61604441916E+02  0.00000000000E+00 0.  1.
         12    1    4    4    0    0 -0.27155782037E+02  0.27104625176E+02  0.45317783859E+02  0.59378436641E+02  0.00000000000E+00 0. -1.
         -5    1    5    5    0  501  0.35918148326E+02 -0.17196324024E+02 -0.13088882516E+03  0.13689339462E+03  0.47000000000E+01 0.  1.
         11    1    6    6    0    0 -0.12284494966E+03  0.89919392551E+01 -0.78353851505E+03  0.79316098063E+03  0.00000000000E+00 0. -1.
        -12    1    6    6    0    0 -0.12266845388E+02 -0.25270787841E+01 -0.11657593376E+02  0.17110263186E+02  0.00000000000E+00 0.  1.
</event>
<event>
12    1  0.2576962E-002  0.2308362E+03  0.7818608E-02  0.1126053E+00
         -2   -1    0    0    0  501 -0.00000000000E+00  0.00000000000E+00  0.47693130152E+02  0.47693130152E+02  0.00000000000E+00 0. -1.
          2   -1    0    0  502    0  0.00000000000E+00 -0.00000000000E+00 -0.21598503839E+04  0.21598503839E+04  0.00000000000E+00 0.  1.
          6    2    1    2  502    0  0.81270550753E+02 -0.13041351655E+03 -0.28921305355E+03  0.37004282972E+03  0.17226409307E+03 0.  0.
         24    2    3    3    0    0  0.11554737521E+03 -0.11499769754E+03 -0.27451722441E+03  0.32941518439E+03  0.81110978629E+02 0.  0.
         -6    2    1    2    0  501 -0.81270550753E+02  0.13041351655E+03 -0.18229442002E+04  0.18375006844E+04  0.17225161880E+03 0.  0.
        -24    2    5    5    0    0 -0.11571034213E+03  0.12859674225E+03 -0.16637619765E+04  0.16745575340E+04  0.78185771380E+02 0.  0.
          5    1    3    3  502    0 -0.34276824455E+02 -0.15415819015E+02 -0.14695829145E+02  0.40627645328E+02  0.47000000000E+01 0. -1.
        -11    1    4    4    0    0  0.52548248504E+02 -0.35671143156E+01 -0.62292310990E+02  0.81574350955E+02  0.00000000000E+00 0.  1.
         12    1    4    4    0    0  0.62999126704E+02 -0.11143058322E+03 -0.21222491342E+03  0.24784083344E+03  0.00000000000E+00 0. -1.
         -5    1    5    5    0  501  0.34439791380E+02  0.18167743016E+01 -0.15918222374E+03  0.16294315037E+03  0.47000000000E+01 0.  1.
         11    1    6    6    0    0 -0.62883229065E+02  0.46473482137E+02 -0.43900983849E+03  0.44591896498E+03  0.00000000000E+00 0. -1.
        -12    1    6    6    0    0 -0.52827113067E+02  0.82123260112E+02 -0.12247521380E+04  0.12286385690E+04  0.00000000000E+00 0.  1.
</event>
<event>
12    1  0.2576962E-002  0.1949905E+03  0.7818608E-02  0.1154036E+00
         -2   -1    0    0    0  501 -0.00000000000E+00  0.00000000000E+00  0.47679539078E+02  0.47679539078E+02  0.00000000000E+00 0. -1.
          2   -1    0    0  502    0  0.00000000000E+00 -0.00000000000E+00 -0.82738949344E+03  0.82738949344E+03  0.00000000000E+00 0.  1.
          6    2    1    2  502    0 -0.87320750102E+02  0.20076278514E+02 -0.47369484658E+03  0.51237461909E+03  0.17353089713E+03 0.  0.
         24    2    3    3    0    0 -0.47886333655E+02 -0.21881520238E+02 -0.11272718397E+03  0.14681303259E+03  0.77940661108E+02 0.  0.
         -6    2    1    2    0  501  0.87320750102E+02 -0.20076278514E+02 -0.30601510778E+03  0.36269441342E+03  0.17284102806E+03 0.  0.
        -24    2    5    5    0    0  0.63427415113E+02  0.36826783030E+02 -0.98199201800E+02  0.14585716881E+03  0.79069472770E+02 0.  0.
          5    1    3    3  502    0 -0.39434416447E+02  0.41957798752E+02 -0.36096766261E+03  0.36556158651E+03  0.47000000000E+01 0. -1.
        -13    1    4    4    0    0 -0.35043349684E+02 -0.86844908287E+00 -0.11671480374E+03  0.12186523693E+03  0.00000000000E+00 0.  1.
         14    1    4    4    0    0 -0.12842983971E+02 -0.21013071155E+02  0.39876197721E+01  0.24947795656E+02  0.00000000000E+00 0. -1.
         -5    1    5    5    0  501  0.23893334989E+02 -0.56903061544E+02 -0.20781590598E+03  0.21683724461E+03  0.47000000000E+01 0.  1.
         11    1    6    6    0    0  0.34508439122E+02 -0.10392694517E+02 -0.35666952728E+01  0.36215490955E+02  0.00000000000E+00 0. -1.
        -12    1    6    6    0    0  0.28918975991E+02  0.47219477547E+02 -0.94632506527E+02  0.10964167786E+03  0.00000000000E+00 0.  1.
</event>
<event>
12    1  0.2576962E-002  0.2199145E+03  0.7818608E-02  0.1133947E+00
         -2   -1    0    0    0  501 -0.00000000000E+00  0.00000000000E+00  0.38661844401E+02  0.38661844401E+02  0.00000000000E+00 0. -1.
          2   -1    0    0  502    0  0.00000000000E+00 -0.00000000000E+00 -0.12515759087E+04  0.12515759087E+04  0.00000000000E+00 0.  1.
          6    2    1    2  502    0 -0.51284681432E+02  0.12896994815E+03 -0.62358684110E+03  0.66152414454E+03  0.17172734012E+03 0.  0.
         24    2    3    3    0    0 -0.49739871035E+02  0.58602254768E+02 -0.54420309817E+03  0.55532684066E+03  0.79514834242E+02 0.  0.
         -6    2    1    2    0  501  0.51284681432E+02 -0.12896994815E+03 -0.58932722325E+03  0.62871360861E+03  0.16944279126E+03 0.  0.
        -24    2    5    5    0    0  0.15268633334E+02 -0.13076070644E+03 -0.56345339554E+03  0.58408281771E+03  0.79633632894E+02 0.  0.
          5    1    3    3  502    0 -0.15448103965E+01  0.70367693378E+02 -0.79383742929E+02  0.10619730388E+03  0.47000000000E+01 0. -1.
        -13    1    4    4    0    0 -0.53019909700E+02  0.76031046062E+02 -0.46744479319E+03  0.47654639383E+03  0.00000000000E+00 0.  1.
         14    1    4    4    0    0  0.32800386641E+01 -0.17428791294E+02 -0.76758304974E+02  0.78780446826E+02  0.00000000000E+00 0. -1.
         -5    1    5    5    0  501  0.36016048098E+02  0.17907582889E+01 -0.25873827711E+02  0.44630790899E+02  0.47000000000E+01 0.  1.
         11    1    6    6    0    0  0.42630729082E+02 -0.70671658103E+02 -0.23535558466E+03  0.24940752505E+03  0.00000000000E+00 0. -1.
        -12    1    6    6    0    0 -0.27362095748E+02 -0.60089048333E+02 -0.32809781088E+03  0.33467529266E+03  0.00000000000E+00 0.  1.
</event>
<event>
12    1  0.2576962E-002  0.2523072E+03  0.7818608E-02  0.1111855E+00
         -2   -1    0    0    0  501 -0.00000000000E+00  0.00000000000E+00  0.46949088319E+02  0.46949088319E+02  0.00000000000E+00 0. -1.
          2   -1    0    0  502    0  0.00000000000E+00 -0.00000000000E+00 -0.19230064662E+04  0.19230064662E+04  0.00000000000E+00 0.  1.
          6    2    1    2  502    0  0.17459067061E+03  0.68541786170E+02 -0.39632635121E+03  0.46842110325E+03  0.16481466741E+03 0.  0.
         24    2    3    3    0    0  0.13084630564E+03 -0.64761685610E+01 -0.18971707046E+03  0.24425431737E+03  0.80653011559E+02 0.  0.
         -6    2    1    2    0  501 -0.17459067061E+03 -0.68541786170E+02 -0.14797310267E+04  0.15015344513E+04  0.17269023810E+03 0.  0.
        -24    2    5    5    0    0 -0.10764808823E+03 -0.79800845947E+02 -0.12995817024E+04  0.13089625302E+04  0.80709468157E+02 0.  0.
          5    1    3    3  502    0  0.43744364965E+02  0.75017954731E+02 -0.20660928075E+03  0.22416678588E+03  0.47000000000E+01 0. -1.
        -13    1    4    4    0    0 -0.11302494981E+02  0.14357389822E+01 -0.12067908350E+02  0.16596449957E+02  0.00000000000E+00 0.  1.
         14    1    4    4    0    0  0.14214880062E+03 -0.79119075433E+01 -0.17764916211E+03  0.22765786742E+03  0.00000000000E+00 0. -1.
         -5    1    5    5    0  501 -0.66942582374E+02  0.11259059777E+02 -0.18014932430E+03  0.19257192113E+03  0.47000000000E+01 0.  1.
         13    1    6    6    0    0  0.89128613267E+01 -0.19331944521E+02 -0.10163461660E+03  0.10384006195E+03  0.00000000000E+00 0. -1.
        -14    1    6    6    0    0 -0.11656094956E+03 -0.60468901426E+02 -0.11979470858E+04  0.12051224682E+04  0.00000000000E+00 0.  1.
</event>
<event>
12    1  0.2576962E-002  0.2045320E+03  0.7818608E-02  0.1145971E+00
          2   -1    0    0  502    0  0.00000000000E+00  0.00000000000E+00  0.15591613210E+04  0.15591613210E+04  0.00000000000E+00 0.  1.
         -2   -1    0    0    0  501 -0.00000000000E+00 -0.00000000000E+00 -0.27072411963E+02  0.27072411963E+02  0.00000000000E+00 0. -1.
          6    2    1    2  502    0  0.54707072190E+02 -0.95088625634E+02  0.84161542967E+03  0.86615192395E+03  0.17282335903E+03 0.  0.
         24    2    3    3    0    0  0.10114711055E+03 -0.44522292557E+02  0.54660121035E+03  0.56321775485E+03  0.78920109717E+02 0.  0.
         -6    2    1    2    0  501 -0.54707072190E+02  0.95088625634E+02  0.69047347938E+03  0.72008180903E+03  0.17242237527E+03 0.  0.
        -24    2    5    5    0    0 -0.33989849367E+02  0.12169866286E+03  0.64717853541E+03  0.66500150787E+03  0.86145657868E+02 0.  0.
          5    1    3    3  502    0 -0.46440038363E+02 -0.50566333077E+02  0.29501421932E+03  0.30293416910E+03  0.47000000000E+01 0. -1.
        -11    1    4    4    0    0  0.78899308885E+02 -0.65866431479E+02  0.45847810031E+03  0.46985705933E+03  0.00000000000E+00 0.  1.
         12    1    4    4    0    0  0.22247801668E+02  0.21344138922E+02  0.88123110034E+02  0.93360695517E+02  0.00000000000E+00 0. -1.
         -5    1    5    5    0  501 -0.20717222823E+02 -0.26610037226E+02  0.43294943973E+02  0.55080301164E+02  0.47000000000E+01 0.  1.
         11    1    6    6    0    0 -0.34248026033E+02  0.93680794559E+01  0.92879589155E+02  0.99434934915E+02  0.00000000000E+00 0. -1.
        -12    1    6    6    0    0  0.25817666566E+00  0.11233058340E+03  0.55429894626E+03  0.56556657295E+03  0.00000000000E+00 0.  1.
</event>
<event>
12    1  0.2576962E-002  0.1902860E+03  0.7818608E-02  0.1158204E+00
          1   -1    0    0  502    0  0.00000000000E+00  0.00000000000E+00  0.18764504480E+03  0.18764504480E+03  0.00000000000E+00 0. -1.
         -1   -1    0    0    0  501 -0.00000000000E+00 -0.00000000000E+00 -0.19364457025E+03  0.19364457025E+03  0.00000000000E+00 0.  1.
          6    2    1    2  502    0  0.28473024850E+02 -0.48016616142E+02 -0.75337219604E+01  0.20113012628E+03  0.19308097307E+03 0.  0.
         24    2    3    3    0    0  0.37252417389E+02  0.17388686788E+02  0.59640466021E+02  0.10684654916E+03  0.78543560205E+02 0.  0.
         -6    2    1    2    0  501 -0.28473024850E+02  0.48016616142E+02  0.15341965137E+01  0.18015948876E+03  0.17128566508E+03 0.  0.
        -24    2    5    5    0    0 -0.25824349016E+02 -0.25540988479E+02  0.41544456786E+02  0.96250921808E+02  0.78861010422E+02 0.  0.
          5    1    3    3  502    0 -0.87793925389E+01 -0.65405302930E+02 -0.67174187981E+02  0.94283577126E+02  0.47000000000E+01 0. -1.
        -13    1    4    4    0    0  0.37541450454E+02  0.43568818963E+02  0.23289524533E+02  0.62048404016E+02  0.00000000000E+00 0.  1.
         14    1    4    4    0    0 -0.28903306488E+00 -0.26180132175E+02  0.36350941488E+02  0.44798145139E+02  0.00000000000E+00 0. -1.
         -5    1    5    5    0  501 -0.26486758339E+01  0.73557604621E+02 -0.40010260272E+02  0.83908566955E+02  0.47000000000E+01 0.  1.
         13    1    6    6    0    0 -0.14329642640E+02  0.26022489716E+02  0.29909893753E+02  0.42155786952E+02  0.00000000000E+00 0. -1.
        -14    1    6    6    0    0 -0.11494706376E+02 -0.51563478195E+02  0.11634563033E+02  0.54095134857E+02  0.00000000000E+00 0.  1.
</event>
<event>
12    1  0.2576962E-002  0.1894282E+03  0.7818608E-02  0.1158978E+00
         -1   -1    0    0    0  501 -0.00000000000E+00  0.00000000000E+00  0.16365364253E+02  0.16365364253E+02  0.00000000000E+00 0. -1.
          1   -1    0    0  502    0  0.00000000000E+00 -0.00000000000E+00 -0.21931676245E+04  0.21931676245E+04  0.00000000000E+00 0.  1.
          6    2    1    2  502    0  0.69053840109E+02 -0.39442767998E+02 -0.10713852075E+04  0.10880154961E+04  0.17200956985E+03 0.  0.
         24    2    3    3    0    0  0.81402958634E+02  0.18575664239E+02 -0.88028778355E+03  0.88786816374E+03  0.80198487209E+02 0.  0.
         -6    2    1    2    0  501 -0.69053840109E+02  0.39442767998E+02 -0.11054170528E+04  0.11215174927E+04  0.17184429303E+03 0.  0.
        -24    2    5    5    0    0 -0.11396869603E+03  0.20877241347E+02 -0.81792953144E+03  0.82991298657E+03  0.79511785261E+02 0.  0.
          5    1    3    3  502    0 -0.12349118524E+02 -0.58018432237E+02 -0.19109742395E+03  0.20014733235E+03  0.47000000000E+01 0. -1.
        -11    1    4    4    0    0  0.93161688393E+02  0.65674223633E+01 -0.81934059458E+03  0.82464613087E+03  0.00000000000E+00 0.  1.
         12    1    4    4    0    0 -0.11758729760E+02  0.12008241876E+02 -0.60947188965E+02  0.63222032878E+02  0.00000000000E+00 0. -1.
         -5    1    5    5    0  501  0.44914855919E+02  0.18565526651E+02 -0.28748752135E+03  0.29160450612E+03  0.47000000000E+01 0.  1.
         11    1    6    6    0    0 -0.11409609326E+03  0.22628268537E+02 -0.55881812443E+03  0.57079563175E+03  0.00000000000E+00 0. -1.
        -12    1    6    6    0    0  0.12739722849E+00 -0.17510271895E+01 -0.25911140701E+03  0.25911735482E+03  0.00000000000E+00 0.  1.
</event>
<event>
12    1  0.2576962E-002  0.2482987E+03  0.7818608E-02  0.1114385E+00
          1   -1    0    0  502    0  0.00000000000E+00  0.00000000000E+00  0.70655035966E+03  0.70655035966E+03  0.00000000000E+00 0.  1.
         -1   -1    0    0    0  501 -0.00000000000E+00 -0.00000000000E+00 -0.98071139048E+02  0.98071139048E+02  0.00000000000E+00 0. -1.
          6    2    1    2  502    0  0.16236262425E+03  0.76000161827E+02  0.17204279302E+03  0.30311779493E+03  0.17362035774E+03 0.  0.
         24    2    3    3    0    0  0.69229208078E+02  0.10148842928E+03  0.67020174548E+02  0.16037563095E+03  0.78332973125E+02 0.  0.
         -6    2    1    2    0  501 -0.16236262425E+03 -0.76000161827E+02  0.43643642760E+03  0.50150370378E+03  0.16997518413E+03 0.  0.
        -24    2    5    5    0    0 -0.50475314990E+02 -0.40796888581E+02  0.32432719201E+03  0.33918115105E+03  0.75123779252E+02 0.  0.
          5    1    3    3  502    0  0.93133416176E+02 -0.25488267452E+02  0.10502261847E+03  0.14274216397E+03  0.47000000000E+01 0. -1.
        -13    1    4    4    0    0  0.15523452436E+02  0.71547222007E+02  0.66470132156E+02  0.98885089985E+02  0.00000000000E+00 0.  1.
         14    1    4    4    0    0  0.53705755642E+02  0.29941207272E+02  0.55004239199E+00  0.61490540969E+02  0.00000000000E+00 0. -1.
         -5    1    5    5    0  501 -0.11188730926E+03 -0.35203273246E+02  0.11210923558E+03  0.16232255273E+03  0.47000000000E+01 0.  1.
         13    1    6    6    0    0 -0.62735961959E+01 -0.50457790322E+02  0.21356102438E+03  0.21953053944E+03  0.00000000000E+00 0. -1.
        -14    1    6    6    0    0 -0.44201718794E+02  0.96609017406E+01  0.11076616764E+03  0.11965061162E+03  0.00000000000E+00 0.  1.
</event>
<event>
12    1  0.2576962E-002  0.2152856E+03  0.7818608E-02  0.1137447E+00
          1   -1    0    0  502    0  0.00000000000E+00  0.00000000000E+00  0.72984501285E+03  0.72984501285E+03  0.00000000000E+00 0.  1.
         -1   -1    0    0    0  501 -0.00000000000E+00 -0.00000000000E+00 -0.64098943918E+02  0.64098943918E+02  0.00000000000E+00 0. -1.
          6    2    1    2  502    0 -0.13336175667E+03 -0.12464834153E+01  0.37460731257E+03  0.43329430338E+03  0.17212321997E+03 0.  0.
         24    2    3    3    0    0 -0.88254138541E+02  0.24166799088E+02  0.35891518696E+03  0.37899085094E+03  0.80256629152E+02 0.  0.
         -6    2    1    2    0  501  0.13336175667E+03  0.12464834153E+01  0.29113875637E+03  0.36064965339E+03  0.16588997911E+03 0.  0.
        -24    2    5    5    0    0  0.34297623111E+02 -0.44654856260E+02  0.99440275935E+02  0.13998920623E+03  0.80859299056E+02 0.  0.
          5    1    3    3  502    0 -0.45107618125E+02 -0.25413282504E+02  0.15692125610E+02  0.54303452438E+02  0.47000000000E+01 0. -1.
        -11    1    4    4    0    0  0.85482575748E+01  0.15404411447E+02  0.11634958124E+03  0.11767579893E+03  0.00000000000E+00 0.  1.
         12    1    4    4    0    0 -0.96802396116E+02  0.87623876416E+01  0.24256560572E+03  0.26131505201E+03  0.00000000000E+00 0. -1.
         -5    1    5    5    0  501  0.99064133555E+02  0.45901339676E+02  0.19169848043E+03  0.22066044716E+03  0.47000000000E+01 0.  1.
         13    1    6    6    0    0 -0.12671834200E+01  0.20574428126E+02  0.78562216959E+01  0.22059761237E+02  0.00000000000E+00 0. -1.
        -14    1    6    6    0    0  0.35564806531E+02 -0.65229284386E+02  0.91584054239E+02  0.11792944499E+03  0.00000000000E+00 0.  1.
</event>
<event>
12    1  0.2576962E-002  0.1775587E+03  0.7818608E-02  0.1170187E+00
          3   -1    0    0  502    0  0.00000000000E+00  0.00000000000E+00  0.24577583943E+02  0.24577583943E+02  0.00000000000E+00 0. -1.
         -3   -1    0    0    0  501 -0.00000000000E+00 -0.00000000000E+00 -0.13979969542E+04  0.13979969542E+04  0.00000000000E+00 0.  1.
          6    2    1    2  502    0  0.24507765388E+02  0.10397286122E+01 -0.90449374276E+03  0.92254441040E+03  0.17993761938E+03 0.  0.
         24    2    3    3    0    0 -0.50546571243E+02 -0.13787999141E+02 -0.34244789255E+03  0.35529610261E+03  0.78865053288E+02 0.  0.
         -6    2    1    2    0  501 -0.24507765388E+02 -0.10397286122E+01 -0.46892562745E+03  0.50003012770E+03  0.17186382087E+03 0.  0.
        -24    2    5    5    0    0  0.16868596407E+02  0.59408296037E+02 -0.27351726089E+03  0.29128989026E+03  0.78893681529E+02 0.  0.
          5    1    3    3  502    0  0.75054336631E+02  0.14827727754E+02 -0.56204585021E+03  0.56724830779E+03  0.47000000000E+01 0. -1.
        -11    1    4    4    0    0  0.97811630259E+01  0.11476097041E+02 -0.17312446415E+03  0.17377989539E+03  0.00000000000E+00 0.  1.
         12    1    4    4    0    0 -0.60327734269E+02 -0.25264096182E+02 -0.16932342840E+03  0.18151620722E+03  0.00000000000E+00 0. -1.
         -5    1    5    5    0  501 -0.41376361795E+02 -0.60448024649E+02 -0.19540836656E+03  0.20874023743E+03  0.47000000000E+01 0.  1.
         13    1    6    6    0    0 -0.10420662407E+02 -0.13010320788E+02 -0.19042442366E+02  0.25307573239E+02  0.00000000000E+00 0. -1.
        -14    1    6    6    0    0  0.27289258814E+02  0.72418616825E+02 -0.25447481852E+03  0.26598231703E+03  0.00000000000E+00 0.  1.
</event>
<event>
12    1  0.2576962E-002  0.2702136E+03  0.7818608E-02  0.1101157E+00
          2   -1    0    0  502    0  0.00000000000E+00  0.00000000000E+00  0.11579320969E+04  0.11579320969E+04  0.00000000000E+00 0.  1.
         -2   -1    0    0    0  501 -0.00000000000E+00 -0.00000000000E+00 -0.85502425906E+02  0.85502425906E+02  0.00000000000E+00 0. -1.
          6    2    1    2  502    0 -0.18121508417E+02 -0.21013477154E+03  0.85825496940E+03  0.90051993762E+03  0.17277023549E+03 0.  0.
         24    2    3    3    0    0 -0.73537724109E+02 -0.11766515595E+03  0.42452514759E+03  0.45356889433E+03  0.79058555367E+02 0.  0.
         -6    2    1    2    0  501  0.18121508417E+02  0.21013477154E+03  0.21417470156E+03  0.34291458515E+03  0.16502908423E+03 0.  0.
        -24    2    5    5    0    0  0.60234027361E+02  0.20052805630E+03  0.17346262514E+03  0.28337202562E+03  0.79817185899E+02 0.  0.
          5    1    3    3  502    0  0.55416215692E+02 -0.92469615596E+02  0.43372982182E+03  0.44695104330E+03  0.47000000000E+01 0. -1.
        -11    1    4    4    0    0 -0.82448253627E+01  0.11797426925E+02  0.30898039079E+02  0.34085851115E+02  0.00000000000E+00 0.  1.
         12    1    4    4    0    0 -0.65292898746E+02 -0.12946258287E+03  0.39362710851E+03  0.41948304321E+03  0.00000000000E+00 0. -1.
         -5    1    5    5    0  501 -0.42112518944E+02  0.96067152402E+01  0.40712076420E+02  0.59542559534E+02  0.47000000000E+01 0.  1.
         13    1    6    6    0    0  0.36043388778E+02  0.17539601709E+03  0.10776631988E+03  0.20898915854E+03  0.00000000000E+00 0. -1.
        -14    1    6    6    0    0  0.24190638583E+02  0.25132039211E+02  0.65696305257E+02  0.74382867076E+02  0.00000000000E+00 0.  1.
</event>
<event>
12    1  0.2576962E-002  0.1980323E+03  0.7818608E-02  0.1151410E+00
          1   -1    0    0  502    0  0.00000000000E+00  0.00000000000E+00  0.11826082891E+03  0.11826082891E+03  0.00000000000E+00 0. -1.
         -1   -1    0    0    0  501 -0.00000000000E+00 -0.00000000000E+00 -0.37265071114E+03  0.37265071114E+03  0.00000000000E+00 0.  1.
          6    2    1    2  502    0  0.77857059834E+02 -0.54566398378E+02 -0.45426697125E+02  0.20263681598E+03  0.17308633909E+03 0.  0.
         24    2    3    3    0    0  0.37555548048E+02 -0.10013501155E+03 -0.45676575256E+02  0.14162154905E+03  0.80826195627E+02 0.  0.
         -6    2    1    2    0  501 -0.77857059834E+02  0.54566398378E+02 -0.20896318510E+03  0.28827472408E+03  0.17434876029E+03 0.  0.
        -24    2    5    5    0    0 -0.99286025133E+02  0.90901249810E+02 -0.16401879306E+03  0.22645635821E+03  0.79117417129E+02 0.  0.
          5    1    3    3  502    0  0.40301511786E+02  0.45568613177E+02  0.24987813042E+00  0.61015266927E+02  0.47000000000E+01 0. -1.
        -13    1    4    4    0    0 -0.12551011315E+02 -0.34845313820E+01 -0.28596030774E+02  0.31422966442E+02  0.00000000000E+00 0.  1.
         14    1    4    4    0    0  0.50106559363E+02 -0.96650480172E+02 -0.17080544482E+02  0.11019858261E+03  0.00000000000E+00 0. -1.
         -5    1    5    5    0  501  0.21428965300E+02 -0.36334851432E+02 -0.44944392040E+02  0.61818365865E+02  0.47000000000E+01 0.  1.
         13    1    6    6    0    0 -0.88856296353E+02  0.69606633083E+02 -0.77932334221E+02  0.13716403861E+03  0.00000000000E+00 0. -1.
        -14    1    6    6    0    0 -0.10429728781E+02  0.21294616727E+02 -0.86086458843E+02  0.89292319604E+02  0.00000000000E+00 0.  1.
</event>
<event>
12    1  0.2576962E-002  0.2222795E+03  0.7818608E-02  0.1132195E+00
         -2   -1    0    0    0  501 -0.00000000000E+00  0.00000000000E+00  0.14951594839E+03  0.14951594839E+03  0.00000000000E+00 0. -1.
          2   -1    0    0  502    0  0.00000000000E+00 -0.00000000000E+00 -0.75548307335E+03  0.75548307335E+03  0.00000000000E+00 0.  1.
          6    2    1    2  502    0  0.22677025944E+02 -0.13970527053E+03 -0.64251542945E+03  0.67994928631E+03  0.17167744392E+03 0.  0.
         24    2    3    3    0    0  0.33460349286E+02 -0.56958328616E+02 -0.14994058462E+03  0.18033403012E+03  0.75328197444E+02 0.  0.
         -6    2    1    2    0  501 -0.22677025944E+02  0.13970527053E+03  0.36548304490E+02  0.22504973543E+03  0.17111339730E+03 0.  0.
        -24    2    5    5    0    0 -0.52282483164E+02  0.20735446807E+02 -0.19921684521E+01  0.96450512617E+02  0.78328257026E+02 0.  0.
          5    1    3    3  502    0 -0.10783323342E+02 -0.82746941912E+02 -0.49257484482E+03  0.49961525618E+03  0.47000000000E+01 0. -1.
        -13    1    4    4    0    0  0.26508899310E+02 -0.67082899795E+02 -0.15165397874E+03  0.16793381570E+03  0.00000000000E+00 0.  1.
         14    1    4    4    0    0  0.69514499757E+01  0.10124571179E+02  0.17133941185E+01  0.12400214423E+02  0.00000000000E+00 0. -1.
         -5    1    5    5    0  501  0.29605457220E+02  0.11896982372E+03  0.38540472942E+02  0.12859922281E+03  0.47000000000E+01 0.  1.
         11    1    6    6    0    0 -0.43210349888E+02  0.38459109732E+02  0.24909698632E+02  0.62981985875E+02  0.00000000000E+00 0. -1.
        -12    1    6    6    0    0 -0.90721332769E+01 -0.17723662924E+02 -0.26901867084E+02  0.33468526742E+02  0.00000000000E+00 0.  1.
</event>
<event>
12    1  0.2576962E-002  0.4356469E+03  0.7818608E-02  0.1032091E+00
         -2   -1    0    0    0  501 -0.00000000000E+00  0.00000000000E+00  0.19178337409E+03  0.19178337409E+03  0.00000000000E+00 0.  1.
          2   -1    0    0  502    0  0.00000000000E+00 -0.00000000000E+00 -0.10513881075E+04  0.10513881075E+04  0.00000000000E+00 0. -1.
          6    2    1    2  502    0 -0.38406511183E+03  0.11325588010E+03 -0.58037850242E+03  0.72561765421E+03  0.17131511766E+03 0.  0.
         24    2    3    3    0    0 -0.18991731993E+03  0.65586897735E+02 -0.40732087722E+03  0.46116212181E+03  0.79937325525E+02 0.  0.
         -6    2    1    2    0  501  0.38406511183E+03 -0.11325588010E+03 -0.27922623098E+03  0.51755382736E+03  0.17193537055E+03 0.  0.
        -24    2    5    5    0    0  0.18582713045E+03 -0.34567267898E+02 -0.64512195428E+02  0.21487511649E+03  0.79264581657E+02 0.  0.
          5    1    3    3  502    0 -0.19414779190E+03  0.47668982364E+02 -0.17305762520E+03  0.26445553240E+03  0.47000000000E+01 0. -1.
        -13    1    4    4    0    0 -0.39770961126E+02  0.43106129956E+02 -0.70502883031E+02  0.91708910714E+02  0.00000000000E+00 0.  1.
         14    1    4    4    0    0 -0.15014635880E+03  0.22480767779E+02 -0.33681799419E+03  0.36945321109E+03  0.00000000000E+00 0. -1.
         -5    1    5    5    0  501  0.19823798137E+03 -0.78688612202E+02 -0.21471403555E+03  0.30267871087E+03  0.47000000000E+01 0.  1.
         11    1    6    6    0    0  0.10839626784E+03 -0.22529314514E+02 -0.77908216232E+02  0.13537729149E+03  0.00000000000E+00 0. -1.
        -12    1    6    6    0    0  0.77430862613E+02 -0.12037953384E+02  0.13396020804E+02  0.79497825002E+02  0.00000000000E+00 0.  1.
</event>
<event>
12    1  0.2576962E-002  0.1807687E+03  0.7818608E-02  0.1167061E+00
         -2   -1    0    0    0  501 -0.00000000000E+00  0.00000000000E+00  0.50712622762E+02  0.50712622762E+02  0.00000000000E+00 0. -1.
          2   -1    0    0  502    0  0.00000000000E+00 -0.00000000000E+00 -0.71392276849E+03  0.71392276849E+03  0.00000000000E+00 0.  1.
          6    2    1    2  502    0  0.51894459298E+02  0.13590949496E+02 -0.21137902959E+03  0.27778392319E+03  0.17206122462E+03 0.  0.
         24    2    3    3    0    0 -0.25915053475E+02  0.44763399455E+02 -0.12383779847E+03  0.15649254237E+03  0.80490766927E+02 0.  0.
         -6    2    1    2    0  501 -0.51894459298E+02 -0.13590949496E+02 -0.45183111614E+03  0.48685146806E+03  0.17319135554E+03 0.  0.
        -24    2    5    5    0    0 -0.55711519716E+02  0.54244869062E+02 -0.22243593566E+03  0.24755979028E+03  0.75906686416E+02 0.  0.
          5    1    3    3  502    0  0.77809512773E+02 -0.31172449959E+02 -0.87541231124E+02  0.12129138082E+03  0.47000000000E+01 0. -1.
        -13    1    4    4    0    0 -0.19276731728E+02  0.16223562672E+02 -0.12465869300E+03  0.12717934625E+03  0.00000000000E+00 0.  1.
         14    1    4    4    0    0 -0.66383217470E+01  0.28539836783E+02  0.82089452711E+00  0.29313196125E+02  0.00000000000E+00 0. -1.
         -5    1    5    5    0  501  0.38170604178E+01 -0.67835818558E+02 -0.22939518048E+03  0.23929167778E+03  0.47000000000E+01 0.  1.
         11    1    6    6    0    0 -0.60125276538E+02  0.10225489993E+02 -0.15833118695E+03  0.16967137144E+03  0.00000000000E+00 0. -1.
        -12    1    6    6    0    0  0.44137568225E+01  0.44019379069E+02 -0.64104748710E+02  0.77888418844E+02  0.00000000000E+00 0.  1.
</event>
<event>
12    1  0.2576962E-002  0.1924630E+03  0.7818608E-02  0.1156258E+00
          1   -1    0    0  502    0  0.00000000000E+00  0.00000000000E+00  0.35407289206E+03  0.35407289206E+03  0.00000000000E+00 0.  1.
         -1   -1    0    0    0  501 -0.00000000000E+00 -0.00000000000E+00 -0.11281369590E+03  0.11281369590E+03  0.00000000000E+00 0. -1.
          6    2    1    2  502    0  0.60117173528E+02  0.60905315928E+02  0.57482538697E+02  0.20049540803E+03  0.17196114191E+03 0.  0.
         24    2    3    3    0    0  0.21220513078E+02 -0.32203217574E+02  0.38574039280E+02  0.97724932920E+02  0.81085440188E+02 0.  0.
         -6    2    1    2    0  501 -0.60117173528E+02 -0.60905315928E+02  0.18377665746E+03  0.26639117992E+03  0.17282033691E+03 0.  0.
        -24    2    5    5    0    0 -0.10127688594E+02  0.29802204807E+02  0.59789209978E+02  0.10476884218E+03  0.80068840221E+02 0.  0.
          5    1    3    3  502    0  0.38896660450E+02  0.93108533501E+02  0.18908499417E+02  0.10277047511E+03  0.47000000000E+01 0. -1.
        -11    1    4    4    0    0 -0.24435661753E+02  0.48317398036E+01 -0.38810977182E+01  0.25209327526E+02  0.00000000000E+00 0.  1.
         12    1    4    4    0    0  0.45656174831E+02 -0.37034957377E+02  0.42455136998E+02  0.72515605394E+02  0.00000000000E+00 0. -1.
         -5    1    5    5    0  501 -0.49989484934E+02 -0.90707520735E+02  0.12398744749E+03  0.16162233774E+03  0.47000000000E+01 0.  1.
         11    1    6    6    0    0 -0.17448886000E+02  0.35644976765E+02 -0.43727226340E+01  0.39926791687E+02  0.00000000000E+00 0. -1.
        -12    1    6    6    0    0  0.73211974067E+01 -0.58427719574E+01  0.64161932612E+02  0.64842050493E+02  0.00000000000E+00 0.  1.
</event>
<event>
12    1  0.2576962E-002  0.2356336E+03  0.7818608E-02  0.1122736E+00
          1   -1    0    0  502    0  0.00000000000E+00  0.00000000000E+00  0.70619733599E+03  0.70619733599E+03  0.00000000000E+00 0. -1.
         -1   -1    0    0    0  501 -0.00000000000E+00 -0.00000000000E+00 -0.79779366873E+02  0.79779366873E+02  0.00000000000E+00 0.  1.
          6    2    1    2  502    0 -0.87041304369E+02  0.13458795941E+03  0.35928635359E+03  0.42915569132E+03  0.17145791328E+03 0.  0.
         24    2    3    3    0    0 -0.23982991675E+02  0.44293358824E+02  0.64547586093E+02  0.11447728919E+03  0.80009832802E+02 0.  0.
         -6    2    1    2    0  501  0.87041304369E+02 -0.13458795941E+03  0.26713161552E+03  0.35682101155E+03  0.17398800759E+03 0.  0.
        -24    2    5    5    0    0 -0.12770807083E+02 -0.55532563053E+02  0.17172906462E+03  0.19764830658E+03  0.79542582233E+02 0.  0.
          5    1    3    3  502    0 -0.63058312694E+02  0.90294600588E+02  0.29473876750E+03  0.31467840212E+03  0.47000000000E+01 0. -1.
        -11    1    4    4    0    0 -0.34740414163E+02 -0.86741113225E+01  0.88883525678E+01  0.36893622685E+02  0.00000000000E+00 0.  1.
         12    1    4    4    0    0  0.10757422488E+02  0.52967470146E+02  0.55659233525E+02  0.77583666508E+02  0.00000000000E+00 0. -1.
         -5    1    5    5    0  501  0.99812111452E+02 -0.79055396358E+02  0.95402550905E+02  0.15917270496E+03  0.47000000000E+01 0.  1.
         13    1    6    6    0    0 -0.38783181342E+01  0.77942380482E+01  0.10450375028E+03  0.10486574903E+03  0.00000000000E+00 0. -1.
        -14    1    6    6    0    0 -0.88924889488E+01 -0.63326801102E+02  0.67225314339E+02  0.92782557550E+02  0.00000000000E+00 0.  1.
</event>
<event>
12    1  0.2576962E-002  0.1856209E+03  0.7818608E-02  0.1162471E+00
          2   -1    0    0  502    0  0.00000000000E+00  0.00000000000E+00  0.39932893646E+03  0.39932893646E+03  0.00000000000E+00 0.  1.
         -2   -1    0    0    0  501 -0.00000000000E+00 -0.00000000000E+00 -0.93947918313E+02  0.93947918313E+02  0.00000000000E+00 0. -1.
          6    2    1    2  502    0 -0.49217421597E+02  0.56743337334E+02  0.82723034853E+02  0.20379867822E+03  0.17043661529E+03 0.  0.
         24    2    3    3    0    0 -0.44503104245E+02  0.17149203065E+02 -0.20790627253E+02  0.92771255940E+02  0.76809076897E+02 0.  0.
         -6    2    1    2    0  501  0.49217421597E+02 -0.56743337334E+02  0.22265798329E+03  0.28947817655E+03  0.16905288005E+03 0.  0.
        -24    2    5    5    0    0  0.95008758424E+02 -0.56022395434E+02  0.14400779499E+03  0.19834471175E+03  0.80232204844E+02 0.  0.
          5    1    3    3  502    0 -0.47143173523E+01  0.39594134269E+02  0.10351366211E+03  0.11102742229E+03  0.47000000000E+01 0. -1.
        -13    1    4    4    0    0 -0.43211682890E+01  0.26450944638E+01  0.27692758906E+02  0.28152405153E+02  0.00000000000E+00 0.  1.
         14    1    4    4    0    0 -0.40181935956E+02  0.14504108602E+02 -0.48483386159E+02  0.64618850786E+02  0.00000000000E+00 0. -1.
         -5    1    5    5    0  501 -0.45791336827E+02 -0.72094189994E+00  0.78650188306E+02  0.91133464799E+02  0.47000000000E+01 0.  1.
         13    1    6    6    0    0  0.78604109624E+02 -0.65504781287E+02  0.75218032138E+02  0.12699305012E+03  0.00000000000E+00 0. -1.
        -14    1    6    6    0    0  0.16404648800E+02  0.94823858528E+01  0.68789762848E+02  0.71351661623E+02  0.00000000000E+00 0.  1.
</event>
<event>
12    1  0.2576962E-002  0.2020274E+03  0.7818608E-02  0.1148040E+00
          1   -1    0    0  502    0  0.00000000000E+00  0.00000000000E+00  0.71116667271E+03  0.71116667271E+03  0.00000000000E+00 0. -1.
         -1   -1    0    0    0  501 -0.00000000000E+00 -0.00000000000E+00 -0.74236703373E+02  0.74236703373E+02  0.00000000000E+00 0.  1.
          6    2    1    2  502    0  0.10430906356E+03  0.24067775990E+02  0.13099826467E+03  0.24050311527E+03  0.17094316168E+03 0.  0.
         24    2    3    3    0    0  0.21285602988E+02 -0.39825888169E+02  0.88366448507E+02  0.12730038970E+03  0.79734445093E+02 0.  0.
         -6    2    1    2    0  501 -0.10430906356E+03 -0.24067775990E+02  0.50593170466E+03  0.54490026082E+03  0.17172584509E+03 0.  0.
        -24    2    5    5    0    0 -0.68486795345E+02 -0.17894118892E+02  0.49583368044E+03  0.50688172540E+03  0.77893544364E+02 0.  0.
          5    1    3    3  502    0  0.83023460575E+02  0.63893664158E+02  0.42631816167E+02  0.11320272556E+03  0.47000000000E+01 0. -1.
        -11    1    4    4    0    0  0.31269059026E+02 -0.41288545082E+02  0.15962639237E+02  0.54196898977E+02  0.00000000000E+00 0.  1.
         12    1    4    4    0    0 -0.99834560385E+01  0.14626569132E+01  0.72403809270E+02  0.73103490727E+02  0.00000000000E+00 0. -1.
         -5    1    5    5    0  501 -0.35822268218E+02 -0.61736570972E+01  0.10098024223E+02  0.38018535419E+02  0.47000000000E+01 0.  1.
         11    1    6    6    0    0  0.30950183820E+01 -0.29995661534E+01  0.25861637318E+03  0.25865228592E+03  0.00000000000E+00 0. -1.
        -12    1    6    6    0    0 -0.71581813727E+02 -0.14894552739E+02  0.23721730726E+03  0.24822943948E+03  0.00000000000E+00 0.  1.
</event>
<event>
12    1  0.2576962E-002  0.1940290E+03  0.7818608E-02  0.1154877E+00
          1   -1    0    0  502    0  0.00000000000E+00  0.00000000000E+00  0.13840630437E+04  0.13840630437E+04  0.00000000000E+00 0.  1.
         -1   -1    0    0    0  501 -0.00000000000E+00 -0.00000000000E+00 -0.27231291888E+02  0.27231291888E+02  0.00000000000E+00 0. -1.
          6    2    1    2  502    0 -0.14379003184E+01 -0.77497879762E+02  0.67557971775E+03  0.70152406883E+03  0.17239511357E+03 0.  0.
         24    2    3    3    0    0  0.30717271340E+02 -0.10737373747E+03  0.41494254595E+03  0.43717515685E+03  0.80449556072E+02 0.  0.
         -6    2    1    2    0  501  0.14379003184E+01  0.77497879762E+02  0.68125203408E+03  0.70977026678E+03  0.18347072994E+03 0.  0.
        -24    2    5    5    0    0 -0.15306589059E+02  0.11612363862E+03  0.37781427867E+03  0.40338996621E+03  0.79125498763E+02 0.  0.
          5    1    3    3  502    0 -0.32155171658E+02  0.29875857706E+02  0.26063717180E+03  0.26434891198E+03  0.47000000000E+01 0. -1.
        -13    1    4    4    0    0  0.39015037383E+02 -0.10423850390E+03  0.41346384780E+03  0.42818242873E+03  0.00000000000E+00 0.  1.
         14    1    4    4    0    0 -0.82977660437E+01 -0.31352335685E+01  0.14786981524E+01  0.89927281217E+01  0.00000000000E+00 0. -1.
         -5    1    5    5    0  501  0.16744489378E+02 -0.38625758858E+02  0.30343775541E+03  0.30638030058E+03  0.47000000000E+01 0.  1.
         11    1    6    6    0    0  0.19106462320E+02  0.25692412747E+02  0.36156364671E+02  0.48295338092E+02  0.00000000000E+00 0. -1.
        -12    1    6    6    0    0 -0.34413051380E+02  0.90431225873E+02  0.34165791400E+03  0.35509462812E+03  0.00000000000E+00 0.  1.
</event>
<event>
12    1  0.2576962E-002  0.1699863E+03  0.7818608E-02  0.1177862E+00
          1   -1    0    0  502    0  0.00000000000E+00  0.00000000000E+00  0.34414204410E+03  0.34414204410E+03  0.00000000000E+00 0.  1.
         -1   -1    0    0    0  501 -0.00000000000E+00 -0.00000000000E+00 -0.88325485423E+02  0.88325485423E+02  0.00000000000E+00 0. -1.
          6    2    1    2  502    0 -0.15854043850E+02 -0.16013608794E+02  0.78025127579E+02  0.18457819052E+03  0.16575102265E+03 0.  0.
         24    2    3    3    0    0 -0.45576048472E+02 -0.14470155801E+02  0.10755612612E+03  0.14238874064E+03  0.80122853119E+02 0.  0.
         -6    2    1    2    0  501  0.15854043850E+02  0.16013608794E+02  0.17779143110E+03  0.24788933901E+03  0.17126454697E+03 0.  0.
        -24    2    5    5    0    0  0.64643186092E+02 -0.24685678033E+02  0.84926046448E+02  0.13527103670E+03  0.79358022879E+02 0.  0.
          5    1    3    3  502    0  0.29722004622E+02 -0.15434529934E+01 -0.29530998543E+02  0.42189449876E+02  0.47000000000E+01 0. -1.
        -13    1    4    4    0    0  0.69928239270E+01  0.18343677417E+02  0.16706953279E+01  0.19702317390E+02  0.00000000000E+00 0.  1.
         14    1    4    4    0    0 -0.52568872399E+02 -0.32813833218E+02  0.10588543079E+03  0.12268642325E+03  0.00000000000E+00 0. -1.
         -5    1    5    5    0  501 -0.48789142242E+02  0.40699286828E+02  0.92865384651E+02  0.11261830231E+03  0.47000000000E+01 0.  1.
         11    1    6    6    0    0  0.26853199025E+02 -0.52081340681E+02  0.48480977889E+02  0.76052386958E+02  0.00000000000E+00 0. -1.
        -12    1    6    6    0    0  0.37789987067E+02  0.27395662647E+02  0.36445068559E+02  0.59218649737E+02  0.00000000000E+00 0.  1.
</event>
<event>
12    1  0.2576962E-002  0.1779131E+03  0.7818608E-02  0.1169838E+00
          2   -1    0    0  502    0  0.00000000000E+00  0.00000000000E+00  0.28849371999E+03  0.28849371999E+03  0.00000000000E+00 0. -1.
         -2   -1    0    0    0  501 -0.00000000000E+00 -0.00000000000E+00 -0.11484856533E+03  0.11484856533E+03  0.00000000000E+00 0.  1.
          6    2    1    2  502    0  0.32405853626E+02 -0.13019206553E+02  0.12872337749E+03  0.21840534804E+03  0.17294955637E+03 0.  0.
         24    2    3    3    0    0  0.56420264417E+02 -0.43033532892E+02  0.27895660529E+02  0.11039668996E+03  0.79838149322E+02 0.  0.
         -6    2    1    2    0  501 -0.32405853626E+02  0.13019206553E+02  0.44921777166E+02  0.18493693729E+03  0.17596609225E+03 0.  0.
        -24    2    5    5    0    0 -0.85712952308E+02 -0.11956552474E+02  0.16360854562E+02  0.11933776344E+03  0.80524250269E+02 0.  0.
          5    1    3    3  502    0 -0.24014410792E+02  0.30014326338E+02  0.10082771697E+03  0.10800865808E+03  0.47000000000E+01 0. -1.
        -13    1    4    4    0    0  0.27971866953E+02 -0.64087756546E+02  0.96825991138E+01  0.70593332586E+02  0.00000000000E+00 0.  1.
         14    1    4    4    0    0  0.28448397464E+02  0.21054223654E+02  0.18213061415E+02  0.39803357372E+02  0.00000000000E+00 0. -1.
         -5    1    5    5    0  501  0.53307098682E+02  0.24975759027E+02  0.28560922603E+02  0.65599173843E+02  0.47000000000E+01 0.  1.
         11    1    6    6    0    0 -0.54533406914E+02  0.51420353563E+01  0.47170729195E+02  0.72287002221E+02  0.00000000000E+00 0. -1.
        -12    1    6    6    0    0 -0.31179545394E+02 -0.17098587830E+02 -0.30809874633E+02  0.47050761223E+02  0.00000000000E+00 0.  1.
</event>
<event>
12    1  0.2576962E-002  0.1885926E+03  0.7818608E-02  0.1159737E+00
          2   -1    0    0  502    0  0.00000000000E+00  0.00000000000E+00  0.17965645655E+03  0.17965645655E+03  0.00000000000E+00 0.  1.
         -2   -1    0    0    0  501 -0.00000000000E+00 -0.00000000000E+00 -0.20171721758E+03  0.20171721758E+03  0.00000000000E+00 0. -1.
          6    2    1    2  502    0 -0.65120307224E+02  0.49089110343E+02  0.14796938501E+02  0.19084828860E+03  0.17191196790E+03 0.  0.
         24    2    3    3    0    0  0.31731044917E+02  0.14574828915E+02  0.14502864003E+02  0.87923089970E+02  0.79377905214E+02 0.  0.
         -6    2    1    2    0  501  0.65120307224E+02 -0.49089110343E+02 -0.36857699534E+02  0.19052538552E+03  0.16819939758E+03 0.  0.
        -24    2    5    5    0    0  0.30457769691E+02 -0.21172229360E+02 -0.86594735349E+02  0.12361719108E+03  0.80041381231E+02 0.  0.
          5    1    3    3  502    0 -0.96851352141E+02  0.34514281428E+02  0.29407449802E+00  0.10292519863E+03  0.47000000000E+01 0. -1.
        -13    1    4    4    0    0 -0.21665022748E+02 -0.10344064870E+02  0.16220276546E+02  0.28973613167E+02  0.00000000000E+00 0.  1.
         14    1    4    4    0    0  0.53396067665E+02  0.24918893785E+02 -0.17174125429E+01  0.58949476803E+02  0.00000000000E+00 0. -1.
         -5    1    5    5    0  501  0.34662537534E+02 -0.27916880983E+02  0.49737035815E+02  0.66908194444E+02  0.47000000000E+01 0.  1.
         13    1    6    6    0    0  0.28226182969E+02  0.26246740454E+02 -0.52683571541E+02  0.65277618674E+02  0.00000000000E+00 0. -1.
        -14    1    6    6    0    0  0.22315867221E+01 -0.47418969814E+02 -0.33911163808E+02  0.58339572404E+02  0.00000000000E+00 0.  1.
</event>
<event>
12    1  0.2576962E-002  0.2219201E+03  0.7818608E-02  0.1132460E+00
         -1   -1    0    0    0  501 -0.00000000000E+00  0.00000000000E+00  0.39920691665E+02  0.39920691665E+02  0.00000000000E+00 0. -1.
          1   -1    0    0  502    0  0.00000000000E+00 -0.00000000000E+00 -0.19333712358E+04  0.19333712358E+04  0.00000000000E+00 0.  1.
          6    2    1    2  502    0 -0.11327725783E+03  0.83905077645E+02 -0.35250495291E+03  0.41641361371E+03  0.17108114057E+03 0.  0.
         24    2    3    3    0    0 -0.11456403520E+03  0.29095193920E+02 -0.32526760649E+03  0.35501538743E+03  0.79154665132E+02 0.  0.
         -6    2    1    2    0  501  0.11327725783E+03 -0.83905077645E+02 -0.15409455912E+04  0.15568783138E+04  0.17171187941E+03 0.  0.
        -24    2    5    5    0    0 -0.92554885879E+01 -0.40994225702E+02 -0.74784695538E+03  0.75320975562E+03  0.79269645374E+02 0.  0.
          5    1    3    3  502    0  0.12867773672E+01  0.54809883724E+02 -0.27237346418E+02  0.61398226275E+02  0.47000000000E+01 0. -1.
        -11    1    4    4    0    0 -0.23606882070E+02  0.17270751392E+02 -0.18580830607E+03  0.18809649210E+03  0.00000000000E+00 0.  1.
         12    1    4    4    0    0 -0.90957153126E+02  0.11824442528E+02 -0.13945930041E+03  0.16691889533E+03  0.00000000000E+00 0. -1.
         -5    1    5    5    0  501  0.12253274642E+03 -0.42910851943E+02 -0.79309863585E+03  0.80366855814E+03  0.47000000000E+01 0.  1.
         11    1    6    6    0    0  0.19248937935E+02  0.16579047130E+02 -0.22592341327E+03  0.22734725659E+03  0.00000000000E+00 0. -1.
        -12    1    6    6    0    0 -0.28504426523E+02 -0.57573272832E+02 -0.52192354211E+03  0.52586249903E+03  0.00000000000E+00 0.  1.
</event>
<event>
12    1  0.2576962E-002  0.3207764E+03  0.7818608E-02  0.1075293E+00
          2   -1    0    0  502    0  0.00000000000E+00  0.00000000000E+00  0.16097081622E+04  0.16097081622E+04  0.00000000000E+00 0.  1.
         -2   -1    0    0    0  501 -0.00000000000E+00 -0.00000000000E+00 -0.10822351572E+03  0.10822351572E+03  0.00000000000E+00 0. -1.
          6    2    1    2  502    0 -0.22579300011E+03  0.14779348905E+03  0.12999859604E+04  0.13389219777E+04  0.17298315204E+03 0.  0.
         24    2    3    3    0    0 -0.10675536426E+03  0.59533382713E+02  0.91238140840E+03  0.92392898519E+03  0.79145459943E+02 0.  0.
         -6    2    1    2    0  501  0.22579300011E+03 -0.14779348905E+03  0.20149868611E+03  0.37900970023E+03  0.17384256689E+03 0.  0.
        -24    2    5    5    0    0  0.16456816477E+03 -0.13064593387E+03  0.21748202269E+03  0.31328241397E+03  0.81831533149E+02 0.  0.
          5    1    3    3  502    0 -0.11903763585E+03  0.88260106333E+02  0.38760455200E+03  0.41499299253E+03  0.47000000000E+01 0. -1.
        -11    1    4    4    0    0 -0.93971888996E+02  0.69791148099E+02  0.61155688534E+03  0.62265828853E+03  0.00000000000E+00 0.  1.
         12    1    4    4    0    0 -0.12783475269E+02 -0.10257765386E+02  0.30082452306E+03  0.30127069666E+03  0.00000000000E+00 0. -1.
         -5    1    5    5    0  501  0.61224835343E+02 -0.17147555178E+02 -0.15983336581E+02  0.65727286264E+02  0.47000000000E+01 0.  1.
         13    1    6    6    0    0  0.14698237866E+03 -0.75521264663E+02  0.14000894309E+03  0.21658666903E+03  0.00000000000E+00 0. -1.
        -14    1    6    6    0    0  0.17585786105E+02 -0.55124669206E+02  0.77473079595E+02  0.96695744942E+02  0.00000000000E+00 0.  1.
</event>
<event>
12    1  0.2576962E-002  0.1777815E+03  0.7818608E-02  0.1169968E+00
          2   -1    0    0  502    0  0.00000000000E+00  0.00000000000E+00  0.12986068473E+04  0.12986068473E+04  0.00000000000E+00 0.  1.
         -2   -1    0    0    0  501 -0.00000000000E+00 -0.00000000000E+00 -0.24756058092E+02  0.24756058092E+02  0.00000000000E+00 0. -1.
          6    2    1    2  502    0 -0.47562859968E+02  0.19952424438E+02  0.71746784274E+03  0.73881341104E+03  0.16859663719E+03 0.  0.
         24    2    3    3    0    0 -0.80564717177E+01 -0.26223168199E+02  0.19085948803E+03  0.20868947334E+03  0.79820992382E+02 0.  0.
         -6    2    1    2    0  501  0.47562859968E+02 -0.19952424438E+02  0.55638294649E+03  0.58454949438E+03  0.17168518673E+03 0.  0.
        -24    2    5    5    0    0 -0.24423580350E+02 -0.10785024826E+02  0.43660435683E+03  0.44442423132E+03  0.78592015796E+02 0.  0.
          5    1    3    3  502    0 -0.39506388250E+02  0.46175592637E+02  0.52660835472E+03  0.53012393770E+03  0.47000000000E+01 0. -1.
        -13    1    4    4    0    0 -0.35058595156E+01 -0.67136814879E+01  0.18834715512E+03  0.18849937775E+03  0.00000000000E+00 0.  1.
         14    1    4    4    0    0 -0.45506122021E+01 -0.19509486711E+02  0.25123329058E+01  0.20190095586E+02  0.00000000000E+00 0. -1.
         -5    1    5    5    0  501  0.71986440319E+02 -0.91673996116E+01  0.11977858966E+03  0.14012526306E+03  0.47000000000E+01 0.  1.
         11    1    6    6    0    0 -0.57957867644E+01 -0.43411611721E+02  0.19057074553E+03  0.19553866172E+03  0.00000000000E+00 0. -1.
        -12    1    6    6    0    0 -0.18627793586E+02  0.32626586894E+02  0.24603361130E+03  0.24888556960E+03  0.00000000000E+00 0.  1.
</event>
<event>
12    1  0.2576962E-002  0.2145623E+03  0.7818608E-02  0.1138003E+00
          2   -1    0    0  502    0  0.00000000000E+00  0.00000000000E+00  0.25076686310E+03  0.25076686310E+03  0.00000000000E+00 0. -1.
         -2   -1    0    0    0  501 -0.00000000000E+00 -0.00000000000E+00 -0.19269166099E+03  0.19269166099E+03  0.00000000000E+00 0.  1.
          6    2    1    2  502    0 -0.55960170592E+01  0.12914202660E+03 -0.19331381837E+02  0.21396932413E+03  0.16941130689E+03 0.  0.
         24    2    3    3    0    0 -0.15669092262E+00  0.15752203303E+03 -0.31715068240E+02  0.18218164220E+03  0.85855050859E+02 0.  0.
         -6    2    1    2    0  501  0.55960170592E+01 -0.12914202660E+03  0.77406583946E+02  0.22948919996E+03  0.17310267247E+03 0.  0.
        -24    2    5    5    0    0  0.34662468799E+02 -0.13791432605E+03  0.19305182954E+02  0.16376496811E+03  0.78895035450E+02 0.  0.
          5    1    3    3  502    0 -0.54393261366E+01 -0.28380006428E+02  0.12383686403E+02  0.31787681932E+02  0.47000000000E+01 0. -1.
        -13    1    4    4    0    0  0.32878481054E+02  0.22335748266E+02 -0.12682836704E+02  0.41722110612E+02  0.00000000000E+00 0.  1.
         14    1    4    4    0    0 -0.33035171977E+02  0.13518628476E+03 -0.19032231536E+02  0.14045953159E+03  0.00000000000E+00 0. -1.
         -5    1    5    5    0  501 -0.29066451740E+02  0.87722994461E+01  0.58101400992E+02  0.65724231845E+02  0.47000000000E+01 0.  1.
         11    1    6    6    0    0  0.57492066140E+02 -0.10819711793E+03  0.21281674003E+01  0.12254176061E+03  0.00000000000E+00 0. -1.
        -12    1    6    6    0    0 -0.22829597341E+02 -0.29717208116E+02  0.17177015553E+02  0.41223207496E+02  0.00000000000E+00 0.  1.
</event>
<event>
12    1  0.2576962E-002  0.1898519E+03  0.7818608E-02  0.1158595E+00
          1   -1    0    0  502    0  0.00000000000E+00  0.00000000000E+00  0.69870863865E+02  0.69870863865E+02  0.00000000000E+00 0. -1.
         -1   -1    0    0    0  501 -0.00000000000E+00 -0.00000000000E+00 -0.61900750106E+03  0.61900750106E+03  0.00000000000E+00 0.  1.
          6    2    1    2  502    0 -0.18818848459E+02  0.75613364632E+02 -0.13256030491E+03  0.23058742207E+03  0.17183362537E+03 0.  0.
         24    2    3    3    0    0  0.18136510133E+02  0.11123716097E+03 -0.86702109582E+02  0.16159599163E+03  0.76768285930E+02 0.  0.
         -6    2    1    2    0  501  0.18818848459E+02 -0.75613364632E+02 -0.41657633228E+03  0.45829094286E+03  0.17442252641E+03 0.  0.
        -24    2    5    5    0    0  0.35492246868E+02 -0.78672478274E+02 -0.14814559598E+03  0.18928441769E+03  0.80202336294E+02 0.  0.
          5    1    3    3  502    0 -0.36955358592E+02 -0.35623796341E+02 -0.45858195332E+02  0.68991430436E+02  0.47000000000E+01 0. -1.
        -13    1    4    4    0    0  0.33992612804E+02  0.14661912458E+02 -0.34838153495E+02  0.50834696233E+02  0.00000000000E+00 0.  1.
         14    1    4    4    0    0 -0.15856102671E+02  0.96575248514E+02 -0.51863956087E+02  0.11076129540E+03  0.00000000000E+00 0. -1.
         -5    1    5    5    0  501 -0.16673398409E+02  0.30591136420E+01 -0.26843073630E+03  0.26900652517E+03  0.47000000000E+01 0.  1.
         13    1    6    6    0    0  0.44579278986E+02 -0.89435528899E+02 -0.14263828970E+03  0.17416000584E+03  0.00000000000E+00 0. -1.
        -14    1    6    6    0    0 -0.90870321180E+01  0.10763050625E+02 -0.55073062769E+01  0.15124411853E+02  0.00000000000E+00 0.  1.
</event>
<event>
12    1  0.2576962E-002  0.2060249E+03  0.7818608E-02  0.1144753E+00
         -1   -1    0    0    0  501 -0.00000000000E+00  0.00000000000E+00  0.37224216440E+02  0.37224216440E+02  0.00000000000E+00 0. -1.
          1   -1    0    0  502    0  0.00000000000E+00 -0.00000000000E+00 -0.11411123156E+04  0.11411123156E+04  0.00000000000E+00 0.  1.
          6    2    1    2  502    0 -0.10986609696E+03  0.15920728727E+02 -0.57257388575E+03  0.60931268583E+03  0.17634360096E+03 0.  0.
         24    2    3    3    0    0  0.49541779034E+00  0.46487239037E+02 -0.21632247578E+03  0.23507862457E+03  0.79405524835E+02 0.  0.
         -6    2    1    2    0  501  0.10986609696E+03 -0.15920728727E+02 -0.53131421342E+03  0.56902384623E+03  0.17079026708E+03 0.  0.
        -24    2    5    5    0    0  0.13403811172E+03  0.19642285457E+02 -0.36933957915E+03  0.40137276087E+03  0.79601090873E+02 0.  0.
          5    1    3    3  502    0 -0.11036151475E+03 -0.30566510311E+02 -0.35625140998E+03  0.37423406125E+03  0.47000000000E+01 0. -1.
        -13    1    4    4    0    0  0.86896139394E+01  0.25638263783E+02 -0.21008922892E+03  0.21182614114E+03  0.00000000000E+00 0.  1.
         14    1    4    4    0    0 -0.81941961491E+01  0.20848975254E+02 -0.62332468538E+01  0.23252483438E+02  0.00000000000E+00 0. -1.
         -5    1    5    5    0  501 -0.24172014765E+02 -0.35563014184E+02 -0.16197463427E+03  0.16765108536E+03  0.47000000000E+01 0.  1.
         11    1    6    6    0    0  0.11830296382E+03  0.24306400071E+02 -0.21861838749E+03  0.24976066880E+03  0.00000000000E+00 0. -1.
        -12    1    6    6    0    0  0.15735147904E+02 -0.46641146143E+01 -0.15072119166E+03  0.15161209207E+03  0.00000000000E+00 0.  1.
</event>
<event>
12    1  0.2576962E-002  0.1772063E+03  0.7818608E-02  0.1170534E+00
         -2   -1    0    0    0  501 -0.00000000000E+00  0.00000000000E+00  0.24235575113E+03  0.24235575113E+03  0.00000000000E+00 0.  1.
          2   -1    0    0  502    0  0.00000000000E+00 -0.00000000000E+00 -0.13992602885E+03  0.13992602885E+03  0.00000000000E+00 0. -1.
          6    2    1    2  502    0 -0.41751318323E+02  0.69128193666E+01  0.10333543544E+03  0.20553467950E+03  0.17255530304E+03 0.  0.
         24    2    3    3    0    0 -0.34464657720E+02 -0.24261899835E+02  0.13351011919E+03  0.16129035693E+03  0.80082300763E+02 0.  0.
         -6    2    1    2    0  501  0.41751318323E+02 -0.69128193666E+01 -0.90571316011E+00  0.17674710048E+03  0.17160348936E+03 0.  0.
        -24    2    5    5    0    0  0.41969580196E+02 -0.59421250305E+02 -0.49433255951E+02  0.10509380072E+03  0.57521556878E+02 0.  0.
          5    1    3    3  502    0 -0.72866606030E+01  0.31174719202E+02 -0.30174683756E+02  0.44244322572E+02  0.47000000000E+01 0. -1.
        -11    1    4    4    0    0 -0.51071389068E+02  0.10326268805E+02  0.78697798187E+02  0.94383589931E+02  0.00000000000E+00 0.  1.
         12    1    4    4    0    0  0.16606731347E+02 -0.34588168640E+02  0.54812321005E+02  0.66906766996E+02  0.00000000000E+00 0. -1.
         -5    1    5    5    0  501 -0.21826187262E+00  0.52508430939E+02  0.48527542791E+02  0.71653299765E+02  0.47000000000E+01 0.  1.
         13    1    6    6    0    0  0.29588337960E+02 -0.11516720352E+02 -0.45467742969E+02  0.55456471594E+02  0.00000000000E+00 0. -1.
        -14    1    6    6    0    0  0.12381242236E+02 -0.47904529953E+02 -0.39655129818E+01  0.49637329124E+02  0.00000000000E+00 0.  1.
</event>
<event>
12    1  0.2576962E-002  0.1911597E+03  0.7818608E-02  0.1157420E+00
          2   -1    0    0  502    0  0.00000000000E+00  0.00000000000E+00  0.40466233461E+03  0.40466233461E+03  0.00000000000E+00 0. -1.
         -2   -1    0    0    0  501 -0.00000000000E+00 -0.00000000000E+00 -0.99251673745E+02  0.99251673745E+02  0.00000000000E+00 0.  1.
          6    2    1    2  502    0  0.61608708758E+02 -0.24206259173E+02  0.22328782273E+03  0.28991807368E+03  0.17266575135E+03 0.  0.
         24    2    3    3    0    0  0.78701133952E+02 -0.32111931372E+02  0.23729923267E+03  0.26597939660E+03  0.84906236321E+02 0.  0.
         -6    2    1    2    0  501 -0.61608708758E+02  0.24206259173E+02  0.82122838142E+02  0.21399593468E+03  0.18619485368E+03 0.  0.
        -24    2    5    5    0    0  0.30221812132E+02  0.16020642999E+02 -0.81841610101E+01  0.84855340847E+02  0.77223244223E+02 0.  0.
          5    1    3    3  502    0 -0.17092425194E+02  0.79056721993E+01 -0.14011409944E+02  0.23938677084E+02  0.47000000000E+01 0. -1.
        -13    1    4    4    0    0  0.50249702720E+02 -0.57215418956E+02  0.11497265988E+03  0.13790340573E+03  0.00000000000E+00 0.  1.
         14    1    4    4    0    0  0.28451431232E+02  0.25103487584E+02  0.12232657279E+03  0.12807599087E+03  0.00000000000E+00 0. -1.
         -5    1    5    5    0  501 -0.91830520890E+02  0.81856161741E+01  0.90306999152E+02  0.12914059383E+03  0.47000000000E+01 0.  1.
         13    1    6    6    0    0 -0.66370619602E+01 -0.18090717987E+02  0.19578965342E+02  0.27471085756E+02  0.00000000000E+00 0. -1.
        -14    1    6    6    0    0  0.36858874092E+02  0.34111360985E+02 -0.27763126352E+02  0.57384255092E+02  0.00000000000E+00 0.  1.
</event>
<event>
12    1  0.2576962E-002  0.2414642E+03  0.7818608E-02  0.1118821E+00
         -1   -1    0    0    0  501 -0.00000000000E+00  0.00000000000E+00  0.57734353831E+03  0.57734353831E+03  0.00000000000E+00 0. -1.
          1   -1    0    0  502    0  0.00000000000E+00 -0.00000000000E+00 -0.10099064924E+03  0.10099064924E+03  0.00000000000E+00 0.  1.
          6    2    1    2  502    0  0.16685868091E+03  0.25873794337E+02  0.23751297505E+03  0.33917225383E+03  0.17353423819E+03 0.  0.
         24    2    3    3    0    0  0.32183492988E+02 -0.72768044155E+01  0.15134597458E+03  0.17582229084E+03  0.83181397147E+02 0.  0.
         -6    2    1    2    0  501 -0.16685868091E+03 -0.25873794337E+02  0.23883991402E+03  0.33916193373E+03  0.17168296402E+03 0.  0.
        -24    2    5    5    0    0 -0.11345313369E+03 -0.16735696248E+02  0.24831333942E+03  0.28395782973E+03  0.76294413008E+02 0.  0.
          5    1    3    3  502    0  0.13467518792E+03  0.33150598753E+02  0.86167000468E+02  0.16334996299E+03  0.47000000000E+01 0. -1.
        -11    1    4    4    0    0  0.42731129823E+02  0.69156625121E+00  0.26516145039E+02  0.50294469553E+02  0.00000000000E+00 0.  1.
         12    1    4    4    0    0 -0.10547636836E+02 -0.79683706667E+01  0.12482982954E+03  0.12552782129E+03  0.00000000000E+00 0. -1.
         -5    1    5    5    0  501 -0.53405547216E+02 -0.91380980894E+01 -0.94734253979E+01  0.55204104004E+02  0.47000000000E+01 0.  1.
         11    1    6    6    0    0 -0.37290446387E+02  0.11475025611E+02  0.15688700765E+03  0.16166566356E+03  0.00000000000E+00 0. -1.
        -12    1    6    6    0    0 -0.76162687303E+02 -0.28210721859E+02  0.91426331767E+02  0.12229216617E+03  0.00000000000E+00 0.  1.
</event>
<event>
12    1  0.2576962E-002  0.3157080E+03  0.7818608E-02  0.1077642E+00
         -2   -1    0    0    0  501 -0.00000000000E+00  0.00000000000E+00  0.16321786656E+03  0.16321786656E+03  0.00000000000E+00 0.  1.
          2   -1    0    0  502    0  0.00000000000E+00 -0.00000000000E+00 -0.77625818900E+03  0.77625818900E+03  0.00000000000E+00 0. -1.
          6    2    1    2  502    0 -0.18889856723E+03  0.18545035815E+03 -0.89145744726E+02  0.32752479134E+03  0.17102929894E+03 0.  0.
         24    2    3    3    0    0 -0.16341594478E+03  0.19651081557E+03 -0.39646026583E+02  0.27056858130E+03  0.79462432116E+02 0.  0.
         -6    2    1    2    0  501  0.18889856723E+03 -0.18545035815E+03 -0.52389457771E+03  0.61195126422E+03  0.17304426366E+03 0.  0.
        -24    2    5    5    0    0  0.82295363396E+02 -0.17371532151E+03 -0.32660239402E+03  0.38734438566E+03  0.80106239174E+02 0.  0.
          5    1    3    3  502    0 -0.25482622452E+02 -0.11060457421E+02 -0.49499718142E+02  0.56956210035E+02  0.47000000000E+01 0. -1.
        -13    1    4    4    0    0 -0.13928804132E+03  0.19776687831E+03 -0.44424764198E+02  0.24593994447E+03  0.00000000000E+00 0.  1.
         14    1    4    4    0    0 -0.24127903455E+02 -0.12560627404E+01  0.47787376144E+01  0.24628636827E+02  0.00000000000E+00 0. -1.
         -5    1    5    5    0  501  0.10660320384E+03 -0.11735036637E+02 -0.19729218369E+03  0.22460687857E+03  0.47000000000E+01 0.  1.
         11    1    6    6    0    0  0.13062307551E+02 -0.64251383211E+02 -0.18080098611E+03  0.19232228343E+03  0.00000000000E+00 0. -1.
        -12    1    6    6    0    0  0.69233055845E+02 -0.10946393830E+03 -0.14580140791E+03  0.19502210223E+03  0.00000000000E+00 0.  1.
</event>
<event>
12    1  0.2576962E-002  0.1710608E+03  0.7818608E-02  0.1176746E+00
          2   -1    0    0  502    0  0.00000000000E+00  0.00000000000E+00  0.14165194237E+04  0.14165194237E+04  0.00000000000E+00 0. -1.
         -2   -1    0    0    0  501 -0.00000000000E+00 -0.00000000000E+00 -0.39498893360E+02  0.39498893360E+02  0.00000000000E+00 0.  1.
          6    2    1    2  502    0  0.11173024377E+02  0.41080050127E+01  0.11928522631E+04  0.12051598430E+04  0.17138265177E+03 0.  0.
         24    2    3    3    0    0 -0.31169968015E+02  0.37114751503E+02  0.42154320262E+03  0.43197026007E+03  0.80935543630E+02 0.  0.
         -6    2    1    2    0  501 -0.11173024377E+02 -0.41080050127E+01  0.18416826723E+03  0.25085847409E+03  0.16991265753E+03 0.  0.
        -24    2    5    5    0    0  0.39693736304E+02 -0.48766129868E+02  0.99916183635E+02  0.14268140143E+03  0.80131207646E+02 0.  0.
          5    1    3    3  502    0  0.42342992392E+02 -0.33006746490E+02  0.77130906052E+03  0.77318958294E+03  0.47000000000E+01 0. -1.
        -11    1    4    4    0    0 -0.54005367415E+02  0.40200156992E+02  0.36028740944E+03  0.36652373693E+03  0.00000000000E+00 0.  1.
         12    1    4    4    0    0  0.22835399400E+02 -0.30854054892E+01  0.61255793184E+02  0.65446523142E+02  0.00000000000E+00 0. -1.
         -5    1    5    5    0  501 -0.50866760680E+02  0.44658124855E+02  0.84252083594E+02  0.10817707265E+03  0.47000000000E+01 0.  1.
         13    1    6    6    0    0 -0.36686498840E+01 -0.14057460334E+02  0.83512905864E+02  0.84767190757E+02  0.00000000000E+00 0. -1.
        -14    1    6    6    0    0  0.43362386188E+02 -0.34708669533E+02  0.16403277771E+02  0.57914210677E+02  0.00000000000E+00 0.  1.
</event>
<event>
12    1  0.2576962E-002  0.2559294E+03  0.7818608E-02  0.1109614E+00
         -1   -1    0    0    0  501 -0.00000000000E+00  0.00000000000E+00  0.21127091375E+03  0.21127091375E+03  0.00000000000E+00 0. -1.
          1   -1    0    0  502    0  0.00000000000E+00 -0.00000000000E+00 -0.33233179906E+03  0.33233179906E+03  0.00000000000E+00 0.  1.
          6    2    1    2  502    0 -0.18777010660E+03 -0.33709872817E+02  0.97271305763E+01  0.25680439357E+03  0.17163889720E+03 0.  0.
         24    2    3    3    0    0 -0.79548493967E+02  0.40705503384E+02  0.29617060158E+02  0.12388612939E+03  0.80533855638E+02 0.  0.
         -6    2    1    2    0  501  0.18777010660E+03  0.33709872817E+02 -0.13078801589E+03  0.28679831924E+03  0.16956946177E+03 0.  0.
        -24    2    5    5    0    0  0.19594143103E+03  0.48927725605E+01 -0.76905952865E+02  0.22497144381E+03  0.79250497341E+02 0.  0.
          5    1    3    3  502    0 -0.10822161263E+03 -0.74415376201E+02 -0.19889929582E+02  0.13291826418E+03  0.47000000000E+01 0. -1.
        -13    1    4    4    0    0 -0.83717151773E+02  0.38810410552E+02 -0.16450857866E+01  0.92290388316E+02  0.00000000000E+00 0.  1.
         14    1    4    4    0    0  0.41686578064E+01  0.18950928325E+01  0.31262145945E+02  0.31595741071E+02  0.00000000000E+00 0. -1.
         -5    1    5    5    0  501 -0.81713244318E+01  0.28817100257E+02 -0.53882063021E+02  0.61826875431E+02  0.47000000000E+01 0.  1.
         13    1    6    6    0    0  0.18340450546E+02 -0.90217735307E+00  0.16087998501E+02  0.24413310836E+02  0.00000000000E+00 0. -1.
        -14    1    6    6    0    0  0.17760098048E+03  0.57949499135E+01 -0.92993951366E+02  0.20055813298E+03  0.00000000000E+00 0.  1.
</event>
<event>
12    1  0.2576962E-002  0.3132008E+03  0.7818608E-02  0.1078822E+00
          3   -1    0    0  502    0  0.00000000000E+00  0.00000000000E+00  0.10468546058E+04  0.10468546058E+04  0.00000000000E+00 0. -1.
         -3   -1    0    0    0  501 -0.00000000000E+00 -0.00000000000E+00 -0.14833685319E+03  0.14833685319E+03  0.00000000000E+00 0.  1.
          6    2    1    2  502    0  0.25199279291E+03 -0.71929029129E+02  0.86371724636E+02  0.32465829662E+03  0.17108121416E+03 0.  0.
         24    2    3    3    0    0  0.26155621501E+03 -0.86558664074E+02  0.61075509093E+02  0.29355405604E+03  0.80868473900E+02 0.  0.
         -6    2    1    2    0  501 -0.25199279291E+03  0.71929029129E+02  0.81214602801E+03  0.87053316241E+03  0.17196704080E+03 0.  0.
        -24    2    5    5    0    0 -0.84165827359E+01 -0.41713935965E+01  0.14893672695E+03  0.15990716266E+03  0.57444866136E+02 0.  0.
          5    1    3    3  502    0 -0.95634221051E+01  0.14629634945E+02  0.25296215543E+02  0.31104240576E+02  0.47000000000E+01 0. -1.
        -11    1    4    4    0    0  0.61810651935E+02 -0.58782267349E+02  0.22698463923E+02  0.88267388721E+02  0.00000000000E+00 0.  1.
         12    1    4    4    0    0  0.19974556308E+03 -0.27776396725E+02  0.38377045171E+02  0.20528666732E+03  0.00000000000E+00 0. -1.
         -5    1    5    5    0  501 -0.24357621017E+03  0.76100422726E+02  0.66320930106E+03  0.71062599975E+03  0.47000000000E+01 0.  1.
         13    1    6    6    0    0 -0.23621336794E+02 -0.21415437959E+02  0.58838293049E+02  0.66921844444E+02  0.00000000000E+00 0. -1.
        -14    1    6    6    0    0  0.15204754058E+02  0.17244044362E+02  0.90098433904E+02  0.92985318216E+02  0.00000000000E+00 0.  1.
</event>
<event>
12    1  0.2576962E-002  0.2114577E+03  0.7818608E-02  0.1140417E+00
         -2   -1    0    0    0  501 -0.00000000000E+00  0.00000000000E+00  0.81303847830E+03  0.81303847830E+03  0.00000000000E+00 0.  1.
          2   -1    0    0  502    0  0.00000000000E+00 -0.00000000000E+00 -0.59630120606E+02  0.59630120606E+02  0.00000000000E+00 0. -1.
          6    2    1    2  502    0 -0.54398896730E+02  0.10886765977E+03  0.25586427635E+03  0.33224060375E+03  0.17351047104E+03 0.  0.
         24    2    3    3    0    0 -0.92096363874E+02  0.40827460259E+02  0.12620062671E+03  0.18096165672E+03  0.81681707069E+02 0.  0.
         -6    2    1    2    0  501  0.54398896730E+02 -0.10886765977E+03  0.49754408135E+03  0.54042799516E+03  0.17233948403E+03 0.  0.
        -24    2    5    5    0    0  0.57589289444E+02 -0.13753575478E+02  0.35228452278E+03  0.36670609961E+03  0.82844984198E+02 0.  0.
          5    1    3    3  502    0  0.37697467144E+02  0.68040199508E+02  0.12966364964E+03  0.15127894703E+03  0.47000000000E+01 0. -1.
        -13    1    4    4    0    0 -0.20561011208E+02 -0.17055563902E+02  0.65462351019E+02  0.70703372217E+02  0.00000000000E+00 0.  1.
         14    1    4    4    0    0 -0.71535352667E+02  0.57883024161E+02  0.60738275695E+02  0.11025828450E+03  0.00000000000E+00 0. -1.
         -5    1    5    5    0  501 -0.31903927137E+01 -0.95114084289E+02  0.14525955857E+03  0.17372189554E+03  0.47000000000E+01 0.  1.
         13    1    6    6    0    0 -0.18532179927E+02 -0.13439361383E+02  0.50119144140E+02  0.55099788897E+02  0.00000000000E+00 0. -1.
        -14    1    6    6    0    0  0.76121469371E+02 -0.31421409483E+00  0.30216537864E+03  0.31160631072E+03  0.00000000000E+00 0.  1.
</event>
<event>
12    1  0.2576962E-002  0.2107532E+03  0.7818608E-02  0.1140971E+00
          1   -1    0    0  502    0  0.00000000000E+00  0.00000000000E+00  0.13598991244E+04  0.13598991244E+04  0.00000000000E+00 0.  1.
         -1   -1    0    0    0  501 -0.00000000000E+00 -0.00000000000E+00 -0.36721859415E+02  0.36721859415E+02  0.00000000000E+00 0. -1.
          6    2    1    2  502    0  0.57261436656E+02  0.10793480727E+03  0.43219643680E+03  0.48128136048E+03  0.17294274547E+03 0.  0.
         24    2    3    3    0    0  0.79209118776E+02  0.77107847017E+02  0.41934131051E+03  0.44104025586E+03  0.80309825147E+02 0.  0.
         -6    2    1    2    0  501 -0.57261436656E+02 -0.10793480727E+03  0.89098082822E+03  0.91533962337E+03  0.17050218507E+03 0.  0.
        -24    2    5    5    0    0 -0.59461077325E+02 -0.46949798715E+02  0.78696935714E+03  0.79465621190E+03  0.80111314588E+02 0.  0.
          5    1    3    3  502    0 -0.21947682120E+02  0.30826960255E+02  0.12855126287E+02  0.40241104618E+02  0.47000000000E+01 0. -1.
        -13    1    4    4    0    0  0.43985276936E+02  0.15461928714E+02  0.28788299177E+03  0.29163400484E+03  0.00000000000E+00 0.  1.
         14    1    4    4    0    0  0.35223841840E+02  0.61645918302E+02  0.13145831874E+03  0.14940625102E+03  0.00000000000E+00 0. -1.
         -5    1    5    5    0  501  0.21996406696E+01 -0.60985008556E+02  0.10401147108E+03  0.12068341147E+03  0.47000000000E+01 0.  1.
         11    1    6    6    0    0 -0.33291601722E+02 -0.28894364013E+02  0.13716396192E+03  0.14407347940E+03  0.00000000000E+00 0. -1.
        -12    1    6    6    0    0 -0.26169475603E+02 -0.18055434703E+02  0.64980539522E+03  0.65058273250E+03  0.00000000000E+00 0.  1.
</event>
<event>
12    1  0.2576962E-002  0.2252551E+03  0.7818608E-02  0.1130025E+00
         -3   -1    0    0    0  501 -0.00000000000E+00  0.00000000000E+00  0.14283176139E+03  0.14283176139E+03  0.00000000000E+00 0.  1.
          3   -1    0    0  502    0  0.00000000000E+00 -0.00000000000E+00 -0.81850686819E+03  0.81850686819E+03  0.00000000000E+00 0. -1.
          6    2    1    2  502    0  0.80539133434E+02  0.12174871525E+03 -0.69900737091E+03  0.73419577621E+03  0.17065412840E+03 0.  0.
         24    2    3    3    0    0  0.36782501832E+02  0.64554577687E+02 -0.18077668707E+03  0.21096452346E+03  0.79407642138E+02 0.  0.
         -6    2    1    2    0  501 -0.80539133434E+02 -0.12174871525E+03  0.23332264112E+02  0.22714285337E+03  0.17245341287E+03 0.  0.
        -24    2    5    5    0    0 -0.75643266314E+02 -0.80668761217E+02 -0.48817002050E+02  0.14384136031E+03  0.77960788040E+02 0.  0.
          5    1    3    3  502    0  0.43756631602E+02  0.57194137560E+02 -0.51823068384E+03  0.52323125274E+03  0.47000000000E+01 0. -1.
        -13    1    4    4    0    0 -0.20606736396E+02  0.88288308641E+01 -0.15224373096E+02  0.27099213559E+02  0.00000000000E+00 0.  1.
         14    1    4    4    0    0  0.57389238229E+02  0.55725746823E+02 -0.16555231398E+03  0.18386530991E+03  0.00000000000E+00 0. -1.
         -5    1    5    5    0  501 -0.48958671201E+01 -0.41079954031E+02  0.72149266162E+02  0.83301493058E+02  0.47000000000E+01 0.  1.
         13    1    6    6    0    0 -0.64948820531E+02 -0.12559380030E+02 -0.27894550684E+02  0.71792710445E+02  0.00000000000E+00 0. -1.
        -14    1    6    6    0    0 -0.10694445783E+02 -0.68109381187E+02 -0.20922451366E+02  0.72048649866E+02  0.00000000000E+00 0.  1.
</event>
<event>
12    1  0.2576962E-002  0.2042341E+03  0.7818608E-02  0.1146215E+00
          1   -1    0    0  502    0  0.00000000000E+00  0.00000000000E+00  0.38776234747E+02  0.38776234747E+02  0.00000000000E+00 0. -1.
         -1   -1    0    0    0  501 -0.00000000000E+00 -0.00000000000E+00 -0.10824462048E+04  0.10824462048E+04  0.00000000000E+00 0.  1.
          6    2    1    2  502    0 -0.95285083173E+02 -0.56095969503E+02 -0.47648240696E+03  0.51823658529E+03  0.17119482857E+03 0.  0.
         24    2    3    3    0    0 -0.73055815846E+02  0.24546627321E+02 -0.33802592689E+03  0.35640440178E+03  0.82600733761E+02 0.  0.
         -6    2    1    2    0  501  0.95285083173E+02  0.56095969503E+02 -0.56718756310E+03  0.60298585425E+03  0.17223299285E+03 0.  0.
        -24    2    5    5    0    0  0.18072210280E+02 -0.29314067716E+02 -0.28343883380E+03  0.29673084029E+03  0.80781803171E+02 0.  0.
          5    1    3    3  502    0 -0.22229267328E+02 -0.80642596824E+02 -0.13845648007E+03  0.16183218351E+03  0.47000000000E+01 0. -1.
        -13    1    4    4    0    0 -0.69677576175E+02  0.34544462573E+02 -0.15833326147E+03  0.17640211508E+03  0.00000000000E+00 0.  1.
         14    1    4    4    0    0 -0.33782396709E+01 -0.99978352527E+01 -0.17969266542E+03  0.18000228670E+03  0.00000000000E+00 0. -1.
         -5    1    5    5    0  501  0.77212872893E+02  0.85410037219E+02 -0.28374872930E+03  0.30625501396E+03  0.47000000000E+01 0.  1.
         11    1    6    6    0    0  0.38308205306E+02 -0.30502158067E+02 -0.91987913459E+02  0.10420977144E+03  0.00000000000E+00 0. -1.
        -12    1    6    6    0    0 -0.20235995025E+02  0.11880903505E+01 -0.19145092034E+03  0.19252106885E+03  0.00000000000E+00 0.  1.
</event>
<event>
12    1  0.2576962E-002  0.2148797E+03  0.7818608E-02  0.1137759E+00
          2   -1    0    0  502    0  0.00000000000E+00  0.00000000000E+00  0.76843494766E+02  0.76843494766E+02  0.00000000000E+00 0.  1.
         -2   -1    0    0    0  501 -0.00000000000E+00 -0.00000000000E+00 -0.61659634673E+03  0.61659634673E+03  0.00000000000E+00 0. -1.
          6    2    1    2  502    0  0.28410022153E+02  0.12643820693E+03 -0.21416539373E+03  0.30317989881E+03  0.17104819684E+03 0.  0.
         24    2    3    3    0    0 -0.17956036384E+02  0.45538225096E+02 -0.31443384018E+02  0.97987205771E+02  0.78845779271E+02 0.  0.
         -6    2    1    2    0  501 -0.28410022153E+02 -0.12643820693E+03 -0.32558745823E+03  0.39025994268E+03  0.17176111426E+03 0.  0.
        -24    2    5    5    0    0  0.19936913339E+02 -0.14246473788E+03 -0.26200140185E+03  0.30865386183E+03  0.76998635042E+02 0.  0.
          5    1    3    3  502    0  0.46366058537E+02  0.80899981832E+02 -0.18272200971E+03  0.20519269304E+03  0.47000000000E+01 0. -1.
        -11    1    4    4    0    0 -0.25579506946E+02  0.57560112781E+02 -0.45715667171E+02  0.77829300292E+02  0.00000000000E+00 0.  1.
         12    1    4    4    0    0  0.76234705616E+01 -0.12021887685E+02  0.14272283153E+02  0.20157905480E+02  0.00000000000E+00 0. -1.
         -5    1    5    5    0  501 -0.48346935493E+02  0.16026530949E+02 -0.63586056380E+02  0.81606080851E+02  0.47000000000E+01 0.  1.
         11    1    6    6    0    0 -0.15473451471E+02 -0.28268523715E+02 -0.11359664818E+03  0.11807936150E+03  0.00000000000E+00 0. -1.
        -12    1    6    6    0    0  0.35410364810E+02 -0.11419621416E+03 -0.14840475367E+03  0.19057450033E+03  0.00000000000E+00 0.  1.
</event>
<event>
12    1  0.2576962E-002  0.3073394E+03  0.7818608E-02  0.1081628E+00
         -2   -1    0    0    0  501 -0.00000000000E+00  0.00000000000E+00  0.11598450803E+03  0.11598450803E+03  0.00000000000E+00 0. -1.
          2   -1    0    0  502    0  0.00000000000E+00 -0.00000000000E+00 -0.97537103112E+03  0.97537103112E+03  0.00000000000E+00 0.  1.
          6    2    1    2  502    0  0.94131164040E+02 -0.23499863523E+03 -0.20855088286E+03  0.37179859072E+03  0.17508765437E+03 0.  0.
         24    2    3    3    0    0  0.78599904351E+02 -0.62965137722E+02 -0.13302649444E+03  0.18321765971E+03  0.75697483943E+02 0.  0.
         -6    2    1    2    0  501 -0.94131164040E+02  0.23499863523E+03 -0.65083564023E+03  0.71955694843E+03  0.17346508825E+03 0.  0.
        -24    2    5    5    0    0  0.72678249444E+01  0.15720513695E+03 -0.33356283350E+03  0.37747843810E+03  0.80371207369E+02 0.  0.
          5    1    3    3  502    0  0.15531259689E+02 -0.17203349751E+03 -0.75524388422E+02  0.18858093101E+03  0.47000000000E+01 0. -1.
        -11    1    4    4    0    0  0.44564710915E+02 -0.57281182334E+02 -0.12960540232E+03  0.14854193892E+03  0.00000000000E+00 0.  1.
         12    1    4    4    0    0  0.34035193437E+02 -0.56839553880E+01 -0.34210921213E+01  0.34675720792E+02  0.00000000000E+00 0. -1.
         -5    1    5    5    0  501 -0.10139898898E+03  0.77793498281E+02 -0.31727280673E+03  0.34207851033E+03  0.47000000000E+01 0.  1.
         11    1    6    6    0    0  0.65597227854E+01  0.19201655825E+01  0.24960366149E+01  0.72764825066E+01  0.00000000000E+00 0. -1.
        -12    1    6    6    0    0  0.70810215894E+00  0.15528497137E+03 -0.33605887012E+03  0.37020195559E+03  0.00000000000E+00 0.  1.
</event>
<event>
12    1  0.2576962E-002  0.1794415E+03  0.7818608E-02  0.1168345E+00
          2   -1    0    0  502    0  0.00000000000E+00  0.00000000000E+00  0.84486938501E+03  0.84486938501E+03  0.00000000000E+00 0.  1.
         -2   -1    0    0    0  501 -0.00000000000E+00 -0.00000000000E+00 -0.45144138620E+02  0.45144138620E+02  0.00000000000E+00 0. -1.
          6    2    1    2  502    0  0.49145170673E+02 -0.70410130129E+01  0.57413584913E+03  0.60130948598E+03  0.17168663608E+03 0.  0.
         24    2    3    3    0    0 -0.12187535813E+02 -0.48785000641E+02  0.42304652148E+03  0.43292202707E+03  0.76971487386E+02 0.  0.
         -6    2    1    2    0  501 -0.49145170673E+02  0.70410130129E+01  0.22558939726E+03  0.28870403765E+03  0.17318955377E+03 0.  0.
        -24    2    5    5    0    0 -0.68291227367E+02  0.53076471065E+02  0.13574541647E+03  0.18584556319E+03  0.92902915707E+02 0.  0.
          5    1    3    3  502    0  0.61332706486E+02  0.41743987628E+02  0.15108932766E+03  0.16838745891E+03  0.47000000000E+01 0. -1.
        -13    1    4    4    0    0  0.27714590534E+02 -0.12731718760E+02  0.24613604980E+03  0.24801844730E+03  0.00000000000E+00 0.  1.
         14    1    4    4    0    0 -0.39902126347E+02 -0.36053281881E+02  0.17691047168E+03  0.18490357977E+03  0.00000000000E+00 0. -1.
         -5    1    5    5    0  501  0.19146056694E+02 -0.46035458053E+02  0.89843980787E+02  0.10285847446E+03  0.47000000000E+01 0.  1.
         11    1    6    6    0    0 -0.45654884711E+02 -0.19038963867E+02  0.38513443258E+02  0.62690796411E+02  0.00000000000E+00 0. -1.
        -12    1    6    6    0    0 -0.22636342657E+02  0.72115434932E+02  0.97231973213E+02  0.12315476677E+03  0.00000000000E+00 0.  1.
</event>
<event>
12    1  0.2576962E-002  0.1965363E+03  0.7818608E-02  0.1152695E+00
          2   -1    0    0  502    0  0.00000000000E+00  0.00000000000E+00  0.62841623543E+03  0.62841623543E+03  0.00000000000E+00 0. -1.
         -2   -1    0    0    0  501 -0.00000000000E+00 -0.00000000000E+00 -0.63345599210E+02  0.63345599210E+02  0.00000000000E+00 0.  1.
          6    2    1    2  502    0 -0.43003021173E+02 -0.85703930325E+02  0.22264439499E+03  0.29682863098E+03  0.17129590201E+03 0.  0.
         24    2    3    3    0    0  0.35700562746E+01 -0.39190698046E+02  0.21165069953E+03  0.22992957523E+03  0.80764688070E+02 0.  0.
         -6    2    1    2    0  501  0.43003021173E+02  0.85703930325E+02  0.34242624123E+03  0.39493320366E+03  0.17181990911E+03 0.  0.
        -24    2    5    5    0    0  0.42847484850E+02  0.42602646888E+02  0.33629251832E+03  0.35114442219E+03  0.80986757427E+02 0.  0.
          5    1    3    3  502    0 -0.46573077448E+02 -0.46513232279E+02  0.10993695457E+02  0.66899055747E+02  0.47000000000E+01 0. -1.
        -11    1    4    4    0    0  0.62423175045E+01 -0.17553451249E+02  0.15433879966E+01  0.18694176235E+02  0.00000000000E+00 0.  1.
         12    1    4    4    0    0 -0.26722612299E+01 -0.21637246796E+02  0.21010731153E+03  0.21123539900E+03  0.00000000000E+00 0. -1.
         -5    1    5    5    0  501  0.15553632244E+00  0.43101283437E+02  0.61337229066E+01  0.43788781464E+02  0.47000000000E+01 0.  1.
         11    1    6    6    0    0  0.50411733738E+02 -0.64452706219E+01  0.18912118637E+03  0.19583081358E+03  0.00000000000E+00 0. -1.
        -12    1    6    6    0    0 -0.75642488879E+01  0.49047917510E+02  0.14717133195E+03  0.15531360862E+03  0.00000000000E+00 0.  1.
</event>
<event>
12    1  0.2576962E-002  0.2003877E+03  0.7818608E-02  0.1149412E+00
          1   -1    0    0  502    0  0.00000000000E+00  0.00000000000E+00  0.17174080104E+03  0.17174080104E+03  0.00000000000E+00 0.  1.
         -1   -1    0    0    0  501 -0.00000000000E+00 -0.00000000000E+00 -0.32323352197E+03  0.32323352197E+03  0.00000000000E+00 0. -1.
          6    2    1    2  502    0  0.10707729651E+03 -0.43411790052E+00 -0.20644151343E+03  0.28910510346E+03  0.17174960406E+03 0.  0.
         24    2    3    3    0    0  0.90153410138E+02  0.58484363861E+02 -0.12406469277E+03  0.18631485098E+03  0.88165285275E+02 0.  0.
         -6    2    1    2    0  501 -0.10707729651E+03  0.43411790052E+00  0.54948792511E+02  0.20586921955E+03  0.16702403980E+03 0.  0.
        -24    2    5    5    0    0 -0.76279088973E+02  0.87822388147E+01 -0.30187986156E+02  0.11482757088E+03  0.79865069914E+02 0.  0.
          5    1    3    3  502    0  0.16923886375E+02 -0.58918481762E+02 -0.82376820662E+02  0.10279025248E+03  0.47000000000E+01 0. -1.
        -13    1    4    4    0    0 -0.17228647194E+02  0.54735435491E+01 -0.88166256646E+01  0.20112654007E+02  0.00000000000E+00 0.  1.
         14    1    4    4    0    0  0.10738205733E+03  0.53010820312E+02 -0.11524806711E+03  0.16620219697E+03  0.00000000000E+00 0. -1.
         -5    1    5    5    0  501 -0.30798207540E+02 -0.83481209142E+01  0.85136778667E+02  0.91041648668E+02  0.47000000000E+01 0.  1.
         13    1    6    6    0    0 -0.11969393202E+02 -0.32265352709E+02 -0.11428054843E+02  0.36261822852E+02  0.00000000000E+00 0. -1.
        -14    1    6    6    0    0 -0.64309695770E+02  0.41047591523E+02 -0.18759931313E+02  0.78565748025E+02  0.00000000000E+00 0.  1.
</event>
<event>
12    1  0.2576962E-002  0.2141384E+03  0.7818608E-02  0.1138330E+00
          2   -1    0    0  502    0  0.00000000000E+00  0.00000000000E+00  0.94158715267E+03  0.94158715267E+03  0.00000000000E+00 0.  1.
         -2   -1    0    0    0  501 -0.00000000000E+00 -0.00000000000E+00 -0.50955256517E+02  0.50955256517E+02  0.00000000000E+00 0. -1.
          6    2    1    2  502    0  0.42992058869E+02  0.12118754334E+03  0.33973056279E+03  0.40126886759E+03  0.17048492900E+03 0.  0.
         24    2    3    3    0    0  0.89320608675E+02  0.11488897355E+03  0.27417625138E+03  0.32061240936E+03  0.80262399929E+02 0.  0.
         -6    2    1    2    0  501 -0.42992058869E+02 -0.12118754334E+03  0.55090133336E+03  0.59127354160E+03  0.17198076668E+03 0.  0.
        -24    2    5    5    0    0 -0.87853414610E+02 -0.57039993260E+02  0.27846840577E+03  0.30777885125E+03  0.78812340237E+02 0.  0.
          5    1    3    3  502    0 -0.46328549805E+02  0.62985697947E+01  0.65554311415E+02  0.80656458226E+02  0.47000000000E+01 0. -1.
        -11    1    4    4    0    0  0.79919492774E+02  0.37648361793E+02  0.14235711212E+03  0.16754125415E+03  0.00000000000E+00 0.  1.
         12    1    4    4    0    0  0.94011159011E+01  0.77240611752E+02  0.13181913925E+03  0.15307115521E+03  0.00000000000E+00 0. -1.
         -5    1    5    5    0  501  0.44861355740E+02 -0.64147550080E+02  0.27243292759E+03  0.28349469035E+03  0.47000000000E+01 0.  1.
         11    1    6    6    0    0 -0.17508444176E+02  0.18364316673E+02  0.33779017590E+02  0.42247080061E+02  0.00000000000E+00 0. -1.
        -12    1    6    6    0    0 -0.70344970433E+02 -0.75404309933E+02  0.24468938818E+03  0.26553177119E+03  0.00000000000E+00 0.  1.
</event>
<event>
12    1  0.2576962E-002  0.2782680E+03  0.7818608E-02  0.1096639E+00
          2   -1    0    0  502    0  0.00000000000E+00  0.00000000000E+00  0.85047297475E+03  0.85047297475E+03  0.00000000000E+00 0. -1.
         -2   -1    0    0    0  501 -0.00000000000E+00 -0.00000000000E+00 -0.14796356778E+03  0.14796356778E+03  0.00000000000E+00 0.  1.
          6    2    1    2  502    0 -0.19126057542E+03 -0.10046761120E+03  0.39583917109E+02  0.27843088609E+03  0.17112136987E+03 0.  0.
         24    2    3    3    0    0 -0.13067808499E+03  0.38732675898E+00 -0.59862203250E+01  0.15217446415E+03  0.77745229987E+02 0.  0.
         -6    2    1    2    0  501  0.19126057542E+03  0.10046761120E+03  0.66292548986E+03  0.72000565643E+03  0.17962068807E+03 0.  0.
        -24    2    5    5    0    0  0.70515704724E+02  0.11720934303E+03  0.38735710762E+03  0.41864269807E+03  0.80657827374E+02 0.  0.
          5    1    3    3  502    0 -0.60582490426E+02 -0.10085493796E+03  0.45570137434E+02  0.12625642195E+03  0.47000000000E+01 0. -1.
        -11    1    4    4    0    0 -0.49671751101E+02 -0.36496675089E+02  0.77099298486E+01  0.62118702242E+02  0.00000000000E+00 0.  1.
         12    1    4    4    0    0 -0.81006333890E+02  0.36884001848E+02 -0.13696150174E+02  0.90055761904E+02  0.00000000000E+00 0. -1.
         -5    1    5    5    0  501  0.12074487069E+03 -0.16741731832E+02  0.27556838224E+03  0.30136295836E+03  0.47000000000E+01 0.  1.
         11    1    6    6    0    0  0.51506064743E+02  0.11535025704E+03  0.25144470827E+03  0.28139473666E+03  0.00000000000E+00 0. -1.
        -12    1    6    6    0    0  0.19009639980E+02  0.18590859892E+01  0.13591239935E+03  0.13724796141E+03  0.00000000000E+00 0.  1.
</event>
<event>
12    1  0.2576962E-002  0.2122019E+03  0.7818608E-02  0.1139834E+00
          1   -1    0    0  502    0  0.00000000000E+00  0.00000000000E+00  0.33909620402E+03  0.33909620402E+03  0.00000000000E+00 0. -1.
         -1   -1    0    0    0  501 -0.00000000000E+00 -0.00000000000E+00 -0.18541670768E+03  0.18541670768E+03  0.00000000000E+00 0.  1.
          6    2    1    2  502    0  0.57955352243E+02 -0.11541272451E+03 -0.63605618235E+02  0.21868677871E+03  0.16461868873E+03 0.  0.
         24    2    3    3    0    0  0.37113681295E+01 -0.42130618683E+02 -0.86248711677E+02  0.12462575316E+03  0.79397574273E+02 0.  0.
         -6    2    1    2    0  501 -0.57955352243E+02  0.11541272451E+03  0.21728511457E+03  0.30582613299E+03  0.17215656471E+03 0.  0.
        -24    2    5    5    0    0 -0.71061052203E+02  0.12348840495E+03  0.10812602853E+03  0.19548678347E+03  0.78897307739E+02 0.  0.
          5    1    3    3  502    0  0.54243984113E+02 -0.73282105825E+02  0.22643093442E+02  0.94061025549E+02  0.47000000000E+01 0. -1.
        -11    1    4    4    0    0  0.15721125834E+01  0.14625287487E+02  0.63297968350E+01  0.16013647306E+02  0.00000000000E+00 0.  1.
         12    1    4    4    0    0  0.21392555462E+01 -0.56755906170E+02 -0.92578508512E+02  0.10861210585E+03  0.00000000000E+00 0. -1.
         -5    1    5    5    0  501  0.13105699960E+02 -0.80756804455E+01  0.10915908604E+03  0.11033934952E+03  0.47000000000E+01 0.  1.
         11    1    6    6    0    0 -0.61762721363E+02  0.48801959694E+02  0.23315992118E+02  0.82096897071E+02  0.00000000000E+00 0. -1.
        -12    1    6    6    0    0 -0.92983308397E+01  0.74686445259E+02  0.84810036412E+02  0.11338988640E+03  0.00000000000E+00 0.  1.
</event>
<event>
12    1  0.2576962E-002  0.1813849E+03  0.7818608E-02  0.1166469E+00
          1   -1    0    0  502    0  0.00000000000E+00  0.00000000000E+00  0.29587310337E+02  0.29587310337E+02  0.00000000000E+00 0.  1.
         -1   -1    0    0    0  501 -0.00000000000E+00 -0.00000000000E+00 -0.11731973478E+04  0.11731973478E+04  0.00000000000E+00 0. -1.
          6    2    1    2  502    0 -0.41154264052E+02 -0.40519734155E+02 -0.43475465817E+03  0.47111736266E+03  0.17205939177E+03 0.  0.
         24    2    3    3    0    0  0.30257953615E+02 -0.57925578865E+02 -0.19009260381E+03  0.21560947804E+03  0.77982899103E+02 0.  0.
         -6    2    1    2    0  501  0.41154264052E+02  0.40519734155E+02 -0.70885537927E+03  0.73166729545E+03  0.17183003290E+03 0.  0.
        -24    2    5    5    0    0 -0.35390184592E+02  0.59109389126E+02 -0.36298154358E+03  0.37690620950E+03  0.74540624709E+02 0.  0.
          5    1    3    3  502    0 -0.71412217667E+02  0.17405844710E+02 -0.24466205435E+03  0.25550788462E+03  0.47000000000E+01 0. -1.
        -13    1    4    4    0    0 -0.10455154756E+02  0.14554839174E+02 -0.24901894121E+02  0.30679927236E+02  0.00000000000E+00 0.  1.
         14    1    4    4    0    0  0.40713108371E+02 -0.72480418039E+02 -0.16519070969E+03  0.18492955080E+03  0.00000000000E+00 0. -1.
         -5    1    5    5    0  501  0.76544448644E+02 -0.18589654971E+02 -0.34587383569E+03  0.35476108595E+03  0.47000000000E+01 0.  1.
         13    1    6    6    0    0 -0.29690750253E+02 -0.68038750957E+01 -0.17478631065E+03  0.17742065200E+03  0.00000000000E+00 0. -1.
        -14    1    6    6    0    0 -0.56994343389E+01  0.65913264221E+02 -0.18819523293E+03  0.19948555750E+03  0.00000000000E+00 0.  1.
</event>
<event>
12    1  0.2576962E-002  0.3298064E+03  0.7818608E-02  0.1071223E+00
          2   -1    0    0  502    0  0.00000000000E+00  0.00000000000E+00  0.14725368464E+04  0.14725368464E+04  0.00000000000E+00 0. -1.
         -2   -1    0    0    0  501 -0.00000000000E+00 -0.00000000000E+00 -0.78377416189E+02  0.78377416189E+02  0.00000000000E+00 0.  1.
          6    2    1    2  502    0  0.63353636532E+02  0.27453518552E+03  0.88346961309E+03  0.94308729610E+03  0.17179010290E+03 0.  0.
         24    2    3    3    0    0  0.98614257690E+01  0.63966464055E+02  0.18093024553E+03  0.20770694822E+03  0.78850912167E+02 0.  0.
         -6    2    1    2    0  501 -0.63353636532E+02 -0.27453518552E+03  0.51068981712E+03  0.60782696649E+03  0.17107390371E+03 0.  0.
        -24    2    5    5    0    0  0.81907945629E+01 -0.18333310918E+03  0.23455550142E+03  0.30831290228E+03  0.79764932336E+02 0.  0.
          5    1    3    3  502    0  0.53492210763E+02  0.21056872147E+03  0.70253936756E+03  0.73538034787E+03  0.47000000000E+01 0. -1.
        -11    1    4    4    0    0 -0.33880243557E+02  0.23370998535E+02  0.58770783721E+02  0.71750118434E+02  0.00000000000E+00 0.  1.
         12    1    4    4    0    0  0.43741669326E+02  0.40595465520E+02  0.12215946181E+03  0.13595682979E+03  0.00000000000E+00 0. -1.
         -5    1    5    5    0  501 -0.71544431095E+02 -0.91202076344E+02  0.27613431570E+03  0.29951406421E+03  0.47000000000E+01 0.  1.
         11    1    6    6    0    0  0.28339042301E+02 -0.48022271875E+02  0.10989113102E+03  0.12322865167E+03  0.00000000000E+00 0. -1.
        -12    1    6    6    0    0 -0.20148247738E+02 -0.13531083731E+03  0.12466437040E+03  0.18508425061E+03  0.00000000000E+00 0.  1.
</event>
<event>
12    1  0.2576962E-002  0.1752360E+03  0.7818608E-02  0.1172495E+00
          2   -1    0    0  502    0  0.00000000000E+00  0.00000000000E+00  0.12100396302E+04  0.12100396302E+04  0.00000000000E+00 0.  1.
         -2   -1    0    0    0  501 -0.00000000000E+00 -0.00000000000E+00 -0.30098996940E+02  0.30098996940E+02  0.00000000000E+00 0. -1.
          6    2    1    2  502    0  0.33715187442E+02  0.68925360269E+01  0.83804920584E+03  0.85635592721E+03  0.17272747827E+03 0.  0.
         24    2    3    3    0    0  0.51886964443E+02  0.17223447492E+02  0.82622255136E+03  0.83188347398E+03  0.79984408969E+02 0.  0.
         -6    2    1    2    0  501 -0.33715187442E+02 -0.68925360269E+01  0.34189142744E+03  0.38378269995E+03  0.17092452049E+03 0.  0.
        -24    2    5    5    0    0  0.18523485058E+02 -0.34695375416E+02  0.98385286491E+02  0.13314509809E+03  0.80629175702E+02 0.  0.
          5    1    3    3  502    0 -0.18171777001E+02 -0.10330911466E+02  0.11826654473E+02  0.24472453230E+02  0.47000000000E+01 0. -1.
        -11    1    4    4    0    0  0.46825432448E+01  0.20927247020E+02  0.61689158272E+03  0.61726420657E+03  0.00000000000E+00 0.  1.
         12    1    4    4    0    0  0.47204421198E+02 -0.37037995272E+01  0.20933096864E+03  0.21461926741E+03  0.00000000000E+00 0. -1.
         -5    1    5    5    0  501 -0.52238672500E+02  0.27802839389E+02  0.24350614095E+03  0.25063760186E+03  0.47000000000E+01 0.  1.
         11    1    6    6    0    0  0.11729777720E+02 -0.51723691906E+02  0.27138056042E+02  0.59576858556E+02  0.00000000000E+00 0. -1.
        -12    1    6    6    0    0  0.67937073378E+01  0.17028316490E+02  0.71247230449E+02  0.73568239536E+02  0.00000000000E+00 0.  1.
</event>
<event>
12    1  0.2576962E-002  0.1912593E+03  0.7818608E-02  0.1157330E+00
          2   -1    0    0  502    0  0.00000000000E+00  0.00000000000E+00  0.93064258584E+03  0.93064258584E+03  0.00000000000E+00 0.  1.
         -2   -1    0    0    0  501 -0.00000000000E+00 -0.00000000000E+00 -0.40266757299E+02  0.40266757299E+02  0.00000000000E+00 0. -1.
          6    2    1    2  502    0 -0.57277652557E+02 -0.54735311958E+02  0.52168158501E+03  0.55587037430E+03  0.17482423466E+03 0.  0.
         24    2    3    3    0    0 -0.87009228556E+02 -0.77639603254E+02  0.30428863162E+03  0.33521145343E+03  0.78591560197E+02 0.  0.
         -6    2    1    2    0  501  0.57277652557E+02  0.54735311958E+02  0.36869424353E+03  0.41503896884E+03  0.17333556065E+03 0.  0.
        -24    2    5    5    0    0  0.91620788968E+02  0.27138309507E+02  0.16298028371E+03  0.20460758138E+03  0.78554647650E+02 0.  0.
          5    1    3    3  502    0  0.29731575999E+02  0.22904291297E+02  0.21739295340E+03  0.22065892086E+03  0.47000000000E+01 0. -1.
        -13    1    4    4    0    0 -0.86884153413E+01 -0.41187529577E+02  0.43697513339E+02  0.60674325920E+02  0.00000000000E+00 0.  1.
         14    1    4    4    0    0 -0.78320813215E+02 -0.36452073677E+02  0.26059111828E+03  0.27453712751E+03  0.00000000000E+00 0. -1.
         -5    1    5    5    0  501 -0.34343136410E+02  0.27597002450E+02  0.20571395982E+03  0.21043138746E+03  0.47000000000E+01 0.  1.
         13    1    6    6    0    0  0.61239967145E+02  0.18421214958E+02  0.35244447058E+02  0.73019489076E+02  0.00000000000E+00 0. -1.
        -14    1    6    6    0    0  0.30380821823E+02  0.87170945494E+01  0.12773583665E+03  0.13158809231E+03  0.00000000000E+00 0.  1.
</event>
<event>
12    1  0.2576962E-002  0.1750911E+03  0.7818608E-02  0.1172640E+00
         -2   -1    0    0    0  501 -0.00000000000E+00  0.00000000000E+00  0.38408628205E+02  0.38408628205E+02  0.00000000000E+00 0.  1.
          2   -1    0    0  502    0  0.00000000000E+00 -0.00000000000E+00 -0.85600269460E+03  0.85600269460E+03  0.00000000000E+00 0. -1.
          6    2    1    2  502    0 -0.47240494548E+01  0.21593476334E+02 -0.52435533705E+03  0.55271828876E+03  0.17337933088E+03 0.  0.
         24    2    3    3    0    0  0.51853560851E+02  0.47192443427E+02 -0.24839295767E+03  0.26981608315E+03  0.78649468025E+02 0.  0.
         -6    2    1    2    0  501  0.47240494548E+01 -0.21593476334E+02 -0.29323872934E+03  0.34169303404E+03  0.17400167315E+03 0.  0.
        -24    2    5    5    0    0 -0.45300084265E+02 -0.61096342737E+02 -0.20151548430E+03  0.22989798008E+03  0.80372446160E+02 0.  0.
          5    1    3    3  502    0 -0.56577610306E+02 -0.25598967093E+02 -0.27596237938E+03  0.28290220561E+03  0.47000000000E+01 0. -1.
        -11    1    4    4    0    0  0.35759547279E+02  0.11165193379E+02 -0.30298811783E+02  0.48181166032E+02  0.00000000000E+00 0.  1.
         12    1    4    4    0    0  0.16094013573E+02  0.36027250047E+02 -0.21809414588E+03  0.22163491712E+03  0.00000000000E+00 0. -1.
         -5    1    5    5    0  501  0.50024133720E+02  0.39502866404E+02 -0.91723245044E+02  0.11179505396E+03  0.47000000000E+01 0.  1.
         13    1    6    6    0    0  0.86950642950E+01 -0.31643827126E+02 -0.13654189144E+03  0.14043013942E+03  0.00000000000E+00 0. -1.
        -14    1    6    6    0    0 -0.53995148560E+02 -0.29452515612E+02 -0.64973592859E+02  0.89467840663E+02  0.00000000000E+00 0.  1.
</event>
<event>
12    1  0.2576962E-002  0.1722506E+03  0.7818608E-02  0.1175521E+00
          1   -1    0    0  502    0  0.00000000000E+00  0.00000000000E+00  0.14033381807E+03  0.14033381807E+03  0.00000000000E+00 0.  1.
         -1   -1    0    0    0  501 -0.00000000000E+00 -0.00000000000E+00 -0.28380408465E+03  0.28380408465E+03  0.00000000000E+00 0. -1.
          6    2    1    2  502    0 -0.15878546918E+02 -0.50384619178E+01  0.35151714942E+02  0.17645115884E+03  0.17211000565E+03 0.  0.
         24    2    3    3    0    0 -0.52912289375E+02 -0.29613502976E+02 -0.25216059786E+02  0.10133931591E+03  0.77182493823E+02 0.  0.
         -6    2    1    2    0  501  0.15878546918E+02  0.50384619178E+01 -0.17862198152E+03  0.24768674388E+03  0.17077879394E+03 0.  0.
        -24    2    5    5    0    0  0.45331944034E+02 -0.34746721358E+02 -0.17162168690E+03  0.19747262699E+03  0.79240868245E+02 0.  0.
          5    1    3    3  502    0  0.37033742457E+02  0.24575041058E+02  0.60367774728E+02  0.75111842934E+02  0.47000000000E+01 0. -1.
        -11    1    4    4    0    0 -0.63334937414E+02 -0.61695247067E+01  0.23539395251E+01  0.63678240896E+02  0.00000000000E+00 0.  1.
         12    1    4    4    0    0  0.10422648039E+02 -0.23443978269E+02 -0.27569999311E+02  0.37661075014E+02  0.00000000000E+00 0. -1.
         -5    1    5    5    0  501 -0.29453397117E+02  0.39785183276E+02 -0.70002946221E+01  0.50214116887E+02  0.47000000000E+01 0.  1.
         13    1    6    6    0    0  0.52539587309E+02 -0.29986346386E+02 -0.17716540881E+03  0.18720889745E+03  0.00000000000E+00 0. -1.
        -14    1    6    6    0    0 -0.72076432749E+01 -0.47603749717E+01  0.55437219115E+01  0.10263729541E+02  0.00000000000E+00 0.  1.
</event>
<event>
12    1  0.2576962E-002  0.2661590E+03  0.7818608E-02  0.1103498E+00
         -1   -1    0    0    0  501 -0.00000000000E+00  0.00000000000E+00  0.16791998892E+03  0.16791998892E+03  0.00000000000E+00 0. -1.
          1   -1    0    0  502    0  0.00000000000E+00 -0.00000000000E+00 -0.96882532138E+03  0.96882532138E+03  0.00000000000E+00 0.  1.
          6    2    1    2  502    0 -0.54253602553E+02 -0.19580399875E+03 -0.82700580957E+03  0.86854636267E+03  0.17073814963E+03 0.  0.
         24    2    3    3    0    0 -0.41553653686E+02 -0.98364344924E+02 -0.25220968581E+03  0.28539248185E+03  0.80230247355E+02 0.  0.
         -6    2    1    2    0  501  0.54253602553E+02  0.19580399875E+03  0.26100477115E+02  0.26819894763E+03  0.17310916003E+03 0.  0.
        -24    2    5    5    0    0  0.90571837984E+02  0.90994143860E+02 -0.47267417463E+01  0.15297513355E+03  0.83041299038E+02 0.  0.
          5    1    3    3  502    0 -0.12699948867E+02 -0.97439653825E+02 -0.57479612375E+03  0.58315388082E+03  0.47000000000E+01 0. -1.
        -13    1    4    4    0    0  0.73567679002E+01 -0.80774809830E+02 -0.14175285436E+03  0.16331737095E+03  0.00000000000E+00 0.  1.
         14    1    4    4    0    0 -0.48910421586E+02 -0.17589535095E+02 -0.11045683145E+03  0.12207511089E+03  0.00000000000E+00 0. -1.
         -5    1    5    5    0  501 -0.36318235431E+02  0.10480985489E+03  0.30827218861E+02  0.11522381407E+03  0.47000000000E+01 0.  1.
         13    1    6    6    0    0  0.83699359371E+02  0.10489797148E+03  0.56453930823E+01  0.13431692984E+03  0.00000000000E+00 0. -1.
        -14    1    6    6    0    0  0.68724786132E+01 -0.13903827621E+02 -0.10372134829E+02  0.18658203710E+02  0.00000000000E+00 0.  1.
</event>
<event>
12    1  0.2576962E-002  0.2581902E+03  0.7818608E-02  0.1108235E+00
          1   -1    0    0  502    0  0.00000000000E+00  0.00000000000E+00  0.84407959134E+03  0.84407959134E+03  0.00000000000E+00 0.  1.
         -1   -1    0    0    0  501 -0.00000000000E+00 -0.00000000000E+00 -0.79693705935E+02  0.79693705935E+02  0.00000000000E+00 0. -1.
          6    2    1    2  502    0 -0.18491702694E+03  0.55827626575E+02  0.42798268218E+03  0.50055048096E+03  0.17340869933E+03 0.  0.
         24    2    3    3    0    0 -0.87741905494E+02  0.96637942109E+02  0.27292484916E+03  0.31300446617E+03  0.80288783279E+02 0.  0.
         -6    2    1    2    0  501  0.18491702694E+03 -0.55827626575E+02  0.33640320322E+03  0.42322281631E+03  0.16923181252E+03 0.  0.
        -24    2    5    5    0    0  0.19527509022E+03 -0.19501645682E+02  0.24483966681E+03  0.32406215091E+03  0.80976170356E+02 0.  0.
          5    1    3    3  502    0 -0.97175121447E+02 -0.40810315533E+02  0.15505783302E+03  0.18754601479E+03  0.47000000000E+01 0. -1.
        -11    1    4    4    0    0 -0.97530113457E+02  0.95039743926E+02  0.27042300569E+03  0.30277595341E+03  0.00000000000E+00 0.  1.
         12    1    4    4    0    0  0.97882079636E+01  0.15981981828E+01  0.25018434676E+01  0.10228512761E+02  0.00000000000E+00 0. -1.
         -5    1    5    5    0  501 -0.10358063276E+02 -0.36325980894E+02  0.91563536409E+02  0.99160665399E+02  0.47000000000E+01 0.  1.
         11    1    6    6    0    0  0.30304343321E+02  0.25055195249E+02  0.29487497190E+02  0.49149043975E+02  0.00000000000E+00 0. -1.
        -12    1    6    6    0    0  0.16497074690E+03 -0.44556840930E+02  0.21535216962E+03  0.27491310694E+03  0.00000000000E+00 0.  1.
</event>
<event>
12    1  0.2576962E-002  0.2245438E+03  0.7818608E-02  0.1130540E+00
         -2   -1    0    0    0  501 -0.00000000000E+00  0.00000000000E+00  0.92211939608E+02  0.92211939608E+02  0.00000000000E+00 0. -1.
          2   -1    0    0  502    0  0.00000000000E+00 -0.00000000000E+00 -0.76469805235E+03  0.76469805235E+03  0.00000000000E+00 0.  1.
          6    2    1    2  502    0 -0.52829042616E+02 -0.12710012290E+03 -0.56057717317E+03  0.60241827196E+03  0.17238230281E+03 0.  0.
         24    2    3    3    0    0 -0.38107908392E+02 -0.15712735750E+03 -0.51314885592E+03  0.54419557975E+03  0.81767117655E+02 0.  0.
         -6    2    1    2    0  501  0.52829042616E+02  0.12710012290E+03 -0.11190893958E+03  0.25449172001E+03  0.18247486350E+03 0.  0.
        -24    2    5    5    0    0 -0.39267643621E+02  0.81730609491E+02 -0.84108035681E+02  0.14802495232E+03  0.81335013871E+02 0.  0.
          5    1    3    3  502    0 -0.14721134224E+02  0.30027234600E+02 -0.47428317252E+02  0.58222692208E+02  0.47000000000E+01 0. -1.
        -13    1    4    4    0    0 -0.60921383392E+02 -0.97267573070E+02 -0.36940613842E+03  0.38682462542E+03  0.00000000000E+00 0.  1.
         14    1    4    4    0    0  0.22813475000E+02 -0.59859784432E+02 -0.14374271749E+03  0.15737095433E+03  0.00000000000E+00 0. -1.
         -5    1    5    5    0  501  0.92096686237E+02  0.45369513411E+02 -0.27800903895E+02  0.10646676768E+03  0.47000000000E+01 0.  1.
         13    1    6    6    0    0  0.16812952187E+01  0.47356715869E+02  0.11384055688E+01  0.47400224248E+02  0.00000000000E+00 0. -1.
        -14    1    6    6    0    0 -0.40948938840E+02  0.34373893621E+02 -0.85246441249E+02  0.10062472808E+03  0.00000000000E+00 0.  1.
</event>
<event>
12    1  0.2576962E-002  0.1800889E+03  0.7818608E-02  0.1167717E+00
         -2   -1    0    0    0  501 -0.00000000000E+00  0.00000000000E+00  0.14571090188E+03  0.14571090188E+03  0.00000000000E+00 0. -1.
          2   -1    0    0  502    0  0.00000000000E+00 -0.00000000000E+00 -0.35955275269E+03  0.35955275269E+03  0.00000000000E+00 0.  1.
          6    2    1    2  502    0 -0.31156225667E+01  0.53637677196E+02  0.48837715878E+02  0.18703889779E+03  0.17237087711E+03 0.  0.
         24    2    3    3    0    0  0.58538315939E+02  0.60988351674E+02  0.44920526180E+02  0.12464759292E+03  0.79830165200E+02 0.  0.
         -6    2    1    2    0  501  0.31156225667E+01 -0.53637677196E+02 -0.26267956669E+03  0.31822475678E+03  0.17140517364E+03 0.  0.
        -24    2    5    5    0    0  0.30300506576E+02  0.27209141275E+02 -0.17109185359E+03  0.19298249088E+03  0.79444076899E+02 0.  0.
          5    1    3    3  502    0 -0.61653938506E+02 -0.73506744784E+01  0.39171896984E+01  0.62391304873E+02  0.47000000000E+01 0. -1.
        -11    1    4    4    0    0  0.57634616569E+02  0.49193374637E+01  0.10325462259E+02  0.58758523458E+02  0.00000000000E+00 0.  1.
         12    1    4    4    0    0  0.90369937035E+00  0.56069014210E+02  0.34595063920E+02  0.65889069463E+02  0.00000000000E+00 0. -1.
         -5    1    5    5    0  501 -0.27184884009E+02 -0.80846818470E+02 -0.91587713101E+02  0.12524226589E+03  0.47000000000E+01 0.  1.
         11    1    6    6    0    0 -0.18981120833E+02  0.85357901362E+01 -0.92478557386E+01  0.22774228792E+02  0.00000000000E+00 0. -1.
        -12    1    6    6    0    0  0.49281627409E+02  0.18673351138E+02 -0.16184399785E+03  0.17020826209E+03  0.00000000000E+00 0.  1.
</event>
<event>
12    1  0.2576962E-002  0.1772704E+03  0.7818608E-02  0.1170471E+00
          2   -1    0    0  502    0  0.00000000000E+00  0.00000000000E+00  0.49381697921E+04  0.49381697921E+04  0.00000000000E+00 0. -1.
         -2   -1    0    0    0  501 -0.00000000000E+00 -0.00000000000E+00 -0.23764783140E+02  0.23764783140E+02  0.00000000000E+00 0.  1.
          6    2    1    2  502    0  0.21017588561E+02  0.38136107254E+02  0.33440121331E+03  0.37850311788E+03  0.17188466212E+03 0.  0.
         24    2    3    3    0    0  0.22344199408E+02  0.24921189161E+02  0.70780046243E+02  0.11450576243E+03  0.83554926646E+02 0.  0.
         -6    2    1    2    0  501 -0.21017588561E+02 -0.38136107254E+02  0.45800037956E+04  0.45834314573E+04  0.17179363928E+03 0.  0.
        -24    2    5    5    0    0 -0.47199954424E+02 -0.51621877099E+02  0.43810355916E+04  0.43822404573E+04  0.75272286708E+02 0.  0.
          5    1    3    3  502    0 -0.13266108474E+01  0.13214918093E+02  0.26362116707E+03  0.26399735545E+03  0.47000000000E+01 0. -1.
        -11    1    4    4    0    0 -0.21581945007E+02  0.38043835312E+02  0.40129480867E+02  0.59358984073E+02  0.00000000000E+00 0.  1.
         12    1    4    4    0    0  0.43926144415E+02 -0.13122646151E+02  0.30650565376E+02  0.55146778356E+02  0.00000000000E+00 0. -1.
         -5    1    5    5    0  501  0.26182365863E+02  0.13485769844E+02  0.19896820404E+03  0.20119100002E+03  0.47000000000E+01 0.  1.
         11    1    6    6    0    0 -0.67026902974E+02 -0.33407849903E+02  0.34653075905E+04  0.34661167590E+04  0.00000000000E+00 0. -1.
        -12    1    6    6    0    0  0.19826948550E+02 -0.18214027196E+02  0.91572800107E+03  0.91612369831E+03  0.00000000000E+00 0.  1.
</event>
<event>
12    1  0.2576962E-002  0.1777319E+03  0.7818608E-02  0.1170016E+00
          2   -1    0    0  502    0  0.00000000000E+00  0.00000000000E+00  0.27395825373E+04  0.27395825373E+04  0.00000000000E+00 0.  1.
         -2   -1    0    0    0  501 -0.00000000000E+00 -0.00000000000E+00 -0.16232627070E+02  0.16232627070E+02  0.00000000000E+00 0. -1.
          6    2    1    2  502    0  0.11142997582E+02  0.49192686766E+02  0.63145738531E+03  0.65655868215E+03  0.17258848979E+03 0.  0.
         24    2    3    3    0    0  0.56479535254E+02  0.97269463968E+01  0.52314784217E+03  0.53259903771E+03  0.81813928050E+02 0.  0.
         -6    2    1    2    0  501 -0.11142997582E+02 -0.49192686766E+02  0.20918925249E+04  0.20992564822E+04  0.16828355690E+03 0.  0.
        -24    2    5    5    0    0 -0.41028601404E+02 -0.76432462410E+02  0.10680580816E+04  0.10746130262E+04  0.80745420409E+02 0.  0.
          5    1    3    3  502    0 -0.45336537673E+02  0.39465740369E+02  0.10830954315E+03  0.12395964443E+03  0.47000000000E+01 0. -1.
        -13    1    4    4    0    0 -0.13839361119E+02 -0.16003019324E+02  0.18809393505E+03  0.18928009126E+03  0.00000000000E+00 0.  1.
         14    1    4    4    0    0  0.70318896373E+02  0.25729965721E+02  0.33505390711E+03  0.34331894645E+03  0.00000000000E+00 0. -1.
         -5    1    5    5    0  501  0.29885603822E+02  0.27239775644E+02  0.10238344433E+04  0.10246434560E+04  0.47000000000E+01 0.  1.
         13    1    6    6    0    0  0.19751923549E+02 -0.43591994905E+02  0.52536552014E+03  0.52754083279E+03  0.00000000000E+00 0. -1.
        -14    1    6    6    0    0 -0.60780524953E+02 -0.32840467505E+02  0.54269256146E+03  0.54707219339E+03  0.00000000000E+00 0.  1.
</event>
<event>
12    1  0.2576962E-002  0.1826526E+03  0.7818608E-02  0.1165260E+00
         -1   -1    0    0    0  501 -0.00000000000E+00  0.00000000000E+00  0.66835556344E+02  0.66835556344E+02  0.00000000000E+00 0. -1.
          1   -1    0    0  502    0  0.00000000000E+00 -0.00000000000E+00 -0.69321391308E+03  0.69321391308E+03  0.00000000000E+00 0.  1.
          6    2    1    2  502    0 -0.61339333137E+02  0.18203954224E+02 -0.51341948948E+03  0.54471752242E+03  0.17036346238E+03 0.  0.
         24    2    3    3    0    0 -0.21560371108E+02 -0.50130415121E+02 -0.18475755609E+03  0.20664547638E+03  0.74760218390E+02 0.  0.
         -6    2    1    2    0  501  0.61339333137E+02 -0.18203954224E+02 -0.11295886726E+03  0.21533194701E+03  0.17179710117E+03 0.  0.
        -24    2    5    5    0    0  0.94216373674E+01  0.36624193501E+02 -0.10811083806E+03  0.13952187971E+03  0.79676237425E+02 0.  0.
          5    1    3    3  502    0 -0.39778962029E+02  0.68334369345E+02 -0.32866193338E+03  0.33807204603E+03  0.47000000000E+01 0. -1.
        -11    1    4    4    0    0 -0.42053578107E+02 -0.64998363979E+01 -0.10709652642E+03  0.11524069280E+03  0.00000000000E+00 0.  1.
         12    1    4    4    0    0  0.20493206999E+02 -0.43630578723E+02 -0.77661029670E+02  0.91404783584E+02  0.00000000000E+00 0. -1.
         -5    1    5    5    0  501  0.51917695770E+02 -0.54828147725E+02 -0.48480291987E+01  0.75810067301E+02  0.47000000000E+01 0.  1.
         13    1    6    6    0    0 -0.78100561317E+01 -0.22542046006E+02 -0.47138552649E+02  0.52831656805E+02  0.00000000000E+00 0. -1.
        -14    1    6    6    0    0  0.17231693499E+02  0.59166239507E+02 -0.60972285412E+02  0.86690222901E+02  0.00000000000E+00 0.  1.
</event>
<event>
12    1  0.2576962E-002  0.2106623E+03  0.7818608E-02  0.1141043E+00
          1   -1    0    0  502    0  0.00000000000E+00  0.00000000000E+00  0.63082045799E+03  0.63082045799E+03  0.00000000000E+00 0. -1.
         -1   -1    0    0    0  501 -0.00000000000E+00 -0.00000000000E+00 -0.70388189311E+02  0.70388189311E+02  0.00000000000E+00 0.  1.
          6    2    1    2  502    0  0.43623562607E+02  0.10573836206E+03  0.28009212326E+03  0.34819873708E+03  0.17235761245E+03 0.  0.
         24    2    3    3    0    0 -0.44412517868E+01  0.41637533156E+01  0.18236539810E+03  0.19920131987E+03  0.79918495086E+02 0.  0.
         -6    2    1    2    0  501 -0.43623562607E+02 -0.10573836206E+03  0.28034014542E+03  0.35300991021E+03  0.18149871391E+03 0.  0.
        -24    2    5    5    0    0  0.39103139387E+02 -0.87202266917E+02  0.12759948943E+03  0.17825553391E+03  0.79750327912E+02 0.  0.
          5    1    3    3  502    0  0.48064814394E+02  0.10157460874E+03  0.97726725164E+02  0.14899741721E+03  0.47000000000E+01 0. -1.
        -11    1    4    4    0    0  0.18896800728E+02 -0.90983721263E+01  0.74787097368E+01  0.22266579271E+02  0.00000000000E+00 0.  1.
         12    1    4    4    0    0 -0.23338052514E+02  0.13262125442E+02  0.17488668836E+03  0.17693474060E+03  0.00000000000E+00 0. -1.
         -5    1    5    5    0  501 -0.82726701994E+02 -0.18536095143E+02  0.15274065598E+03  0.17475437630E+03  0.47000000000E+01 0.  1.
         11    1    6    6    0    0  0.35428718405E+02 -0.47835332621E+01  0.66823811638E+02  0.75785869924E+02  0.00000000000E+00 0. -1.
        -12    1    6    6    0    0  0.36744209818E+01 -0.82418733655E+02  0.60775677795E+02  0.10246966399E+03  0.00000000000E+00 0.  1.
</event>
<event>
12    1  0.2576962E-002  0.2007916E+03  0.7818608E-02  0.1149073E+00
         -2   -1    0    0    0  501 -0.00000000000E+00  0.00000000000E+00  0.86223968219E+02  0.86223968219E+02  0.00000000000E+00 0.  1.
          2   -1    0    0  502    0  0.00000000000E+00 -0.00000000000E+00 -0.61832955309E+03  0.61832955309E+03  0.00000000000E+00 0. -1.
          6    2    1    2  502    0  0.82311960635E+02 -0.67364671944E+02 -0.44200408226E+03  0.48632779032E+03  0.17272478980E+03 0.  0.
         24    2    3    3    0    0 -0.66490808381E+01 -0.57567946275E+02 -0.13175184603E+03  0.16339036168E+03  0.77327761130E+02 0.  0.
         -6    2    1    2    0  501 -0.82311960635E+02  0.67364671944E+02 -0.90101502615E+02  0.21822573099E+03  0.16790155153E+03 0.  0.
        -24    2    5    5    0    0 -0.64873254238E+02  0.10433203927E+03 -0.39811438582E+02  0.15324977184E+03  0.82503505327E+02 0.  0.
          5    1    3    3  502    0  0.88961041473E+02 -0.97967256688E+01 -0.31025223623E+03  0.32293742864E+03  0.47000000000E+01 0. -1.
        -11    1    4    4    0    0  0.30328587466E+02 -0.50415536498E+02 -0.84495201759E+02  0.10296110265E+03  0.00000000000E+00 0.  1.
         12    1    4    4    0    0 -0.36977668304E+02 -0.71524097771E+01 -0.47256644272E+02  0.60429259028E+02  0.00000000000E+00 0. -1.
         -5    1    5    5    0  501 -0.17438706397E+02 -0.36967367330E+02 -0.50290064033E+02  0.64975959158E+02  0.47000000000E+01 0.  1.
         13    1    6    6    0    0 -0.48778627343E+02  0.40185257888E+02 -0.56793841675E+02  0.84969111383E+02  0.00000000000E+00 0. -1.
        -14    1    6    6    0    0 -0.16094626895E+02  0.64146781386E+02  0.16982403093E+02  0.68280660453E+02  0.00000000000E+00 0.  1.
</event>
<event>
12    1  0.2576962E-002  0.1820188E+03  0.7818608E-02  0.1165863E+00
          2   -1    0    0  502    0  0.00000000000E+00  0.00000000000E+00  0.31776515674E+04  0.31776515674E+04  0.00000000000E+00 0. -1.
         -2   -1    0    0    0  501 -0.00000000000E+00 -0.00000000000E+00 -0.12477088677E+02  0.12477088677E+02  0.00000000000E+00 0.  1.
          6    2    1    2  502    0 -0.18704928475E+02 -0.63307063895E+02  0.92984961363E+03  0.94733689860E+03  0.16872829278E+03 0.  0.
         24    2    3    3    0    0 -0.32733968483E+02  0.35826166898E+01  0.26073857053E+03  0.27472800679E+03  0.80040787850E+02 0.  0.
         -6    2    1    2    0  501  0.18704928475E+02  0.63307063895E+02  0.22353248651E+04  0.22427917575E+04  0.17052846167E+03 0.  0.
        -24    2    5    5    0    0 -0.50175083133E+02  0.91344884139E+01  0.10792274137E+04  0.10833683961E+04  0.79713820741E+02 0.  0.
          5    1    3    3  502    0  0.14029040008E+02 -0.66889680585E+02  0.66911104310E+03  0.67260889180E+03  0.47000000000E+01 0. -1.
        -13    1    4    4    0    0  0.10014446747E+02 -0.28658861475E+02  0.64028413512E+02  0.70860829953E+02  0.00000000000E+00 0.  1.
         14    1    4    4    0    0 -0.42748415230E+02  0.32241478165E+02  0.19671015702E+03  0.20386717684E+03  0.00000000000E+00 0. -1.
         -5    1    5    5    0  501  0.68880011608E+02  0.54172575481E+02  0.11560974514E+04  0.11594233614E+04  0.47000000000E+01 0.  1.
         13    1    6    6    0    0 -0.43002372413E+02  0.55174942625E+01  0.10709735338E+04  0.10718507158E+04  0.00000000000E+00 0. -1.
        -14    1    6    6    0    0 -0.71727107205E+01  0.36169941514E+01  0.82538799131E+01  0.11517680296E+02  0.00000000000E+00 0.  1.
</event>
<event>
12    1  0.2576962E-002  0.1858330E+03  0.7818608E-02  0.1162274E+00
          2   -1    0    0  502    0  0.00000000000E+00  0.00000000000E+00  0.11871664573E+04  0.11871664573E+04  0.00000000000E+00 0.  1.
         -2   -1    0    0    0  501 -0.00000000000E+00 -0.00000000000E+00 -0.29280288158E+02  0.29280288158E+02  0.00000000000E+00 0. -1.
          6    2    1    2  502    0  0.67895136652E+02 -0.15386412253E+02  0.62754140711E+03  0.65443156931E+03  0.17212196259E+03 0.  0.
         24    2    3    3    0    0  0.45042621665E+02  0.19749600692E+02  0.59479401088E+03  0.60103438955E+03  0.71017867764E+02 0.  0.
         -6    2    1    2    0  501 -0.67895136652E+02  0.15386412253E+02  0.53034476203E+03  0.56201517615E+03  0.17247898522E+03 0.  0.
        -24    2    5    5    0    0 -0.41308613454E+02  0.21113786720E+01  0.11463398369E+03  0.14521713038E+03  0.78969647790E+02 0.  0.
          5    1    3    3  502    0  0.22852514986E+02 -0.35136012944E+02  0.32747396226E+02  0.53397179761E+02  0.47000000000E+01 0. -1.
        -13    1    4    4    0    0  0.18186349614E+02  0.37575295810E+02  0.47966538485E+03  0.48147848092E+03  0.00000000000E+00 0.  1.
         14    1    4    4    0    0  0.26856272051E+02 -0.17825695118E+02  0.11512862603E+03  0.11955590862E+03  0.00000000000E+00 0. -1.
         -5    1    5    5    0  501 -0.26586523197E+02  0.13275033581E+02  0.41571077833E+03  0.41679804577E+03  0.47000000000E+01 0.  1.
         13    1    6    6    0    0 -0.14428630656E+02 -0.24814138837E+02  0.49575783567E+01  0.29129099745E+02  0.00000000000E+00 0. -1.
        -14    1    6    6    0    0 -0.26879982798E+02  0.26925517509E+02  0.10967640534E+03  0.11608803063E+03  0.00000000000E+00 0.  1.
</event>
<event>
12    1  0.2576962E-002  0.1797519E+03  0.7818608E-02  0.1168043E+00
          2   -1    0    0  502    0  0.00000000000E+00  0.00000000000E+00  0.14145608489E+03  0.14145608489E+03  0.00000000000E+00 0.  1.
         -2   -1    0    0    0  501 -0.00000000000E+00 -0.00000000000E+00 -0.23765989207E+03  0.23765989207E+03  0.00000000000E+00 0. -1.
          6    2    1    2  502    0  0.11406853524E+02 -0.42923864762E+02 -0.10472980778E+02  0.17905693342E+03  0.17314481686E+03 0.  0.
         24    2    3    3    0    0  0.44773486631E+01 -0.96172118925E+02 -0.56467581174E+01  0.12493875686E+03  0.79427224425E+02 0.  0.
         -6    2    1    2    0  501 -0.11406853524E+02  0.42923864762E+02 -0.85730826404E+02  0.20005904354E+03  0.17521778401E+03 0.  0.
        -24    2    5    5    0    0  0.48063821876E+02  0.56369048851E+02 -0.20980725493E+02  0.11099614568E+03  0.79952191158E+02 0.  0.
          5    1    3    3  502    0  0.69295048612E+01  0.53248254162E+02 -0.48262226607E+01  0.54118176560E+02  0.47000000000E+01 0. -1.
        -13    1    4    4    0    0  0.39404032826E+02 -0.28601645397E+02 -0.40545224900E+01  0.48858684745E+02  0.00000000000E+00 0.  1.
         14    1    4    4    0    0 -0.34926684162E+02 -0.67570473528E+02 -0.15922356273E+01  0.76080072119E+02  0.00000000000E+00 0. -1.
         -5    1    5    5    0  501 -0.59470675400E+02 -0.13445184088E+02 -0.64750100911E+02  0.89062897862E+02  0.47000000000E+01 0.  1.
         11    1    6    6    0    0  0.19540440342E+00 -0.17117661053E+02 -0.15548359095E+02  0.23125829138E+02  0.00000000000E+00 0. -1.
        -12    1    6    6    0    0  0.47868417472E+02  0.73486709903E+02 -0.54323663985E+01  0.87870316537E+02  0.00000000000E+00 0.  1.
</event>
<event>
12    1  0.2576962E-002  0.2235956E+03  0.7818608E-02  0.1131230E+00
          2   -1    0    0  502    0  0.00000000000E+00  0.00000000000E+00  0.53255393707E+03  0.53255393707E+03  0.00000000000E+00 0.  1.
         -2   -1    0    0    0  501 -0.00000000000E+00 -0.00000000000E+00 -0.10501426204E+03  0.10501426204E+03  0.00000000000E+00 0. -1.
          6    2    1    2  502    0 -0.26477548720E+02 -0.14080669186E+03  0.31775775592E+03  0.38866131005E+03  0.17193032724E+03 0.  0.
         24    2    3    3    0    0 -0.48106250608E+02 -0.16282800094E+03  0.29613748672E+03  0.35068414798E+03  0.80341716226E+02 0.  0.
         -6    2    1    2    0  501  0.26477548720E+02  0.14080669186E+03  0.10978191910E+03  0.24890688906E+03  0.17139132008E+03 0.  0.
        -24    2    5    5    0    0  0.30486616478E+02  0.16978667606E+03  0.81185314226E+02  0.20772718631E+03  0.82477751753E+02 0.  0.
          5    1    3    3  502    0  0.21628701888E+02  0.22021309076E+02  0.21620269201E+02  0.37977162073E+02  0.47000000000E+01 0. -1.
        -13    1    4    4    0    0  0.76914702596E+01 -0.38325587815E+02  0.12975888205E+03  0.13551891701E+03  0.00000000000E+00 0.  1.
         14    1    4    4    0    0 -0.55797720868E+02 -0.12450241312E+03  0.16637860467E+03  0.21516523098E+03  0.00000000000E+00 0. -1.
         -5    1    5    5    0  501 -0.40090677577E+01 -0.28979984194E+02  0.28596604875E+02  0.41179702750E+02  0.47000000000E+01 0.  1.
         11    1    6    6    0    0 -0.20171098754E+02  0.14894593306E+02 -0.12355072393E+01  0.25104752794E+02  0.00000000000E+00 0. -1.
        -12    1    6    6    0    0  0.50657715232E+02  0.15489208275E+03  0.82420821465E+02  0.18262243351E+03  0.00000000000E+00 0.  1.
</event>
<event>
12    1  0.2576962E-002  0.2210984E+03  0.7818608E-02  0.1133067E+00
         -4   -1    0    0    0  501 -0.00000000000E+00  0.00000000000E+00  0.34349799319E+03  0.34349799319E+03  0.00000000000E+00 0. -1.
          4   -1    0    0  502    0  0.00000000000E+00 -0.00000000000E+00 -0.17162707738E+03  0.17162707738E+03  0.00000000000E+00 0.  1.
          6    2    1    2  502    0  0.13799964084E+03  0.16694257090E+02 -0.20503782446E+02  0.22206268188E+03  0.17195589695E+03 0.  0.
         24    2    3    3    0    0  0.94427396913E+02 -0.25963461202E+02  0.43401081920E+02  0.13360849566E+03  0.79855754923E+02 0.  0.
         -6    2    1    2    0  501 -0.13799964084E+03 -0.16694257090E+02  0.19237469826E+03  0.29306238869E+03  0.17191550262E+03 0.  0.
        -24    2    5    5    0    0 -0.84147170870E+02 -0.33907190868E+00  0.20464228948E+03  0.23526823329E+03  0.79948818707E+02 0.  0.
          5    1    3    3  502    0  0.43572243926E+02  0.42657718292E+02 -0.63904864367E+02  0.88454186223E+02  0.47000000000E+01 0. -1.
        -11    1    4    4    0    0 -0.59466175548E+01  0.10940399257E+02 -0.81568774997E+01  0.14885874068E+02  0.00000000000E+00 0.  1.
         12    1    4    4    0    0  0.10037401447E+03 -0.36903860459E+02  0.51557959420E+02  0.11872262159E+03  0.00000000000E+00 0. -1.
         -5    1    5    5    0  501 -0.53852469969E+02 -0.16355185181E+02 -0.12267591226E+02  0.57794155402E+02  0.47000000000E+01 0.  1.
         11    1    6    6    0    0 -0.22940387818E+02  0.31893576264E+02  0.37221602289E+02  0.54119398344E+02  0.00000000000E+00 0. -1.
        -12    1    6    6    0    0 -0.61206783052E+02 -0.32232648172E+02  0.16742068720E+03  0.18114883494E+03  0.00000000000E+00 0.  1.
</event>
<event>
12    1  0.2576962E-002  0.1877415E+03  0.7818608E-02  0.1160514E+00
          4   -1    0    0  502    0  0.00000000000E+00  0.00000000000E+00  0.64390869659E+03  0.64390869659E+03  0.00000000000E+00 0.  1.
         -4   -1    0    0    0  501 -0.00000000000E+00 -0.00000000000E+00 -0.68727772986E+02  0.68727772986E+02  0.00000000000E+00 0. -1.
          6    2    1    2  502    0 -0.68724639937E+02 -0.27381501135E+02  0.12733393523E+03  0.22718672155E+03  0.17299437173E+03 0.  0.
         24    2    3    3    0    0 -0.48295814010E+02  0.49652518116E+02  0.93107435490E+02  0.14032406943E+03  0.78892279158E+02 0.  0.
         -6    2    1    2    0  501  0.68724639937E+02  0.27381501135E+02  0.44784698838E+03  0.48544974803E+03  0.17210958752E+03 0.  0.
        -24    2    5    5    0    0  0.72499660008E+00  0.41261980067E+02  0.12171367017E+03  0.15198063336E+03  0.81122245966E+02 0.  0.
          5    1    3    3  502    0 -0.20428825927E+02 -0.77034019251E+02  0.34226499736E+02  0.86862652129E+02  0.47000000000E+01 0. -1.
        -11    1    4    4    0    0  0.49684322378E+01  0.51361156413E+02  0.48748027001E+02  0.70986082041E+02  0.00000000000E+00 0.  1.
         12    1    4    4    0    0 -0.53264246248E+02 -0.17086382974E+01  0.44359408488E+02  0.69337987385E+02  0.00000000000E+00 0. -1.
         -5    1    5    5    0  501  0.67999643337E+02 -0.13880478931E+02  0.32613331821E+03  0.33346911467E+03  0.47000000000E+01 0.  1.
         13    1    6    6    0    0  0.28795594692E+02  0.15874059140E+02  0.10521713062E+02  0.34523592991E+02  0.00000000000E+00 0. -1.
        -14    1    6    6    0    0 -0.28070598092E+02  0.25387920926E+02  0.11119195711E+03  0.11745704037E+03  0.00000000000E+00 0.  1.
</event>
<event>
12    1  0.2576962E-002  0.1746048E+03  0.7818608E-02  0.1173129E+00
         -2   -1    0    0    0  501 -0.00000000000E+00  0.00000000000E+00  0.81691184099E+02  0.81691184099E+02  0.00000000000E+00 0.  1.
          2   -1    0    0  502    0  0.00000000000E+00 -0.00000000000E+00 -0.73060941712E+03  0.73060941712E+03  0.00000000000E+00 0. -1.
          6    2    1    2  502    0  0.27606651250E+02 -0.14204057512E+02 -0.60829162790E+03  0.63278548521E+03  0.17156597353E+03 0.  0.
         24    2    3    3    0    0  0.83719581467E+01 -0.70657554552E+02 -0.29857073064E+03  0.31733961830E+03  0.80606280478E+02 0.  0.
         -6    2    1    2    0  501 -0.27606651250E+02  0.14204057512E+02 -0.40626605123E+02  0.17951511601E+03  0.17207926485E+03 0.  0.
        -24    2    5    5    0    0 -0.12792186474E+02  0.73894056497E+02 -0.43979264121E+02  0.11774380659E+03  0.79406905854E+02 0.  0.
          5    1    3    3  502    0  0.19234693103E+02  0.56453497040E+02 -0.30972089726E+03  0.31544586691E+03  0.47000000000E+01 0. -1.
        -11    1    4    4    0    0  0.29093087882E+02 -0.72922069446E+02 -0.27445544957E+03  0.28546423554E+03  0.00000000000E+00 0.  1.
         12    1    4    4    0    0 -0.20721129735E+02  0.22645148932E+01 -0.24115281068E+02  0.31875382762E+02  0.00000000000E+00 0. -1.
         -5    1    5    5    0  501 -0.14814464776E+02 -0.59689998985E+02  0.33526589981E+01  0.61771309422E+02  0.47000000000E+01 0.  1.
         11    1    6    6    0    0  0.29114614901E+00  0.84362527578E+02 -0.17113946175E+02  0.86081403212E+02  0.00000000000E+00 0. -1.
        -12    1    6    6    0    0 -0.13083332623E+02 -0.10468471081E+02 -0.26865317946E+02  0.31662403378E+02  0.00000000000E+00 0.  1.
</event>
<event>
12    1  0.2576962E-002  0.2605565E+03  0.7818608E-02  0.1106809E+00
         -1   -1    0    0    0  501 -0.00000000000E+00  0.00000000000E+00  0.18713309278E+03  0.18713309278E+03  0.00000000000E+00 0. -1.
          1   -1    0    0  502    0  0.00000000000E+00 -0.00000000000E+00 -0.78376944706E+03  0.78376944706E+03  0.00000000000E+00 0.  1.
          6    2    1    2  502    0 -0.15903438807E+03  0.11517069413E+03 -0.65394319180E+03  0.70383124948E+03  0.17082302033E+03 0.  0.
         24    2    3    3    0    0 -0.18030899832E+03  0.72684216893E+02 -0.49388132897E+03  0.53679951680E+03  0.80253497608E+02 0.  0.
         -6    2    1    2    0  501  0.15903438807E+03 -0.11517069413E+03  0.57306837518E+02  0.26707129036E+03  0.17171713698E+03 0.  0.
        -24    2    5    5    0    0  0.50351620352E+02 -0.11168667583E+03  0.56437117735E+02  0.15822769250E+03  0.82714298566E+02 0.  0.
          5    1    3    3  502    0  0.21274610246E+02  0.42486477235E+02 -0.16006186283E+03  0.16703173268E+03  0.47000000000E+01 0. -1.
        -11    1    4    4    0    0 -0.13692371555E+03  0.72610241756E+02 -0.44612065952E+03  0.47227533700E+03  0.00000000000E+00 0.  1.
         12    1    4    4    0    0 -0.43385282769E+02  0.73975137300E-01 -0.47760669445E+02  0.64524179802E+02  0.00000000000E+00 0. -1.
         -5    1    5    5    0  501  0.10868276772E+03 -0.34840183029E+01  0.86971978325E+00  0.10884359786E+03  0.47000000000E+01 0.  1.
         11    1    6    6    0    0 -0.13654680209E+02 -0.22212833645E+01  0.23410293232E+02  0.27192392697E+02  0.00000000000E+00 0. -1.
        -12    1    6    6    0    0  0.64006300561E+02 -0.10946539246E+03  0.33026824503E+02  0.13103529980E+03  0.00000000000E+00 0.  1.
</event>
<event>
12    1  0.2576962E-002  0.3888871E+03  0.7818608E-02  0.1047697E+00
         -1   -1    0    0    0  501 -0.00000000000E+00  0.00000000000E+00  0.91463762463E+02  0.91463762463E+02  0.00000000000E+00 0.  1.
          1   -1    0    0  502    0  0.00000000000E+00 -0.00000000000E+00 -0.21960161889E+04  0.21960161889E+04  0.00000000000E+00 0. -1.
          6    2    1    2  502    0 -0.12487141413E+03  0.32563799465E+03 -0.48369852789E+03  0.62061681922E+03  0.17195347275E+03 0.  0.
         24    2    3    3    0    0 -0.13516375667E+03  0.17937761316E+03 -0.33912430777E+03  0.41465122347E+03  0.80528080727E+02 0.  0.
         -6    2    1    2    0  501  0.12487141413E+03 -0.32563799465E+03 -0.16208538986E+04  0.16668631322E+04  0.17214054500E+03 0.  0.
        -24    2    5    5    0    0  0.26336038052E+02 -0.60787342733E+02 -0.45205220457E+03  0.46437630145E+03  0.83099132062E+02 0.  0.
          5    1    3    3  502    0  0.10292342543E+02  0.14626038150E+03 -0.14457422012E+03  0.20596559575E+03  0.47000000000E+01 0. -1.
        -13    1    4    4    0    0 -0.38751634863E+02  0.60141546853E+02 -0.49690703058E+02  0.87108328149E+02  0.00000000000E+00 0.  1.
         14    1    4    4    0    0 -0.96412121807E+02  0.11923606630E+03 -0.28943360471E+03  0.32754289532E+03  0.00000000000E+00 0. -1.
         -5    1    5    5    0  501  0.98535376076E+02 -0.26485065192E+03 -0.11688016940E+04  0.12024868307E+04  0.47000000000E+01 0.  1.
         11    1    6    6    0    0 -0.37271397738E+01 -0.73328988926E+02 -0.29724244820E+03  0.30617659152E+03  0.00000000000E+00 0. -1.
        -12    1    6    6    0    0  0.30063177825E+02  0.12541646193E+02 -0.15480975638E+03  0.15819970992E+03  0.00000000000E+00 0.  1.
</event>
<event>
12    1  0.2576962E-002  0.2982337E+03  0.7818608E-02  0.1086127E+00
         -2   -1    0    0    0  501 -0.00000000000E+00  0.00000000000E+00  0.14577917536E+03  0.14577917536E+03  0.00000000000E+00 0.  1.
          2   -1    0    0  502    0  0.00000000000E+00 -0.00000000000E+00 -0.77388245022E+03  0.77388245022E+03  0.00000000000E+00 0. -1.
          6    2    1    2  502    0  0.56521341907E+01 -0.24390138143E+03 -0.10206152864E+03  0.31468322338E+03  0.17055540147E+03 0.  0.
         24    2    3    3    0    0 -0.11598329035E+02 -0.12036914108E+03 -0.12016132267E+03  0.18855834309E+03  0.80574524020E+02 0.  0.
         -6    2    1    2    0  501 -0.56521341907E+01  0.24390138143E+03 -0.52604174623E+03  0.60497840220E+03  0.17250831246E+03 0.  0.
        -24    2    5    5    0    0 -0.63520886601E+02  0.20276263571E+03 -0.37605733991E+03  0.43897056792E+03  0.78284398948E+02 0.  0.
          5    1    3    3  502    0  0.17250463226E+02 -0.12353224034E+03  0.18099794034E+02  0.12612488029E+03  0.47000000000E+01 0. -1.
        -13    1    4    4    0    0  0.50339358101E+01 -0.10650150807E+03 -0.55158302149E+02  0.12004311736E+03  0.00000000000E+00 0.  1.
         14    1    4    4    0    0 -0.16632264845E+02 -0.13867633018E+02 -0.65003020523E+02  0.68515225727E+02  0.00000000000E+00 0. -1.
         -5    1    5    5    0  501  0.57868752410E+02  0.41138745711E+02 -0.14998440632E+03  0.16600783428E+03  0.47000000000E+01 0.  1.
         11    1    6    6    0    0 -0.54895741392E+02  0.81222895633E+02 -0.22099653437E+03  0.24176469842E+03  0.00000000000E+00 0. -1.
        -12    1    6    6    0    0 -0.86251452091E+01  0.12153974008E+03 -0.15506080554E+03  0.19720586950E+03  0.00000000000E+00 0.  1.
</event>
<event>
12    1  0.2576962E-002  0.1837733E+03  0.7818608E-02  0.1164200E+00
         -1   -1    0    0    0  501 -0.00000000000E+00  0.00000000000E+00  0.16471300830E+04  0.16471300830E+04  0.00000000000E+00 0.  1.
          1   -1    0    0  502    0  0.00000000000E+00 -0.00000000000E+00 -0.24406296529E+02  0.24406296529E+02  0.00000000000E+00 0. -1.
          6    2    1    2  502    0 -0.60484946771E+02  0.22835297366E+02  0.47556134879E+03  0.50967820223E+03  0.17156163258E+03 0.  0.
         24    2    3    3    0    0 -0.28979080388E+02  0.37000989005E+02  0.11985408064E+03  0.15226662288E+03  0.81309676612E+02 0.  0.
         -6    2    1    2    0  501  0.60484946771E+02 -0.22835297366E+02  0.11471624377E+04  0.11618581774E+04  0.17249024941E+03 0.  0.
        -24    2    5    5    0    0  0.28230488590E+02 -0.74739542853E+02  0.55458989962E+03  0.56612442499E+03  0.80894672642E+02 0.  0.
          5    1    3    3  502    0 -0.31505866384E+02 -0.14165691639E+02  0.35570726815E+03  0.35741157935E+03  0.47000000000E+01 0. -1.
        -13    1    4    4    0    0  0.48036650496E+01  0.23256149453E+02  0.11260450107E+03  0.11508126410E+03  0.00000000000E+00 0.  1.
         14    1    4    4    0    0 -0.33782745437E+02  0.13744839552E+02  0.72495795616E+01  0.37185358777E+02  0.00000000000E+00 0. -1.
         -5    1    5    5    0  501  0.32254458182E+02  0.51904245487E+02  0.59257253812E+03  0.59573375236E+03  0.47000000000E+01 0.  1.
         13    1    6    6    0    0  0.52301980164E+02 -0.68319192765E+02  0.47489107743E+03  0.48262256956E+03  0.00000000000E+00 0. -1.
        -14    1    6    6    0    0 -0.24071491574E+02 -0.64203500887E+01  0.79698822187E+02  0.83501855428E+02  0.00000000000E+00 0.  1.
</event>
<event>
12    1  0.2576962E-002  0.1828462E+03  0.7818608E-02  0.1165077E+00
          3   -1    0    0  502    0  0.00000000000E+00  0.00000000000E+00  0.17317364398E+04  0.17317364398E+04  0.00000000000E+00 0.  1.
         -3   -1    0    0    0  501 -0.00000000000E+00 -0.00000000000E+00 -0.19307671577E+02  0.19307671577E+02  0.00000000000E+00 0. -1.
          6    2    1    2  502    0 -0.49404364415E+02  0.32103193968E+02  0.85166180833E+03  0.87121076278E+03  0.17380722401E+03 0.  0.
         24    2    3    3    0    0 -0.27490220746E+02 -0.46968779966E+02  0.55350494387E+03  0.56193384385E+03  0.80250504335E+02 0.  0.
         -6    2    1    2    0  501  0.49404364415E+02 -0.32103193968E+02  0.86076695991E+03  0.87983334863E+03  0.17238200540E+03 0.  0.
        -24    2    5    5    0    0 -0.10558120075E+02 -0.47633883859E+02  0.71764144830E+03  0.72380865843E+03  0.80680015580E+02 0.  0.
          5    1    3    3  502    0 -0.21914143669E+02  0.79071973934E+02  0.29815686447E+03  0.30927691893E+03  0.47000000000E+01 0. -1.
        -13    1    4    4    0    0  0.10710543736E+02 -0.54826550744E+02  0.26656604839E+03  0.27235661286E+03  0.00000000000E+00 0.  1.
         14    1    4    4    0    0 -0.38200764482E+02  0.78577707780E+01  0.28693889548E+03  0.28957723099E+03  0.00000000000E+00 0. -1.
         -5    1    5    5    0  501  0.59962484490E+02  0.15530689891E+02  0.14312551162E+03  0.15602469020E+03  0.47000000000E+01 0.  1.
         13    1    6    6    0    0 -0.71484458872E+01 -0.65375890799E+02  0.37735556677E+03  0.38304351078E+03  0.00000000000E+00 0. -1.
        -14    1    6    6    0    0 -0.34096741877E+01  0.17742006940E+02  0.34028588152E+03  0.34076514765E+03  0.00000000000E+00 0.  1.
</event>
<event>
12    1  0.2576962E-002  0.2991299E+03  0.7818608E-02  0.1085676E+00
         -2   -1    0    0    0  501 -0.00000000000E+00  0.00000000000E+00  0.52069599468E+02  0.52069599468E+02  0.00000000000E+00 0. -1.
          2   -1    0    0  502    0  0.00000000000E+00 -0.00000000000E+00 -0.23559072462E+04  0.23559072462E+04  0.00000000000E+00 0.  1.
          6    2    1    2  502    0  0.22942004714E+03 -0.84688780389E+02 -0.17765973427E+04  0.18015095302E+04  0.17126798188E+03 0.  0.
         24    2    3    3    0    0  0.17068633715E+03 -0.69765793982E+02 -0.16367298508E+04  0.16490059253E+04  0.79591741947E+02 0.  0.
         -6    2    1    2    0  501 -0.22942004714E+03  0.84688780389E+02 -0.52724030406E+03  0.60646731554E+03  0.17324698853E+03 0.  0.
        -24    2    5    5    0    0 -0.13681660760E+03 -0.10955324813E+02 -0.21814709360E+03  0.26989058635E+03  0.80087270522E+02 0.  0.
          5    1    3    3  502    0  0.58733709987E+02 -0.14922986407E+02 -0.13986749185E+03  0.15250360484E+03  0.47000000000E+01 0. -1.
        -13    1    4    4    0    0  0.44585485658E+02 -0.37300026139E+02 -0.81011907334E+03  0.81220198871E+03  0.00000000000E+00 0.  1.
         14    1    4    4    0    0  0.12610085149E+03 -0.32465767842E+02 -0.82661077751E+03  0.83680393661E+03  0.00000000000E+00 0. -1.
         -5    1    5    5    0  501 -0.92603439537E+02  0.95644105202E+02 -0.30909321047E+03  0.33657672919E+03  0.47000000000E+01 0.  1.
         11    1    6    6    0    0 -0.68297610063E+02  0.33564736091E+02 -0.12108357857E+03  0.14301184583E+03  0.00000000000E+00 0. -1.
        -12    1    6    6    0    0 -0.68518997536E+02 -0.44520060904E+02 -0.97063515025E+02  0.12687874052E+03  0.00000000000E+00 0.  1.
</event>
<event>
12    1  0.2576962E-002  0.1969800E+03  0.7818608E-02  0.1152312E+00
         -1   -1    0    0    0  501 -0.00000000000E+00  0.00000000000E+00  0.58704850012E+03  0.58704850012E+03  0.00000000000E+00 0. -1.
          1   -1    0    0  502    0  0.00000000000E+00 -0.00000000000E+00 -0.73220643466E+02  0.73220643466E+02  0.00000000000E+00 0.  1.
          6    2    1    2  502    0  0.75363420545E+02 -0.57362155352E+02  0.15370123936E+03  0.24969833070E+03  0.17249673432E+03 0.  0.
         24    2    3    3    0    0  0.35923001101E+01 -0.86885759256E+02  0.10439490423E+03  0.15763345358E+03  0.79924776358E+02 0.  0.
         -6    2    1    2    0  501 -0.75363420545E+02  0.57362155352E+02  0.36012661729E+03  0.41057081288E+03  0.17293683785E+03 0.  0.
        -24    2    5    5    0    0 -0.34883492541E+01  0.59018701750E+02  0.10322733989E+03  0.14375983345E+03  0.80719454128E+02 0.  0.
          5    1    3    3  502    0  0.71771120435E+02  0.29523603904E+02  0.49306335128E+02  0.92064877123E+02  0.47000000000E+01 0. -1.
        -11    1    4    4    0    0 -0.15855770802E+02 -0.26162857794E+02 -0.50142247497E+01  0.31000694275E+02  0.00000000000E+00 0.  1.
         12    1    4    4    0    0  0.19448070912E+02 -0.60722901462E+02  0.10940912898E+03  0.12663275930E+03  0.00000000000E+00 0. -1.
         -5    1    5    5    0  501 -0.71875071291E+02 -0.16565463984E+01  0.25689927740E+03  0.26681097943E+03  0.47000000000E+01 0.  1.
         13    1    6    6    0    0  0.68974230470E+01 -0.16406823283E+02  0.43470138811E+02  0.46972452173E+02  0.00000000000E+00 0. -1.
        -14    1    6    6    0    0 -0.10385772301E+02  0.75425525033E+02  0.59757201082E+02  0.96787381274E+02  0.00000000000E+00 0.  1.
</event>
<event>
12    1  0.2576962E-002  0.2322224E+03  0.7818608E-02  0.1125085E+00
          2   -1    0    0  502    0  0.00000000000E+00  0.00000000000E+00  0.26309039213E+04  0.26309039213E+04  0.00000000000E+00 0. -1.
         -2   -1    0    0    0  501 -0.00000000000E+00 -0.00000000000E+00 -0.20607072749E+02  0.20607072749E+02  0.00000000000E+00 0.  1.
          6    2    1    2  502    0  0.13788042195E+03  0.71284253330E+02  0.12062673820E+04  0.12283399003E+04  0.17217856490E+03 0.  0.
         24    2    3    3    0    0  0.14116223949E+03  0.10462641707E+03  0.11015815366E+04  0.11183231450E+04  0.79317778082E+02 0.  0.
         -6    2    1    2    0  501 -0.13788042195E+03 -0.71284253330E+02  0.14040294665E+04  0.14231710938E+04  0.17327655257E+03 0.  0.
        -24    2    5    5    0    0 -0.14503832081E+03 -0.95746070783E+02  0.13471797479E+04  0.13606923251E+04  0.79918118955E+02 0.  0.
          5    1    3    3  502    0 -0.32818175443E+01 -0.33342163738E+02  0.10468584543E+03  0.11001675528E+03  0.47000000000E+01 0. -1.
        -13    1    4    4    0    0  0.38979013160E+02 -0.89502621833E+01  0.23329366127E+03  0.23669685898E+03  0.00000000000E+00 0.  1.
         14    1    4    4    0    0  0.10218322633E+03  0.11357667925E+03  0.86828787535E+03  0.88162628607E+03  0.00000000000E+00 0. -1.
         -5    1    5    5    0  501  0.71578988605E+01  0.24461817454E+02  0.56849718617E+02  0.62478768683E+02  0.47000000000E+01 0.  1.
         13    1    6    6    0    0 -0.10047356067E+03 -0.85911581560E+02  0.73345263561E+03  0.74527075947E+03  0.00000000000E+00 0. -1.
        -14    1    6    6    0    0 -0.44564760135E+02 -0.98344892230E+01  0.61372711232E+03  0.61542156562E+03  0.00000000000E+00 0.  1.
</event>
<event>
12    1  0.2576962E-002  0.2068966E+03  0.7818608E-02  0.1144047E+00
         -2   -1    0    0    0  501 -0.00000000000E+00  0.00000000000E+00  0.35235228829E+03  0.35235228829E+03  0.00000000000E+00 0.  1.
          2   -1    0    0  502    0  0.00000000000E+00 -0.00000000000E+00 -0.13243515602E+03  0.13243515602E+03  0.00000000000E+00 0. -1.
          6    2    1    2  502    0 -0.30565665428E+02 -0.11215379685E+03  0.40561241292E+02  0.21142475070E+03  0.17187925082E+03 0.  0.
         24    2    3    3    0    0  0.10807202889E+02  0.32679022684E+01 -0.93123661695E+01  0.78973440469E+02  0.77605472206E+02 0.  0.
         -6    2    1    2    0  501  0.30565665428E+02  0.11215379685E+03  0.17935589098E+03  0.27336269362E+03  0.17042855566E+03 0.  0.
        -24    2    5    5    0    0  0.20261029578E+02 -0.90856323500E+01  0.80977009845E+02  0.11681979546E+03  0.81219027647E+02 0.  0.
          5    1    3    3  502    0 -0.41372868317E+02 -0.11542169912E+03  0.49873607461E+02  0.13245131023E+03  0.47000000000E+01 0. -1.
        -11    1    4    4    0    0  0.73429094660E+01  0.39067932540E+02  0.53929277748E+01  0.40116148150E+02  0.00000000000E+00 0.  1.
         12    1    4    4    0    0  0.34642934232E+01 -0.35800030272E+02 -0.14705293944E+02  0.38857292319E+02  0.00000000000E+00 0. -1.
         -5    1    5    5    0  501  0.10304635849E+02  0.12123942920E+03  0.98378881137E+02  0.15654289817E+03  0.47000000000E+01 0.  1.
         11    1    6    6    0    0  0.51558173132E+02 -0.53608730650E+01  0.58173641821E+02  0.77917628169E+02  0.00000000000E+00 0. -1.
        -12    1    6    6    0    0 -0.31297143553E+02 -0.37247592850E+01  0.22803368024E+02  0.38902167286E+02  0.00000000000E+00 0.  1.
</event>
<event>
12    1  0.2576962E-002  0.2023734E+03  0.7818608E-02  0.1147752E+00
          2   -1    0    0  502    0  0.00000000000E+00  0.00000000000E+00  0.33681629469E+03  0.33681629469E+03  0.00000000000E+00 0.  1.
         -2   -1    0    0    0  501 -0.00000000000E+00 -0.00000000000E+00 -0.15015252128E+03  0.15015252128E+03  0.00000000000E+00 0. -1.
          6    2    1    2  502    0 -0.10214423142E+03 -0.19318478486E+02  0.19994099673E+03  0.28530936496E+03  0.17498109595E+03 0.  0.
         24    2    3    3    0    0 -0.75750642143E+02 -0.48674220092E+02  0.21255210250E+03  0.24360191828E+03  0.77821326288E+02 0.  0.
         -6    2    1    2    0  501  0.10214423142E+03  0.19318478486E+02 -0.13277223316E+02  0.20165945101E+03  0.17228929712E+03 0.  0.
        -24    2    5    5    0    0  0.64091256628E+02  0.76703860640E+02 -0.27626568038E+02  0.13116757439E+03  0.80315215856E+02 0.  0.
          5    1    3    3  502    0 -0.26393589274E+02  0.29355741605E+02 -0.12611105773E+02  0.41707446682E+02  0.47000000000E+01 0. -1.
        -13    1    4    4    0    0 -0.21058891520E+02  0.57667082402E+01  0.12501262267E+03  0.12690503403E+03  0.00000000000E+00 0.  1.
         14    1    4    4    0    0 -0.54691750623E+02 -0.54440928332E+02  0.87539479828E+02  0.11669688424E+03  0.00000000000E+00 0. -1.
         -5    1    5    5    0  501  0.38052974789E+02 -0.57385382153E+02  0.14349344722E+02  0.70491876618E+02  0.47000000000E+01 0.  1.
         11    1    6    6    0    0  0.12598777343E+01  0.50256138649E+02 -0.36911034476E+02  0.62367389154E+02  0.00000000000E+00 0. -1.
        -12    1    6    6    0    0  0.62831378893E+02  0.26447721991E+02  0.92844664379E+01  0.68800185241E+02  0.00000000000E+00 0.  1.
</event>
<event>
12    1  0.2576962E-002  0.1896053E+03  0.7818608E-02  0.1158818E+00
         -3   -1    0    0    0  501 -0.00000000000E+00  0.00000000000E+00  0.63629651907E+03  0.63629651907E+03  0.00000000000E+00 0. -1.
          3   -1    0    0  502    0  0.00000000000E+00 -0.00000000000E+00 -0.56770743121E+02  0.56770743121E+02  0.00000000000E+00 0.  1.
          6    2    1    2  502    0  0.71740655085E+02  0.73245970039E+01  0.27261688692E+03  0.33428100013E+03  0.17950890981E+03 0.  0.
         24    2    3    3    0    0  0.11448687659E+03 -0.18323080675E+02  0.19473790515E+03  0.24169445345E+03  0.83966522695E+02 0.  0.
         -6    2    1    2    0  501 -0.71740655085E+02 -0.73245970039E+01  0.30690888902E+03  0.35878626206E+03  0.17127213540E+03 0.  0.
        -24    2    5    5    0    0 -0.11427864845E+03 -0.16802819429E+02  0.19798721354E+03  0.24137527888E+03  0.75638246264E+02 0.  0.
          5    1    3    3  502    0 -0.42746221504E+02  0.25647677679E+02  0.77878981778E+02  0.92586546679E+02  0.47000000000E+01 0. -1.
        -11    1    4    4    0    0  0.23334855010E+02 -0.36638554784E+02  0.99650710591E+02  0.10870677659E+03  0.00000000000E+00 0.  1.
         12    1    4    4    0    0  0.91152021580E+02  0.18315474109E+02  0.95087194554E+02  0.13298767687E+03  0.00000000000E+00 0. -1.
         -5    1    5    5    0  501  0.42537993364E+02  0.94782224247E+01  0.10892167549E+03  0.11741098318E+03  0.47000000000E+01 0.  1.
         13    1    6    6    0    0 -0.10006163915E+03 -0.37512373509E+02  0.18357931527E+03  0.21241674791E+03  0.00000000000E+00 0. -1.
        -14    1    6    6    0    0 -0.14217009302E+02  0.20709554081E+02  0.14407898263E+02  0.28958530972E+02  0.00000000000E+00 0.  1.
</event>
<event>
12    1  0.2576962E-002  0.3097867E+03  0.7818608E-02  0.1080448E+00
          2   -1    0    0  502    0  0.00000000000E+00  0.00000000000E+00  0.31243090343E+03  0.31243090343E+03  0.00000000000E+00 0. -1.
         -2   -1    0    0    0  501 -0.00000000000E+00 -0.00000000000E+00 -0.31180112489E+03  0.31180112489E+03  0.00000000000E+00 0.  1.
          6    2    1    2  502    0 -0.24596400078E+03 -0.75875320767E+02 -0.37744553047E+02  0.31207553197E+03  0.17236917471E+03 0.  0.
         24    2    3    3    0    0 -0.13426314086E+03 -0.77821992640E+02 -0.81760576247E+02  0.19190743330E+03  0.77851253024E+02 0.  0.
         -6    2    1    2    0  501  0.24596400078E+03  0.75875320767E+02  0.38374331593E+02  0.31215649635E+03  0.17237672380E+03 0.  0.
        -24    2    5    5    0    0  0.24914806104E+03  0.97513772076E+02  0.54912273053E+02  0.28433646180E+03  0.79045390192E+02 0.  0.
          5    1    3    3  502    0 -0.11170085992E+03  0.19466718731E+01  0.44016023200E+02  0.12016809867E+03  0.47000000000E+01 0. -1.
        -11    1    4    4    0    0 -0.11126651829E+03 -0.29174173829E+02 -0.33968528238E+02  0.11993844847E+03  0.00000000000E+00 0.  1.
         12    1    4    4    0    0 -0.22996622564E+02 -0.48647818812E+02 -0.47792048009E+02  0.71968984829E+02  0.00000000000E+00 0. -1.
         -5    1    5    5    0  501 -0.31840602633E+01 -0.21638451309E+02 -0.16537941459E+02  0.27820034553E+02  0.47000000000E+01 0.  1.
         11    1    6    6    0    0  0.18722507841E+03  0.10801128294E+03  0.44282169850E+02  0.22063675531E+03  0.00000000000E+00 0. -1.
        -12    1    6    6    0    0  0.61922982630E+02 -0.10497510864E+02  0.10630103203E+02  0.63699706484E+02  0.00000000000E+00 0.  1.
</event>
<event>
12    1  0.2576962E-002  0.2096496E+03  0.7818608E-02  0.1141844E+00
         -1   -1    0    0    0  501 -0.00000000000E+00  0.00000000000E+00  0.76203854838E+03  0.76203854838E+03  0.00000000000E+00 0. -1.
          1   -1    0    0  502    0  0.00000000000E+00 -0.00000000000E+00 -0.75835620663E+02  0.75835620663E+02  0.00000000000E+00 0.  1.
          6    2    1    2  502    0  0.88040171970E+02  0.77139760998E+02  0.13625583867E+03  0.24878151620E+03  0.17211907106E+03 0.  0.
         24    2    3    3    0    0  0.67695213970E+02  0.19357242789E+02  0.46440542071E+01  0.10353521319E+03  0.75766934003E+02 0.  0.
         -6    2    1    2    0  501 -0.88040171970E+02 -0.77139760998E+02  0.54994708905E+03  0.58909265285E+03  0.17574623263E+03 0.  0.
        -24    2    5    5    0    0 -0.40247248388E+02  0.33654623656E+02  0.28304349565E+03  0.29614354910E+03  0.69533492301E+02 0.  0.
          5    1    3    3  502    0  0.20344958000E+02  0.57782518209E+02  0.13161178446E+03  0.14524630300E+03  0.47000000000E+01 0. -1.
        -13    1    4    4    0    0  0.41317982008E+02 -0.16044684933E+02 -0.24490908588E+02  0.50640025230E+02  0.00000000000E+00 0.  1.
         14    1    4    4    0    0  0.26377231962E+02  0.35401927722E+02  0.29134962795E+02  0.52895187961E+02  0.00000000000E+00 0. -1.
         -5    1    5    5    0  501 -0.47792923582E+02 -0.11079438465E+03  0.26690359340E+03  0.29294910375E+03  0.47000000000E+01 0.  1.
         13    1    6    6    0    0 -0.68765974242E+01 -0.20796295297E+02  0.97059281051E+02  0.99500138333E+02  0.00000000000E+00 0. -1.
        -14    1    6    6    0    0 -0.33370650963E+02  0.54450918953E+02  0.18598421460E+03  0.19664341077E+03  0.00000000000E+00 0.  1.
</event>
<event>
12    1  0.2576962E-002  0.1925261E+03  0.7818608E-02  0.1156202E+00
         -1   -1    0    0    0  501 -0.00000000000E+00  0.00000000000E+00  0.10486032112E+03  0.10486032112E+03  0.00000000000E+00 0. -1.
          1   -1    0    0  502    0  0.00000000000E+00 -0.00000000000E+00 -0.35715348199E+03  0.35715348199E+03  0.00000000000E+00 0.  1.
          6    2    1    2  502    0 -0.55856215590E+02 -0.66825389225E+02 -0.14969303817E+03  0.24402943394E+03  0.17192093964E+03 0.  0.
         24    2    3    3    0    0 -0.79361876694E+02 -0.84174912726E+02 -0.66249344896E+02  0.15549434476E+03  0.80036192736E+02 0.  0.
         -6    2    1    2    0  501  0.55856215590E+02  0.66825389225E+02 -0.10260012270E+03  0.21798436917E+03  0.17147842592E+03 0.  0.
        -24    2    5    5    0    0  0.26625698303E+02  0.85995740539E+02 -0.12235534154E+02  0.12098037763E+03  0.79889600540E+02 0.  0.
          5    1    3    3  502    0  0.23505661104E+02  0.17349523501E+02 -0.83443693270E+02  0.88535089180E+02  0.47000000000E+01 0. -1.
        -11    1    4    4    0    0  0.54383700055E+01 -0.53434555008E+01 -0.34648322862E+02  0.35477241468E+02  0.00000000000E+00 0.  1.
         12    1    4    4    0    0 -0.84800246699E+02 -0.78831457225E+02 -0.31601022034E+02  0.12001710329E+03  0.00000000000E+00 0. -1.
         -5    1    5    5    0  501  0.29230517287E+02 -0.19170351315E+02 -0.90364588547E+02  0.97003991535E+02  0.47000000000E+01 0.  1.
         13    1    6    6    0    0  0.45813398618E+02  0.56249964070E+02 -0.33263164905E+02  0.79808295874E+02  0.00000000000E+00 0. -1.
        -14    1    6    6    0    0 -0.19187700315E+02  0.29745776470E+02  0.21027630751E+02  0.41172081756E+02  0.00000000000E+00 0.  1.
</event>
<event>
12    1  0.2576962E-002  0.1832526E+03  0.7818608E-02  0.1164692E+00
          2   -1    0    0  502    0  0.00000000000E+00  0.00000000000E+00  0.15777940417E+04  0.15777940417E+04  0.00000000000E+00 0. -1.
         -2   -1    0    0    0  501 -0.00000000000E+00 -0.00000000000E+00 -0.21391171395E+02  0.21391171395E+02  0.00000000000E+00 0.  1.
          6    2    1    2  502    0 -0.23241474795E+02  0.56168768672E+02  0.83889402447E+03  0.85889049628E+03  0.17393850518E+03 0.  0.
         24    2    3    3    0    0 -0.40594571440E+02  0.33891009392E+02  0.21371728031E+03  0.23305866586E+03  0.76450939063E+02 0.  0.
         -6    2    1    2    0  501  0.23241474795E+02 -0.56168768672E+02  0.71750884589E+03  0.74029471687E+03  0.17182033398E+03 0.  0.
        -24    2    5    5    0    0  0.57676000258E+02 -0.86670396714E+02  0.46268592011E+03  0.48131035565E+03  0.82116497180E+02 0.  0.
          5    1    3    3  502    0  0.17353096645E+02  0.22277759280E+02  0.62517674416E+03  0.62583183041E+03  0.47000000000E+01 0. -1.
        -13    1    4    4    0    0  0.97212808582E+01 -0.14543698611E+02  0.83315601696E+02  0.85132320283E+02  0.00000000000E+00 0.  1.
         14    1    4    4    0    0 -0.50315852298E+02  0.48434708003E+02  0.13040167861E+03  0.14792634558E+03  0.00000000000E+00 0. -1.
         -5    1    5    5    0  501 -0.34434525463E+02  0.30501628042E+02  0.25482292577E+03  0.25898436122E+03  0.47000000000E+01 0.  1.
         13    1    6    6    0    0  0.64808277590E+02 -0.25524381330E+02  0.27989148815E+03  0.28842824416E+03  0.00000000000E+00 0. -1.
        -14    1    6    6    0    0 -0.71322773318E+01 -0.61146015384E+02  0.18279443196E+03  0.19288211149E+03  0.00000000000E+00 0.  1.
</event>
<event>
12    1  0.2576962E-002  0.2062108E+03  0.7818608E-02  0.1144602E+00
         -1   -1    0    0    0  501 -0.00000000000E+00  0.00000000000E+00  0.20432701530E+03  0.20432701530E+03  0.00000000000E+00 0. -1.
          1   -1    0    0  502    0  0.00000000000E+00 -0.00000000000E+00 -0.28636311116E+03  0.28636311116E+03  0.00000000000E+00 0.  1.
          6    2    1    2  502    0  0.52002344987E+02  0.10166116415E+03 -0.16910612485E+03  0.26584136589E+03  0.17039810497E+03 0.  0.
         24    2    3    3    0    0  0.56728976707E+01  0.97329513978E+02 -0.17183719712E+03  0.21899342423E+03  0.94471590870E+02 0.  0.
         -6    2    1    2    0  501 -0.52002344987E+02 -0.10166116415E+03  0.87070028987E+02  0.22484876058E+03  0.17302178766E+03 0.  0.
        -24    2    5    5    0    0 -0.89514511037E+02 -0.32014365813E+02  0.82179658082E+02  0.14545200467E+03  0.73246311555E+02 0.  0.
          5    1    3    3  502    0  0.46329447316E+02  0.43316501718E+01  0.27310722766E+01  0.46847941658E+02  0.47000000000E+01 0. -1.
        -13    1    4    4    0    0  0.34065085612E+02  0.28647841051E+02 -0.12106352413E+03  0.12898645560E+03  0.00000000000E+00 0.  1.
         14    1    4    4    0    0 -0.28392187941E+02  0.68681672927E+02 -0.50773672997E+02  0.90006968629E+02  0.00000000000E+00 0. -1.
         -5    1    5    5    0  501  0.37512166050E+02 -0.69646798337E+02  0.48903709048E+01  0.79396755903E+02  0.47000000000E+01 0.  1.
         11    1    6    6    0    0 -0.53686831293E+02 -0.18683079331E+02  0.22941834933E+01  0.56891094078E+02  0.00000000000E+00 0. -1.
        -12    1    6    6    0    0 -0.35827679744E+02 -0.13331286482E+02  0.79885474588E+02  0.88560910595E+02  0.00000000000E+00 0.  1.
</event>
<event>
12    1  0.2576962E-002  0.4670574E+03  0.7818608E-02  0.1022754E+00
          2   -1    0    0  502    0  0.00000000000E+00  0.00000000000E+00  0.43003038300E+03  0.43003038300E+03  0.00000000000E+00 0. -1.
         -2   -1    0    0    0  501 -0.00000000000E+00 -0.00000000000E+00 -0.51121828232E+03  0.51121828232E+03  0.00000000000E+00 0.  1.
          6    2    1    2  502    0 -0.40323340118E+03  0.16355829388E+03  0.67149553803E+00  0.46789692107E+03  0.17198426241E+03 0.  0.
         24    2    3    3    0    0 -0.35153529779E+03  0.19209287719E+03  0.61795489804E+00  0.40866003049E+03  0.80783040281E+02 0.  0.
         -6    2    1    2    0  501  0.40323340118E+03 -0.16355829388E+03 -0.81859394856E+02  0.47335174425E+03  0.16736911881E+03 0.  0.
        -24    2    5    5    0    0  0.16347428633E+03 -0.10920174620E+03  0.72348388154E+01  0.21181983434E+03  0.78526655729E+02 0.  0.
          5    1    3    3  502    0 -0.51698103398E+02 -0.28534583305E+02  0.53540639993E-01  0.59236890583E+02  0.47000000000E+01 0. -1.
        -11    1    4    4    0    0 -0.16768322633E+03  0.83553173961E+02  0.39970405259E+02  0.19156312424E+03  0.00000000000E+00 0.  1.
         12    1    4    4    0    0 -0.18385207146E+03  0.10853970323E+03 -0.39352450361E+02  0.21709690625E+03  0.00000000000E+00 0. -1.
         -5    1    5    5    0  501  0.23975911485E+03 -0.54356547679E+02 -0.89094233672E+02  0.26153190991E+03  0.47000000000E+01 0.  1.
         13    1    6    6    0    0  0.10772772952E+03 -0.24799138885E+02  0.39165014970E+01  0.11061464632E+03  0.00000000000E+00 0. -1.
        -14    1    6    6    0    0  0.55746556814E+02 -0.84402607320E+02  0.33183373184E+01  0.10120518802E+03  0.00000000000E+00 0.  1.
</event>
<event>
12    1  0.2576962E-002  0.2582407E+03  0.7818608E-02  0.1108205E+00
          1   -1    0    0  502    0  0.00000000000E+00  0.00000000000E+00  0.10058559396E+03  0.10058559396E+03  0.00000000000E+00 0.  1.
         -1   -1    0    0    0  501 -0.00000000000E+00 -0.00000000000E+00 -0.73724347694E+03  0.73724347694E+03  0.00000000000E+00 0. -1.
          6    2    1    2  502    0  0.59314076948E+02  0.18464828780E+03 -0.44996078493E+03  0.51822126822E+03  0.16874662945E+03 0.  0.
         24    2    3    3    0    0  0.10084093326E+02  0.18356693632E+03 -0.40335278604E+03  0.45025689396E+03  0.78989185988E+02 0.  0.
         -6    2    1    2    0  501 -0.59314076948E+02 -0.18464828780E+03 -0.18669709805E+03  0.31960780268E+03  0.17227939866E+03 0.  0.
        -24    2    5    5    0    0 -0.94623808820E+02 -0.16386783312E+03 -0.11671127077E+03  0.23837535545E+03  0.85993938379E+02 0.  0.
          5    1    3    3  502    0  0.49229983622E+02  0.10813514812E+01 -0.46607998894E+02  0.67964374265E+02  0.47000000000E+01 0. -1.
        -11    1    4    4    0    0 -0.28639472068E+02  0.29081370567E+02 -0.84414307871E+02  0.93764176783E+02  0.00000000000E+00 0.  1.
         12    1    4    4    0    0  0.38723565394E+02  0.15448556575E+03 -0.31893847817E+03  0.35649271717E+03  0.00000000000E+00 0. -1.
         -5    1    5    5    0  501  0.35309731872E+02 -0.20780454683E+02 -0.69985827281E+02  0.81232447223E+02  0.47000000000E+01 0.  1.
         13    1    6    6    0    0 -0.45107670327E+02 -0.41042725455E+02 -0.80670206898E+02  0.10112808470E+03  0.00000000000E+00 0. -1.
        -14    1    6    6    0    0 -0.49516138493E+02 -0.12282510766E+03 -0.36041063870E+02  0.13724727075E+03  0.00000000000E+00 0.  1.
</event>
<event>
12    1  0.2576962E-002  0.1980773E+03  0.7818608E-02  0.1151371E+00
          2   -1    0    0  502    0  0.00000000000E+00  0.00000000000E+00  0.47305580165E+03  0.47305580165E+03  0.00000000000E+00 0.  1.
         -2   -1    0    0    0  501 -0.00000000000E+00 -0.00000000000E+00 -0.96823115199E+02  0.96823115199E+02  0.00000000000E+00 0. -1.
          6    2    1    2  502    0 -0.28833243554E+02  0.90698207463E+02  0.29747995058E+03  0.35841753110E+03  0.17581605396E+03 0.  0.
         24    2    3    3    0    0 -0.83489023562E+02  0.43545348619E+02  0.15175145637E+03  0.19572293865E+03  0.80077148818E+02 0.  0.
         -6    2    1    2    0  501  0.28833243554E+02 -0.90698207463E+02  0.78752735870E+02  0.21146138575E+03  0.17162867909E+03 0.  0.
        -24    2    5    5    0    0 -0.64023090611E+01 -0.44978609603E+02 -0.22142675463E+02  0.95126525007E+02  0.80589656905E+02 0.  0.
          5    1    3    3  502    0  0.54655780008E+02  0.47152858844E+02  0.14572849422E+03  0.16269459245E+03  0.47000000000E+01 0. -1.
        -13    1    4    4    0    0 -0.49480733353E+02 -0.59301822679E+01  0.11499278199E+03  0.12532697214E+03  0.00000000000E+00 0.  1.
         14    1    4    4    0    0 -0.34008290209E+02  0.49475530887E+02  0.36758674374E+02  0.70395966512E+02  0.00000000000E+00 0. -1.
         -5    1    5    5    0  501  0.35235552615E+02 -0.45719597860E+02  0.10089541133E+03  0.11633486074E+03  0.47000000000E+01 0.  1.
         11    1    6    6    0    0  0.36290313644E+02 -0.21911261821E+02 -0.19126074861E+02  0.46506956453E+02  0.00000000000E+00 0. -1.
        -12    1    6    6    0    0 -0.42692622705E+02 -0.23067347782E+02 -0.30166006020E+01  0.48619568553E+02  0.00000000000E+00 0.  1.
</event>
<event>
12    1  0.2576962E-002  0.2239498E+03  0.7818608E-02  0.1130972E+00
          4   -1    0    0  502    0  0.00000000000E+00  0.00000000000E+00  0.96930444036E+03  0.96930444036E+03  0.00000000000E+00 0. -1.
         -4   -1    0    0    0  501 -0.00000000000E+00 -0.00000000000E+00 -0.56600573056E+02  0.56600573056E+02  0.00000000000E+00 0.  1.
          6    2    1    2  502    0  0.85422085523E+02  0.11252556459E+03  0.60330784772E+03  0.64292396579E+03  0.17149907077E+03 0.  0.
         24    2    3    3    0    0 -0.61489745425E+01  0.32029146825E+02  0.36418203784E+03  0.37446880143E+03  0.80837184688E+02 0.  0.
         -6    2    1    2    0  501 -0.85422085523E+02 -0.11252556459E+03  0.30939601958E+03  0.38298104763E+03  0.17603877565E+03 0.  0.
        -24    2    5    5    0    0  0.20401688139E+02 -0.40633610527E+02  0.17288401289E+03  0.19583206393E+03  0.79962467231E+02 0.  0.
          5    1    3    3  502    0  0.91571060065E+02  0.80496417762E+02  0.23912580989E+03  0.26845516435E+03  0.47000000000E+01 0. -1.
        -13    1    4    4    0    0  0.39127747364E+01  0.57584557957E+02  0.20657591882E+03  0.21448753194E+03  0.00000000000E+00 0.  1.
         14    1    4    4    0    0 -0.10061749279E+02 -0.25555411132E+02  0.15760611902E+03  0.15998126950E+03  0.00000000000E+00 0. -1.
         -5    1    5    5    0  501 -0.10582377366E+03 -0.71891954060E+02  0.13651200669E+03  0.18714898370E+03  0.47000000000E+01 0.  1.
         13    1    6    6    0    0  0.22302923864E+02 -0.24981470796E+02  0.14213677539E+02  0.36380254606E+02  0.00000000000E+00 0. -1.
        -14    1    6    6    0    0 -0.19012357241E+01 -0.15652139731E+02  0.15867033535E+03  0.15945180932E+03  0.00000000000E+00 0.  1.
</event>
<event>
12    1  0.2576962E-002  0.3572266E+03  0.7818608E-02  0.1059687E+00
          1   -1    0    0  502    0  0.00000000000E+00  0.00000000000E+00  0.26448386440E+03  0.26448386440E+03  0.00000000000E+00 0. -1.
         -1   -1    0    0    0  501 -0.00000000000E+00 -0.00000000000E+00 -0.52254676313E+03  0.52254676313E+03  0.00000000000E+00 0.  1.
          6    2    1    2  502    0  0.12053292831E+03  0.28807374486E+03 -0.20047383543E+02  0.35769353455E+03  0.17328617309E+03 0.  0.
         24    2    3    3    0    0  0.46411935197E+02  0.12303780438E+03 -0.71838901498E+02  0.16945104571E+03  0.79123069253E+02 0.  0.
         -6    2    1    2    0  501 -0.12053292831E+03 -0.28807374486E+03 -0.23801551519E+03  0.42933709299E+03  0.17367868223E+03 0.  0.
        -24    2    5    5    0    0 -0.12120823592E+03 -0.11444650718E+03 -0.12311129996E+03  0.22107777775E+03  0.77003585482E+02 0.  0.
          5    1    3    3  502    0  0.74120993114E+02  0.16503594049E+03  0.51791517956E+02  0.18824248884E+03  0.47000000000E+01 0. -1.
        -13    1    4    4    0    0  0.55472247037E+02  0.11841485098E+03 -0.41096985521E+02  0.13707008916E+03  0.00000000000E+00 0.  1.
         14    1    4    4    0    0 -0.90603118401E+01  0.46229533958E+01 -0.30741915977E+02  0.32380956544E+02  0.00000000000E+00 0. -1.
         -5    1    5    5    0  501  0.67530761016E+00 -0.17362723768E+03 -0.11490421523E+03  0.20825931524E+03  0.47000000000E+01 0.  1.
         11    1    6    6    0    0 -0.20584299194E+02 -0.55092095299E+01  0.83628486385E+01  0.22891089977E+02  0.00000000000E+00 0. -1.
        -12    1    6    6    0    0 -0.10062393673E+03 -0.10893729765E+03 -0.13147414860E+03  0.19818668777E+03  0.00000000000E+00 0.  1.
</event>
<event>
12    1  0.2576962E-002  0.1992444E+03  0.7818608E-02  0.1150378E+00
          2   -1    0    0  502    0  0.00000000000E+00  0.00000000000E+00  0.73599972408E+03  0.73599972408E+03  0.00000000000E+00 0.  1.
         -2   -1    0    0    0  501 -0.00000000000E+00 -0.00000000000E+00 -0.54075332840E+02  0.54075332840E+02  0.00000000000E+00 0. -1.
          6    2    1    2  502    0 -0.36607777884E+02 -0.10237523897E+03  0.32975372467E+03  0.38742552946E+03  0.17187263593E+03 0.  0.
         24    2    3    3    0    0 -0.64654935176E+02 -0.55246582143E+02  0.10884575962E+03  0.15976312073E+03  0.80277081879E+02 0.  0.
         -6    2    1    2    0  501  0.36607777884E+02  0.10237523897E+03  0.35217066656E+03  0.40264952746E+03  0.16211614547E+03 0.  0.
        -24    2    5    5    0    0  0.82419360519E+02  0.71403274327E+02  0.20501565153E+03  0.24537698648E+03  0.79291043303E+02 0.  0.
          5    1    3    3  502    0  0.28047157292E+02 -0.47128656825E+02  0.22090796505E+03  0.22766240873E+03  0.47000000000E+01 0. -1.
        -13    1    4    4    0    0 -0.32522115061E+02 -0.32216245095E+02  0.11110376591E+03  0.12016497499E+03  0.00000000000E+00 0.  1.
         14    1    4    4    0    0 -0.32132820115E+02 -0.23030337048E+02 -0.22580062849E+01  0.39598145733E+02  0.00000000000E+00 0. -1.
         -5    1    5    5    0  501 -0.45811582635E+02  0.30971964641E+02  0.14715501503E+03  0.15727254098E+03  0.47000000000E+01 0.  1.
         11    1    6    6    0    0  0.47276640964E+02 -0.55149821387E+01  0.98295008138E+02  0.10921265693E+03  0.00000000000E+00 0. -1.
        -12    1    6    6    0    0  0.35142719555E+02  0.76918256466E+02  0.10672064339E+03  0.13616432955E+03  0.00000000000E+00 0.  1.
</event>
<event>
12    1  0.2576962E-002  0.2947398E+03  0.7818608E-02  0.1087900E+00
          2   -1    0    0  502    0  0.00000000000E+00  0.00000000000E+00  0.17760057262E+04  0.17760057262E+04  0.00000000000E+00 0. -1.
         -2   -1    0    0    0  501 -0.00000000000E+00 -0.00000000000E+00 -0.49056443197E+02  0.49056443197E+02  0.00000000000E+00 0.  1.
          6    2    1    2  502    0 -0.14511361891E+03  0.19408799866E+03  0.91604542263E+03  0.96266730048E+03  0.16988525978E+03 0.  0.
         24    2    3    3    0    0 -0.17514630488E+03  0.17576503550E+03  0.80278064828E+03  0.84397150311E+03  0.79129975352E+02 0.  0.
         -6    2    1    2    0  501  0.14511361891E+03 -0.19408799866E+03  0.81090386034E+03  0.86239486888E+03  0.16562525633E+03 0.  0.
        -24    2    5    5    0    0  0.62901648737E+02 -0.10929802151E+03  0.26682700948E+03  0.30562754054E+03  0.79428367902E+02 0.  0.
          5    1    3    3  502    0  0.30032685970E+02  0.18322963160E+02  0.11326477435E+03  0.11869579737E+03  0.47000000000E+01 0. -1.
        -13    1    4    4    0    0 -0.17109879581E+03  0.17766705141E+03  0.72015789060E+03  0.76122780196E+03  0.00000000000E+00 0.  1.
         14    1    4    4    0    0 -0.40475090735E+01 -0.19020159076E+01  0.82622757684E+02  0.82743701159E+02  0.00000000000E+00 0. -1.
         -5    1    5    5    0  501  0.82211970171E+02 -0.84789977151E+02  0.54407685086E+03  0.55676732834E+03  0.47000000000E+01 0.  1.
         11    1    6    6    0    0  0.78322421021E+02 -0.10771758436E+03  0.24494811718E+03  0.27881366488E+03  0.00000000000E+00 0. -1.
        -12    1    6    6    0    0 -0.15420772284E+02 -0.15804371488E+01  0.21878892303E+02  0.26813875658E+02  0.00000000000E+00 0.  1.
</event>
<event>
12    1  0.2576962E-002  0.3990945E+03  0.7818608E-02  0.1044094E+00
          1   -1    0    0  502    0  0.00000000000E+00  0.00000000000E+00  0.14739195480E+04  0.14739195480E+04  0.00000000000E+00 0. -1.
         -1   -1    0    0    0  501 -0.00000000000E+00 -0.00000000000E+00 -0.10809924719E+03  0.10809924719E+03  0.00000000000E+00 0.  1.
          6    2    1    2  502    0  0.75151497568E+02  0.35270945601E+03  0.69828979590E+03  0.80457260038E+03  0.17226933062E+03 0.  0.
         24    2    3    3    0    0  0.19288775441E+02  0.25712904972E+03  0.36994436277E+03  0.45803389944E+03  0.80304523053E+02 0.  0.
         -6    2    1    2    0  501 -0.75151497568E+02 -0.35270945601E+03  0.66753050489E+03  0.77744619480E+03  0.16962872077E+03 0.  0.
        -24    2    5    5    0    0 -0.35552656710E+01 -0.68258266652E+02  0.15882738186E+03  0.19021586782E+03  0.79272367579E+02 0.  0.
          5    1    3    3  502    0  0.55862722127E+02  0.95580406290E+02  0.32834543313E+03  0.34653870094E+03  0.47000000000E+01 0. -1.
        -11    1    4    4    0    0 -0.24006016492E+02  0.30517423837E+02  0.43726184221E+02  0.58477185056E+02  0.00000000000E+00 0.  1.
         12    1    4    4    0    0  0.43294791933E+02  0.22661162588E+03  0.32621817855E+03  0.39955671438E+03  0.00000000000E+00 0. -1.
         -5    1    5    5    0  501 -0.71596231897E+02 -0.28445118936E+03  0.50870312303E+03  0.58723032698E+03  0.47000000000E+01 0.  1.
         11    1    6    6    0    0  0.26416529855E+02 -0.95435732162E+01  0.92623152729E+02  0.96788228937E+02  0.00000000000E+00 0. -1.
        -12    1    6    6    0    0 -0.29971795526E+02 -0.58714693436E+02  0.66204229129E+02  0.93427638881E+02  0.00000000000E+00 0.  1.
</event>
<event>
12    1  0.2576962E-002  0.2368636E+03  0.7818608E-02  0.1121900E+00
          1   -1    0    0  502    0  0.00000000000E+00  0.00000000000E+00  0.31473763475E+03  0.31473763475E+03  0.00000000000E+00 0.  1.
         -1   -1    0    0    0  501 -0.00000000000E+00 -0.00000000000E+00 -0.37958422113E+03  0.37958422113E+03  0.00000000000E+00 0. -1.
          6    2    1    2  502    0 -0.40372301623E+02 -0.15633634544E+03  0.22045849170E+03  0.32296201379E+03  0.17213814261E+03 0.  0.
         24    2    3    3    0    0  0.26370991119E+02 -0.10460650024E+03  0.19060056317E+03  0.23327238280E+03  0.80308659763E+02 0.  0.
         -6    2    1    2    0  501  0.40372301623E+02  0.15633634544E+03 -0.28530507809E+03  0.37135984209E+03  0.17446538078E+03 0.  0.
        -24    2    5    5    0    0  0.36231482155E+02  0.81784197343E+01 -0.78852821830E+02  0.11716987091E+03  0.78303284031E+02 0.  0.
          5    1    3    3  502    0 -0.66743292742E+02 -0.51729845199E+02  0.29857928537E+02  0.89689630989E+02  0.47000000000E+01 0. -1.
        -11    1    4    4    0    0  0.29162221198E+02 -0.60325746687E+02  0.17303132207E+03  0.18555179675E+03  0.00000000000E+00 0.  1.
         12    1    4    4    0    0 -0.27912300790E+01 -0.44280753550E+02  0.17569241093E+02  0.47720586050E+02  0.00000000000E+00 0. -1.
         -5    1    5    5    0  501  0.41408194682E+01  0.14815792570E+03 -0.20645225626E+03  0.25418997118E+03  0.47000000000E+01 0.  1.
         13    1    6    6    0    0 -0.10365583986E+02  0.15188045150E+02 -0.65732515003E+02  0.68256029590E+02  0.00000000000E+00 0. -1.
        -14    1    6    6    0    0  0.46597066141E+02 -0.70096254159E+01 -0.13120306827E+02  0.48913841320E+02  0.00000000000E+00 0.  1.
</event>
<event>
12    1  0.2576962E-002  0.2050732E+03  0.7818608E-02  0.1145528E+00
         -1   -1    0    0    0  501 -0.00000000000E+00  0.00000000000E+00  0.32771798157E+03  0.32771798157E+03  0.00000000000E+00 0.  1.
          1   -1    0    0  502    0  0.00000000000E+00 -0.00000000000E+00 -0.14784194017E+03  0.14784194017E+03  0.00000000000E+00 0. -1.
          6    2    1    2  502    0  0.73853299826E+02  0.82598788037E+02  0.38381534294E+01  0.20586003903E+03  0.17345533882E+03 0.  0.
         24    2    3    3    0    0  0.36385066765E+02  0.24741002337E+02  0.65670438777E+02  0.11314157611E+03  0.80947016218E+02 0.  0.
         -6    2    1    2    0  501 -0.73853299826E+02 -0.82598788037E+02  0.17603788797E+03  0.26969988271E+03  0.17167358286E+03 0.  0.
        -24    2    5    5    0    0  0.32700048433E+01  0.65721185532E+01  0.48071779817E+02  0.95639923095E+02  0.82354193584E+02 0.  0.
          5    1    3    3  502    0  0.37468233060E+02  0.57857785699E+02 -0.61832285348E+02  0.92718462919E+02  0.47000000000E+01 0. -1.
        -13    1    4    4    0    0 -0.30120577051E+01 -0.14059999119E+02  0.54970278179E+02  0.56819781326E+02  0.00000000000E+00 0.  1.
         14    1    4    4    0    0  0.39397124470E+02  0.38801001456E+02  0.10700160598E+02  0.56321794781E+02  0.00000000000E+00 0. -1.
         -5    1    5    5    0  501 -0.77123304669E+02 -0.89170906590E+02  0.12796610815E+03  0.17405995961E+03  0.47000000000E+01 0.  1.
         11    1    6    6    0    0 -0.29092483913E+02 -0.15204192942E+02 -0.11378335830E+01  0.32845620234E+02  0.00000000000E+00 0. -1.
        -12    1    6    6    0    0  0.32362488757E+02  0.21776311495E+02  0.49209613400E+02  0.62794302861E+02  0.00000000000E+00 0.  1.
</event>
<event>
12    1  0.2576962E-002  0.2407942E+03  0.7818608E-02  0.1119265E+00
          1   -1    0    0  502    0  0.00000000000E+00  0.00000000000E+00  0.83886121305E+03  0.83886121305E+03  0.00000000000E+00 0.  1.
         -1   -1    0    0    0  501 -0.00000000000E+00 -0.00000000000E+00 -0.81662053417E+02  0.81662053417E+02  0.00000000000E+00 0. -1.
          6    2    1    2  502    0 -0.14025465189E+03 -0.95017574251E+02  0.55807025811E+03  0.60753479335E+03  0.17016581723E+03 0.  0.
         24    2    3    3    0    0 -0.67479098905E+01 -0.61375809670E+02  0.25862744912E+03  0.27792304548E+03  0.80873589429E+02 0.  0.
         -6    2    1    2    0  501  0.14025465189E+03  0.95017574251E+02  0.19912890153E+03  0.31298847312E+03  0.17207486188E+03 0.  0.
        -24    2    5    5    0    0  0.10040755160E+03  0.11252408120E+03  0.94164115229E+02  0.19926087950E+03  0.89970396432E+02 0.  0.
          5    1    3    3  502    0 -0.13350674200E+03 -0.33641764580E+02  0.29944280899E+03  0.32961174787E+03  0.47000000000E+01 0. -1.
        -11    1    4    4    0    0 -0.24532015901E+02 -0.75169451488E+02  0.19436070293E+03  0.20982933323E+03  0.00000000000E+00 0.  1.
         12    1    4    4    0    0  0.17784106010E+02  0.13793641817E+02  0.64266746196E+02  0.68093712248E+02  0.00000000000E+00 0. -1.
         -5    1    5    5    0  501  0.39847100285E+02 -0.17506506953E+02  0.10496478630E+03  0.11372759362E+03  0.47000000000E+01 0.  1.
         13    1    6    6    0    0  0.10087998911E+03  0.60596910954E+02  0.40170940596E+02  0.12434814952E+03  0.00000000000E+00 0. -1.
        -14    1    6    6    0    0 -0.47243750435E+00  0.51927170250E+02  0.53993174633E+02  0.74912729988E+02  0.00000000000E+00 0.  1.
</event>
<event>
12    1  0.2576962E-002  0.3781539E+03  0.7818608E-02  0.1051618E+00
          2   -1    0    0  502    0  0.00000000000E+00  0.00000000000E+00  0.60262012481E+03  0.60262012481E+03  0.00000000000E+00 0. -1.
         -2   -1    0    0    0  501 -0.00000000000E+00 -0.00000000000E+00 -0.26857081205E+03  0.26857081205E+03  0.00000000000E+00 0.  1.
          6    2    1    2  502    0 -0.27701289745E+03  0.18947012777E+03  0.17858472203E+02  0.37721313442E+03  0.17127682004E+03 0.  0.
         24    2    3    3    0    0 -0.45721045933E+02  0.55081981836E+02 -0.11949535604E+02  0.10801673461E+03  0.80002404901E+02 0.  0.
         -6    2    1    2    0  501  0.27701289745E+03 -0.18947012777E+03  0.31619084056E+03  0.49397780245E+03  0.17720707375E+03 0.  0.
        -24    2    5    5    0    0  0.17490267969E+03 -0.95897234072E+02  0.27449202888E+03  0.34925992553E+03  0.82761070523E+02 0.  0.
          5    1    3    3  502    0 -0.23129185151E+03  0.13438814593E+03  0.29808007807E+02  0.26919639981E+03  0.47000000000E+01 0. -1.
        -11    1    4    4    0    0  0.19233635665E+02  0.31180909117E+02  0.44008470291E+01  0.36899177346E+02  0.00000000000E+00 0.  1.
         12    1    4    4    0    0 -0.64954681598E+02  0.23901072719E+02 -0.16350382633E+02  0.71117557262E+02  0.00000000000E+00 0. -1.
         -5    1    5    5    0  501  0.10211021775E+03 -0.93572893696E+02  0.41698811678E+02  0.14471787692E+03  0.47000000000E+01 0.  1.
         13    1    6    6    0    0  0.31378225266E+02  0.10855980277E+02  0.70656697857E+02  0.78069291534E+02  0.00000000000E+00 0. -1.
        -14    1    6    6    0    0  0.14352445443E+03 -0.10675321435E+03  0.20383533102E+03  0.27119063399E+03  0.00000000000E+00 0.  1.
</event>
<event>
12    1  0.2576962E-002  0.1846142E+03  0.7818608E-02  0.1163411E+00
         -2   -1    0    0    0  501 -0.00000000000E+00  0.00000000000E+00  0.39176607356E+03  0.39176607356E+03  0.00000000000E+00 0. -1.
          2   -1    0    0  502    0  0.00000000000E+00 -0.00000000000E+00 -0.87044193717E+02  0.87044193717E+02  0.00000000000E+00 0.  1.
          6    2    1    2  502    0  0.52957785169E+02  0.41629677894E+02  0.15827258156E+03  0.24349583501E+03  0.17234400048E+03 0.  0.
         24    2    3    3    0    0  0.89226466559E+02  0.62722673976E+02  0.14701176522E+03  0.19980112459E+03  0.80078299867E+02 0.  0.
         -6    2    1    2    0  501 -0.52957785169E+02 -0.41629677894E+02  0.14644929828E+03  0.23531443227E+03  0.17142907564E+03 0.  0.
        -24    2    5    5    0    0  0.12066780453E+02 -0.47031700194E+02  0.14205764907E+03  0.16974955934E+03  0.79227200024E+02 0.  0.
          5    1    3    3  502    0 -0.36268681390E+02 -0.21092996083E+02  0.11260816335E+02  0.43694710413E+02  0.47000000000E+01 0. -1.
        -13    1    4    4    0    0  0.58731222679E+01  0.49043371356E+02  0.40591543151E+02  0.63932927467E+02  0.00000000000E+00 0.  1.
         14    1    4    4    0    0  0.83353344291E+02  0.13679302621E+02  0.10642022207E+03  0.13586819713E+03  0.00000000000E+00 0. -1.
         -5    1    5    5    0  501 -0.65024565622E+02  0.54020222999E+01  0.43916492153E+01  0.65564872928E+02  0.47000000000E+01 0.  1.
         11    1    6    6    0    0 -0.25165013039E+02 -0.71527501699E+01  0.92207546298E+02  0.95847124686E+02  0.00000000000E+00 0. -1.
        -12    1    6    6    0    0  0.37231793492E+02 -0.39878950024E+02  0.49850102771E+02  0.73902434654E+02  0.00000000000E+00 0.  1.
</event>
<event>
12    1  0.2576962E-002  0.1840426E+03  0.7818608E-02  0.1163947E+00
          2   -1    0    0  502    0  0.00000000000E+00  0.00000000000E+00  0.34142878082E+03  0.34142878082E+03  0.00000000000E+00 0.  1.
         -2   -1    0    0    0  501 -0.00000000000E+00 -0.00000000000E+00 -0.11454057063E+03  0.11454057063E+03  0.00000000000E+00 0. -1.
          6    2    1    2  502    0 -0.56672450427E+02 -0.32998451202E+02  0.19666071825E+03  0.26908850224E+03  0.17155908462E+03 0.  0.
         24    2    3    3    0    0  0.28320749065E+01  0.24943454134E+02  0.43911660445E+02  0.95156280988E+02  0.80599549230E+02 0.  0.
         -6    2    1    2    0  501  0.56672450427E+02  0.32998451202E+02  0.30227491932E+02  0.18688084921E+03  0.17236613970E+03 0.  0.
        -24    2    5    5    0    0 -0.29782814396E+02 -0.11111689394E+02  0.25126783699E+02  0.89575533102E+02  0.79887015196E+02 0.  0.
          5    1    3    3  502    0 -0.59504525333E+02 -0.57941905336E+02  0.15274905781E+03  0.17393222125E+03  0.47000000000E+01 0. -1.
        -11    1    4    4    0    0 -0.28348706119E+02 -0.16036370050E+02  0.21301453492E+02  0.38917428279E+02  0.00000000000E+00 0.  1.
         12    1    4    4    0    0  0.31180781026E+02  0.40979824184E+02  0.22610206953E+02  0.56238852709E+02  0.00000000000E+00 0. -1.
         -5    1    5    5    0  501  0.86455264823E+02  0.44110140596E+02  0.51007082335E+01  0.97305316111E+02  0.47000000000E+01 0.  1.
         13    1    6    6    0    0  0.40273440306E+01 -0.16398320222E+02 -0.24219348832E+02  0.29524587446E+02  0.00000000000E+00 0. -1.
        -14    1    6    6    0    0 -0.33810158427E+02  0.52866308279E+01  0.49346132530E+02  0.60050945655E+02  0.00000000000E+00 0.  1.
</event>
<event>
12    1  0.2576962E-002  0.2283736E+03  0.7818608E-02  0.1127790E+00
          2   -1    0    0  502    0  0.00000000000E+00  0.00000000000E+00  0.58032767074E+03  0.58032767074E+03  0.00000000000E+00 0.  1.
         -2   -1    0    0    0  501 -0.00000000000E+00 -0.00000000000E+00 -0.92923809139E+02  0.92923809139E+02  0.00000000000E+00 0. -1.
          6    2    1    2  502    0 -0.10820741665E+02 -0.14862260003E+03  0.30469957606E+03  0.38077293010E+03  0.17303302272E+03 0.  0.
         24    2    3    3    0    0  0.21829360956E+02 -0.15013296397E+03  0.16772403438E+03  0.23987332250E+03  0.79946427496E+02 0.  0.
         -6    2    1    2    0  501  0.10820741665E+02  0.14862260003E+03  0.18270428554E+03  0.29247854978E+03  0.17308113831E+03 0.  0.
        -24    2    5    5    0    0 -0.25506705030E+01  0.15874141500E+03  0.19975540096E+03  0.26810611419E+03  0.82300215640E+02 0.  0.
          5    1    3    3  502    0 -0.32650102620E+02  0.15103639438E+01  0.13697554169E+03  0.14089960760E+03  0.47000000000E+01 0. -1.
        -11    1    4    4    0    0  0.79022060024E+01 -0.91236941163E+02  0.15181398787E+03  0.17729667568E+03  0.00000000000E+00 0.  1.
         12    1    4    4    0    0  0.13927154953E+02 -0.58896022808E+02  0.15910046501E+02  0.62576646821E+02  0.00000000000E+00 0. -1.
         -5    1    5    5    0  501  0.13371412168E+02 -0.10118814972E+02 -0.17051115423E+02  0.24372435597E+02  0.47000000000E+01 0.  1.
         13    1    6    6    0    0  0.10769063057E+02 -0.47859712973E+01  0.34784480683E+01  0.12287304071E+02  0.00000000000E+00 0. -1.
        -14    1    6    6    0    0 -0.13319733560E+02  0.16352738630E+03  0.19627695289E+03  0.25581881011E+03  0.00000000000E+00 0.  1.
</event>
<event>
12    1  0.2576962E-002  0.4449897E+03  0.7818608E-02  0.1029227E+00
          1   -1    0    0  502    0  0.00000000000E+00  0.00000000000E+00  0.56977443821E+03  0.56977443821E+03  0.00000000000E+00 0. -1.
         -1   -1    0    0    0  501 -0.00000000000E+00 -0.00000000000E+00 -0.40097828551E+03  0.40097828551E+03  0.00000000000E+00 0.  1.
          6    2    1    2  502    0 -0.38845890965E+03 -0.13514596683E+03 -0.92832101521E+02  0.45440412270E+03  0.16941236913E+03 0.  0.
         24    2    3    3    0    0 -0.17430676000E+03 -0.12239691808E+02 -0.78123220413E+02  0.20700659478E+03  0.78840573784E+02 0.  0.
         -6    2    1    2    0  501  0.38845890965E+03  0.13514596683E+03  0.26162825422E+03  0.51634860102E+03  0.17029908259E+03 0.  0.
        -24    2    5    5    0    0  0.11987046222E+03  0.77471259829E+02  0.13932586115E+03  0.21560603458E+03  0.81875165642E+02 0.  0.
          5    1    3    3  502    0 -0.21415214965E+03 -0.12290627503E+03 -0.14708881108E+02  0.24739752792E+03  0.47000000000E+01 0. -1.
        -11    1    4    4    0    0 -0.35607040918E+02  0.10979105833E+02 -0.51998784093E+02  0.63970897094E+02  0.00000000000E+00 0.  1.
         12    1    4    4    0    0 -0.13869971909E+03 -0.23218797641E+02 -0.26124436320E+02  0.14303569768E+03  0.00000000000E+00 0. -1.
         -5    1    5    5    0  501  0.26858844743E+03  0.57674707004E+02  0.12230239307E+03  0.30074256644E+03  0.47000000000E+01 0.  1.
         11    1    6    6    0    0  0.11524764787E+03  0.88695506737E+02  0.10548881074E+03  0.17965745864E+03  0.00000000000E+00 0. -1.
        -12    1    6    6    0    0  0.46228143519E+01 -0.11224246908E+02  0.33837050415E+02  0.35948575938E+02  0.00000000000E+00 0.  1.
</event>
<event>
12    1  0.2576962E-002  0.1886276E+03  0.7818608E-02  0.1159705E+00
         -1   -1    0    0    0  501 -0.00000000000E+00  0.00000000000E+00  0.35216993027E+02  0.35216993027E+02  0.00000000000E+00 0. -1.
          1   -1    0    0  502    0  0.00000000000E+00 -0.00000000000E+00 -0.24719758308E+04  0.24719758308E+04  0.00000000000E+00 0.  1.
          6    2    1    2  502    0 -0.55417687402E+02  0.58672303533E+02 -0.21807893105E+04  0.21888815539E+04  0.16984369571E+03 0.  0.
         24    2    3    3    0    0 -0.83551825307E+02  0.48725179776E+01 -0.10310716188E+04  0.10375524058E+04  0.80010391672E+02 0.  0.
         -6    2    1    2    0  501  0.55417687402E+02 -0.58672303533E+02 -0.25596952733E+03  0.31831126997E+03  0.17113768256E+03 0.  0.
        -24    2    5    5    0    0  0.98752456459E+02 -0.20914973127E+02 -0.20159481393E+03  0.23905082798E+03  0.79469148693E+02 0.  0.
          5    1    3    3  502    0  0.28134137905E+02  0.53799785556E+02 -0.11497176916E+04  0.11513291480E+04  0.47000000000E+01 0. -1.
        -11    1    4    4    0    0 -0.10909520168E+02 -0.98034999888E+01 -0.59839963341E+03  0.59857935773E+03  0.00000000000E+00 0.  1.
         12    1    4    4    0    0 -0.72642305139E+02  0.14676017966E+02 -0.43267198541E+03  0.43897304810E+03  0.00000000000E+00 0. -1.
         -5    1    5    5    0  501 -0.43334769057E+02 -0.37757330406E+02 -0.54374713394E+02  0.79260441995E+02  0.47000000000E+01 0.  1.
         11    1    6    6    0    0  0.84081013200E+02 -0.48613542109E+02 -0.15161678035E+03  0.18005705024E+03  0.00000000000E+00 0. -1.
        -12    1    6    6    0    0  0.14671443259E+02  0.27698568981E+02 -0.49978033586E+02  0.58993777740E+02  0.00000000000E+00 0.  1.
</event>
<event>
12    1  0.2576962E-002  0.1914369E+03  0.7818608E-02  0.1157172E+00
         -2   -1    0    0    0  501 -0.00000000000E+00  0.00000000000E+00  0.13227805464E+03  0.13227805464E+03  0.00000000000E+00 0. -1.
          2   -1    0    0  502    0  0.00000000000E+00 -0.00000000000E+00 -0.36567283281E+03  0.36567283281E+03  0.00000000000E+00 0.  1.
          6    2    1    2  502    0  0.68268215823E+02  0.49866544285E+02 -0.23913622497E+03  0.30615092248E+03  0.17144979357E+03 0.  0.
         24    2    3    3    0    0  0.77257612729E+01  0.59769190608E+02 -0.21993334165E+03  0.24169712558E+03  0.80092335544E+02 0.  0.
         -6    2    1    2    0  501 -0.68268215823E+02 -0.49866544285E+02  0.57414467892E+01  0.19179996497E+03  0.17206696609E+03 0.  0.
        -24    2    5    5    0    0 -0.10874265766E+03 -0.48050775874E+02 -0.20562302262E+02  0.14326693837E+03  0.77257780822E+02 0.  0.
          5    1    3    3  502    0  0.60542454550E+02 -0.99026463226E+01 -0.19202883321E+02  0.64453796901E+02  0.47000000000E+01 0. -1.
        -11    1    4    4    0    0  0.21969623204E+01 -0.18110906460E+01 -0.14286394924E+03  0.14289231849E+03  0.00000000000E+00 0.  1.
         12    1    4    4    0    0  0.55287989525E+01  0.61580281254E+02 -0.77069392409E+02  0.98804807087E+02  0.00000000000E+00 0. -1.
         -5    1    5    5    0  501  0.40474441836E+02 -0.18157684113E+01  0.26303749051E+02  0.48533026601E+02  0.47000000000E+01 0.  1.
         11    1    6    6    0    0 -0.68920585808E+02  0.16317300522E+00  0.16103638924E+02  0.70777121729E+02  0.00000000000E+00 0. -1.
        -12    1    6    6    0    0 -0.39822071851E+02 -0.48213948879E+02 -0.36665941186E+02  0.72489816637E+02  0.00000000000E+00 0.  1.
</event>
<event>
12    1  0.2576962E-002  0.3566328E+03  0.7818608E-02  0.1059925E+00
          1   -1    0    0  502    0  0.00000000000E+00  0.00000000000E+00  0.68236469285E+03  0.68236469285E+03  0.00000000000E+00 0. -1.
         -1   -1    0    0    0  501 -0.00000000000E+00 -0.00000000000E+00 -0.22913673812E+03  0.22913673812E+03  0.00000000000E+00 0.  1.
          6    2    1    2  502    0  0.10832885851E+03 -0.29329681699E+03  0.29847283898E+02  0.35802996449E+03  0.17186166144E+03 0.  0.
         24    2    3    3    0    0  0.68715817836E+02 -0.28605062833E+03 -0.44183890785E+01  0.30494581821E+03  0.80159867104E+02 0.  0.
         -6    2    1    2    0  501 -0.10832885851E+03  0.29329681699E+03  0.42338067083E+03  0.55347146648E+03  0.17123465577E+03 0.  0.
        -24    2    5    5    0    0 -0.76234220586E+02  0.17079137563E+03  0.35643051194E+03  0.41014644172E+03  0.78714950537E+02 0.  0.
          5    1    3    3  502    0  0.39613040673E+02 -0.72461886602E+01  0.34265672976E+02  0.53084146277E+02  0.47000000000E+01 0. -1.
        -11    1    4    4    0    0  0.35485291492E+02 -0.11330576138E+03 -0.40350224687E+02  0.12540152354E+03  0.00000000000E+00 0.  1.
         12    1    4    4    0    0  0.33230526344E+02 -0.17274486695E+03  0.35931835608E+02  0.17954429467E+03  0.00000000000E+00 0. -1.
         -5    1    5    5    0  501 -0.32094637923E+02  0.12250544136E+03  0.66950158887E+02  0.14332502476E+03  0.47000000000E+01 0.  1.
         11    1    6    6    0    0 -0.57487725713E+02  0.42912618379E+02  0.10107195539E+03  0.12394301751E+03  0.00000000000E+00 0. -1.
        -12    1    6    6    0    0 -0.18746494873E+02  0.12787875725E+03  0.25535855655E+03  0.28620342421E+03  0.00000000000E+00 0.  1.
</event>
<event>
12    1  0.2576962E-002  0.2679086E+03  0.7818608E-02  0.1102483E+00
          1   -1    0    0  502    0  0.00000000000E+00  0.00000000000E+00  0.10099489027E+04  0.10099489027E+04  0.00000000000E+00 0.  1.
         -1   -1    0    0    0  501 -0.00000000000E+00 -0.00000000000E+00 -0.39564794043E+03  0.39564794043E+03  0.00000000000E+00 0. -1.
          6    2    1    2  502    0 -0.18775910470E+03  0.85017361020E+02 -0.32935562141E+03  0.42471395186E+03  0.17153828284E+03 0.  0.
         24    2    3    3    0    0 -0.74415062056E+02  0.10535534169E+03 -0.19575264372E+03  0.24827033166E+03  0.81741730936E+02 0.  0.
         -6    2    1    2    0  501  0.18775910470E+03 -0.85017361020E+02  0.94365658367E+03  0.98088289126E+03  0.17076904106E+03 0.  0.
        -24    2    5    5    0    0  0.55002537442E+02  0.12391930959E+02  0.31526457818E+03  0.33125878543E+03  0.84627357214E+02 0.  0.
          5    1    3    3  502    0 -0.11334404264E+03 -0.20337980674E+02 -0.13360297769E+03  0.17644362020E+03  0.47000000000E+01 0. -1.
        -13    1    4    4    0    0 -0.34180791000E+02  0.76025669642E+02 -0.17593271372E+03  0.19468063251E+03  0.00000000000E+00 0.  1.
         14    1    4    4    0    0 -0.40234271056E+02  0.29329672053E+02 -0.19819930001E+02  0.53589699153E+02  0.00000000000E+00 0. -1.
         -5    1    5    5    0  501  0.13275656726E+03 -0.97409291979E+02  0.62839200549E+03  0.64962410583E+03  0.47000000000E+01 0.  1.
         13    1    6    6    0    0  0.19519359091E+02 -0.32817883509E+02  0.74325720378E+02  0.83560346858E+02  0.00000000000E+00 0. -1.
        -14    1    6    6    0    0  0.35483178351E+02  0.45209814468E+02  0.24093885780E+03  0.24769843857E+03  0.00000000000E+00 0.  1.
</event>
<event>
12    1  0.2576962E-002  0.1826017E+03  0.7818608E-02  0.1165309E+00
         -2   -1    0    0    0  501 -0.00000000000E+00  0.00000000000E+00  0.22200946124E+03  0.22200946124E+03  0.00000000000E+00 0. -1.
          2   -1    0    0  502    0  0.00000000000E+00 -0.00000000000E+00 -0.15903115399E+03  0.15903115399E+03  0.00000000000E+00 0.  1.
          6    2    1    2  502    0  0.42707980896E+02  0.46408464577E+02  0.76513235871E+02  0.19857916536E+03  0.17205142381E+03 0.  0.
         24    2    3    3    0    0 -0.31449691088E+02  0.31854289229E+02  0.81191258717E+02  0.12271640617E+03  0.80396001386E+02 0.  0.
         -6    2    1    2    0  501 -0.42707980896E+02 -0.46408464577E+02 -0.13534928620E+02  0.18246144987E+03  0.17067884807E+03 0.  0.
        -24    2    5    5    0    0 -0.38204752203E+02 -0.95130602066E+02 -0.25436175742E+02  0.13188620461E+03  0.78978081708E+02 0.  0.
          5    1    3    3  502    0  0.74157671984E+02  0.14554175348E+02 -0.46780228461E+01  0.75862759190E+02  0.47000000000E+01 0. -1.
        -13    1    4    4    0    0 -0.41099769880E+02 -0.97040544149E+01  0.16746811466E+02  0.45429235637E+02  0.00000000000E+00 0.  1.
         14    1    4    4    0    0  0.96500787923E+01  0.41558343644E+02  0.64444447251E+02  0.77287170531E+02  0.00000000000E+00 0. -1.
         -5    1    5    5    0  501 -0.45032286929E+01  0.48722137488E+02  0.11901247122E+02  0.50575245260E+02  0.47000000000E+01 0.  1.
         13    1    6    6    0    0 -0.51655611972E+02 -0.26719390616E+02 -0.15182861890E+01  0.58176741711E+02  0.00000000000E+00 0. -1.
        -14    1    6    6    0    0  0.13450859769E+02 -0.68411211449E+02 -0.23917889553E+02  0.73709462901E+02  0.00000000000E+00 0.  1.
</event>
<event>
12    1  0.2576962E-002  0.1949087E+03  0.7818608E-02  0.1154107E+00
         -2   -1    0    0    0  501 -0.00000000000E+00  0.00000000000E+00  0.14171904416E+03  0.14171904416E+03  0.00000000000E+00 0. -1.
          2   -1    0    0  502    0  0.00000000000E+00 -0.00000000000E+00 -0.26939917399E+03  0.26939917399E+03  0.00000000000E+00 0.  1.
          6    2    1    2  502    0 -0.89348984746E+02  0.12814561916E+02 -0.49347874970E+02  0.20103964395E+03  0.17272600152E+03 0.  0.
         24    2    3    3    0    0 -0.46448656413E+02  0.52069354223E+02 -0.82690703631E+02  0.13384432333E+03  0.78789942810E+02 0.  0.
         -6    2    1    2    0  501  0.89348984746E+02 -0.12814561916E+02 -0.78332254864E+02  0.21007857421E+03  0.17277040000E+03 0.  0.
        -24    2    5    5    0    0  0.26743970605E+02 -0.69182784438E+02 -0.62616343311E+02  0.12425407781E+03  0.77567852725E+02 0.  0.
          5    1    3    3  502    0 -0.42900328333E+02 -0.39254792307E+02  0.33342828661E+02  0.67195320620E+02  0.47000000000E+01 0. -1.
        -13    1    4    4    0    0 -0.51004189568E+02 -0.19244045168E+01 -0.38835193690E+02  0.64135036877E+02  0.00000000000E+00 0.  1.
         14    1    4    4    0    0  0.45555331552E+01  0.53993758740E+02 -0.43855509941E+02  0.69709286450E+02  0.00000000000E+00 0. -1.
         -5    1    5    5    0  501  0.62605014141E+02  0.56368222522E+02 -0.15715911553E+02  0.85824496397E+02  0.47000000000E+01 0.  1.
         13    1    6    6    0    0 -0.15193104312E+02 -0.46271613356E+02 -0.43476843836E+01  0.48895756264E+02  0.00000000000E+00 0. -1.
        -14    1    6    6    0    0  0.41937074917E+02 -0.22911171082E+02 -0.58268658927E+02  0.75358321545E+02  0.00000000000E+00 0.  1.
</event>
<event>
12    1  0.2576962E-002  0.1790591E+03  0.7818608E-02  0.1168717E+00
         -2   -1    0    0    0  501 -0.00000000000E+00  0.00000000000E+00  0.41052300996E+02  0.41052300996E+02  0.00000000000E+00 0. -1.
          2   -1    0    0  502    0  0.00000000000E+00 -0.00000000000E+00 -0.90002241619E+03  0.90002241619E+03  0.00000000000E+00 0.  1.
          6    2    1    2  502    0 -0.34402114875E+02 -0.37163715951E+02 -0.60016204930E+03  0.62624501795E+03  0.17153334891E+03 0.  0.
         24    2    3    3    0    0  0.44364488748E+02 -0.18491347111E+02 -0.24710097554E+03  0.26399227881E+03  0.79516623293E+02 0.  0.
         -6    2    1    2    0  501  0.34402114875E+02  0.37163715951E+02 -0.25880806589E+03  0.31482969924E+03  0.17196359284E+03 0.  0.
        -24    2    5    5    0    0 -0.81513501001E+01  0.37293926434E+02 -0.50866960653E+02  0.10252706717E+03  0.80418097210E+02 0.  0.
          5    1    3    3  502    0 -0.78766603623E+02 -0.18672368841E+02 -0.35306107376E+03  0.36225273914E+03  0.47000000000E+01 0. -1.
        -13    1    4    4    0    0  0.26716095771E+02 -0.45314843593E+02 -0.20128487915E+03  0.20804515711E+03  0.00000000000E+00 0.  1.
         14    1    4    4    0    0  0.17648392977E+02  0.26823496482E+02 -0.45816096388E+02  0.55947121699E+02  0.00000000000E+00 0. -1.
         -5    1    5    5    0  501  0.42553464975E+02 -0.13021048261E+00 -0.20794110524E+03  0.21230263207E+03  0.47000000000E+01 0.  1.
         11    1    6    6    0    0 -0.87161077306E+01 -0.14693043938E+02  0.12052270963E+02  0.20907254949E+02  0.00000000000E+00 0. -1.
        -12    1    6    6    0    0  0.56475763055E+00  0.51986970372E+02 -0.62919231616E+02  0.81619812220E+02  0.00000000000E+00 0.  1.
</event>
<event>
12    1  0.2576962E-002  0.2170850E+03  0.7818608E-02  0.1136075E+00
          3   -1    0    0  502    0  0.00000000000E+00  0.00000000000E+00  0.16715468767E+03  0.16715468767E+03  0.00000000000E+00 0.  1.
         -3   -1    0    0    0  501 -0.00000000000E+00 -0.00000000000E+00 -0.29656832275E+03  0.29656832275E+03  0.00000000000E+00 0. -1.
          6    2    1    2  502    0  0.12798893487E+03 -0.33653312548E+02 -0.13123734225E+02  0.21723120521E+03  0.17176568698E+03 0.  0.
         24    2    3    3    0    0  0.91059272735E+02  0.10013410133E+02 -0.78045022633E+02  0.13058568424E+03  0.50690589249E+02 0.  0.
         -6    2    1    2    0  501 -0.12798893487E+03  0.33653312548E+02 -0.11628990086E+03  0.24649180521E+03  0.17239824854E+03 0.  0.
        -24    2    5    5    0    0 -0.35257252096E+02  0.26558966496E+02 -0.12398793643E+03  0.15305281716E+03  0.78126205168E+02 0.  0.
          5    1    3    3  502    0  0.36929662133E+02 -0.43666722681E+02  0.64921288407E+02  0.86645520966E+02  0.47000000000E+01 0. -1.
        -13    1    4    4    0    0  0.27711296871E+02 -0.12621670590E+02 -0.42746363749E+01  0.30748903377E+02  0.00000000000E+00 0.  1.
         14    1    4    4    0    0  0.63347975864E+02  0.22635080723E+02 -0.73770386258E+02  0.99836780868E+02  0.00000000000E+00 0. -1.
         -5    1    5    5    0  501 -0.92731682772E+02  0.70943460520E+01  0.76980355774E+01  0.93438988048E+02  0.47000000000E+01 0.  1.
         11    1    6    6    0    0 -0.19510012394E+02 -0.27334136057E+02 -0.45661968805E+02  0.56681663461E+02  0.00000000000E+00 0. -1.
        -12    1    6    6    0    0 -0.15747239702E+02  0.53893102553E+02 -0.78325967629E+02  0.96371153703E+02  0.00000000000E+00 0.  1.
</event>
<event>
12    1  0.2576962E-002  0.1757825E+03  0.7818608E-02  0.1171948E+00
          1   -1    0    0  502    0  0.00000000000E+00  0.00000000000E+00  0.12158898144E+04  0.12158898144E+04  0.00000000000E+00 0. -1.
         -1   -1    0    0    0  501 -0.00000000000E+00 -0.00000000000E+00 -0.29814109753E+02  0.29814109753E+02  0.00000000000E+00 0.  1.
          6    2    1    2  502    0 -0.39781343972E+02  0.10195427858E+02  0.34956934829E+03  0.39062355599E+03  0.16941526245E+03 0.  0.
         24    2    3    3    0    0  0.35172486875E+02 -0.64912432494E+01  0.94602991248E+02  0.12430334463E+03  0.72265866511E+02 0.  0.
         -6    2    1    2    0  501  0.39781343972E+02 -0.10195427858E+02  0.83650635631E+03  0.85508036812E+03  0.17243273969E+03 0.  0.
        -24    2    5    5    0    0 -0.24588952266E+01 -0.51180042953E+02  0.70135122428E+03  0.70759146618E+03  0.78528340381E+02 0.  0.
          5    1    3    3  502    0 -0.74953830847E+02  0.16686671107E+02  0.25496635704E+03  0.26632021135E+03  0.47000000000E+01 0. -1.
        -13    1    4    4    0    0  0.36054377989E+02 -0.35536167065E+02  0.68972294113E+02  0.85556500028E+02  0.00000000000E+00 0.  1.
         14    1    4    4    0    0 -0.88189111396E+00  0.29044923815E+02  0.25630697135E+02  0.38746844607E+02  0.00000000000E+00 0. -1.
         -5    1    5    5    0  501  0.42240239199E+02  0.40984615095E+02  0.13515513202E+03  0.14748890194E+03  0.47000000000E+01 0.  1.
         11    1    6    6    0    0 -0.33418772394E+02 -0.16630419130E+01  0.32774232766E+03  0.32944591877E+03  0.00000000000E+00 0. -1.
        -12    1    6    6    0    0  0.30959877167E+02 -0.49517001040E+02  0.37360889662E+03  0.37814554741E+03  0.00000000000E+00 0.  1.
</event>
<event>
12    1  0.2576962E-002  0.8672046E+03  0.7818608E-02  0.9467532E-01
         -1   -1    0    0    0  501 -0.00000000000E+00  0.00000000000E+00  0.10164035664E+04  0.10164035664E+04  0.00000000000E+00 0.  1.
          1   -1    0    0  502    0  0.00000000000E+00 -0.00000000000E+00 -0.84326450009E+03  0.84326450009E+03  0.00000000000E+00 0. -1.
          6    2    1    2  502    0 -0.67928323402E+03 -0.51078089943E+03  0.41208272430E+03  0.95992979025E+03  0.17126059468E+03 0.  0.
         24    2    3    3    0    0 -0.38259452560E+03 -0.20688555786E+03  0.21786720978E+03  0.49289839471E+03  0.79388294744E+02 0.  0.
         -6    2    1    2    0  501  0.67928323402E+03  0.51078089943E+03 -0.23894365794E+03  0.89973827628E+03  0.17352825386E+03 0.  0.
        -24    2    5    5    0    0  0.36108909123E+03  0.30177030560E+03 -0.19774556723E+03  0.51678617285E+03  0.80709292824E+02 0.  0.
          5    1    3    3  502    0 -0.29668870842E+03 -0.30389534157E+03  0.19421551452E+03  0.46703139554E+03  0.47000000000E+01 0. -1.
        -13    1    4    4    0    0 -0.19369524713E+03 -0.10875171730E+03  0.15524687981E+03  0.27100992319E+03  0.00000000000E+00 0.  1.
         14    1    4    4    0    0 -0.18889927847E+03 -0.98133840558E+02  0.62620329972E+02  0.22188847152E+03  0.00000000000E+00 0. -1.
         -5    1    5    5    0  501  0.31819414279E+03  0.20901059384E+03 -0.41198090715E+02  0.38295210343E+03  0.47000000000E+01 0.  1.
         13    1    6    6    0    0  0.23763075332E+03  0.16493448135E+03 -0.88290709636E+02  0.30243512936E+03  0.00000000000E+00 0. -1.
        -14    1    6    6    0    0  0.12345833791E+03  0.13683582424E+03 -0.10945485759E+03  0.21435104349E+03  0.00000000000E+00 0.  1.
</event>
<event>
12    1  0.2576962E-002  0.1764675E+03  0.7818608E-02  0.1171266E+00
         -1   -1    0    0    0  501 -0.00000000000E+00  0.00000000000E+00  0.18493924911E+02  0.18493924911E+02  0.00000000000E+00 0. -1.
          1   -1    0    0  502    0  0.00000000000E+00 -0.00000000000E+00 -0.25195480890E+04  0.25195480890E+04  0.00000000000E+00 0.  1.
          6    2    1    2  502    0  0.13795416910E+02  0.35080603974E+02 -0.51466597270E+03  0.54373605110E+03  0.17130927446E+03 0.  0.
         24    2    3    3    0    0 -0.59050420484E+02  0.32876319870E+02 -0.31583484277E+03  0.33191706442E+03  0.76481927113E+02 0.  0.
         -6    2    1    2    0  501 -0.13795416910E+02 -0.35080603974E+02 -0.19863881914E+04  0.19943059628E+04  0.17348563077E+03 0.  0.
        -24    2    5    5    0    0 -0.10810229068E+02  0.11322939146E+02 -0.18098440383E+04  0.18116803125E+04  0.80031504511E+02 0.  0.
          5    1    3    3  502    0  0.72845837394E+02  0.22042841040E+01 -0.19883112993E+03  0.21181898669E+03  0.47000000000E+01 0. -1.
        -11    1    4    4    0    0 -0.21769993263E+02 -0.13770484916E+02 -0.19945724466E+03  0.20111377702E+03  0.00000000000E+00 0.  1.
         12    1    4    4    0    0 -0.37280427221E+02  0.46646804786E+02 -0.11637759811E+03  0.13080328739E+03  0.00000000000E+00 0. -1.
         -5    1    5    5    0  501 -0.29851878415E+01 -0.46403543120E+02 -0.17654415312E+03  0.18262565034E+03  0.47000000000E+01 0.  1.
         13    1    6    6    0    0  0.90461181131E+01 -0.23768152863E+02 -0.24488990089E+03  0.24620686608E+03  0.00000000000E+00 0. -1.
        -14    1    6    6    0    0 -0.19856347181E+02  0.35091092009E+02 -0.15649541374E+04  0.15654734464E+04  0.00000000000E+00 0.  1.
</event>
<event>
12    1  0.2576962E-002  0.3099672E+03  0.7818608E-02  0.1080362E+00
          2   -1    0    0  502    0  0.00000000000E+00  0.00000000000E+00  0.37245612286E+03  0.37245612286E+03  0.00000000000E+00 0.  1.
         -2   -1    0    0    0  501 -0.00000000000E+00 -0.00000000000E+00 -0.43376160558E+03  0.43376160558E+03  0.00000000000E+00 0. -1.
          6    2    1    2  502    0  0.19818618686E+03  0.16756185555E+03  0.22607816904E+03  0.38211925605E+03  0.16597905660E+03 0.  0.
         24    2    3    3    0    0  0.18197265184E+03  0.11958742023E+03  0.23498539729E+03  0.33048734850E+03  0.81169905036E+02 0.  0.
         -6    2    1    2    0  501 -0.19818618686E+03 -0.16756185555E+03 -0.28738365176E+03  0.42409847240E+03  0.17296072067E+03 0.  0.
        -24    2    5    5    0    0 -0.11782848135E+03 -0.63574227252E+02 -0.23195232415E+03  0.28139069492E+03  0.86334287044E+02 0.  0.
          5    1    3    3  502    0  0.16213535029E+02  0.47974435313E+02 -0.89072282570E+01  0.51631907548E+02  0.47000000000E+01 0. -1.
        -11    1    4    4    0    0  0.65354786438E+02  0.89752226330E+02  0.12799150259E+03  0.16943593177E+03  0.00000000000E+00 0.  1.
         12    1    4    4    0    0  0.11661786540E+03  0.29835193902E+02  0.10699389471E+03  0.16105141673E+03  0.00000000000E+00 0. -1.
         -5    1    5    5    0  501 -0.80357705509E+02 -0.10398762829E+03 -0.55431327613E+02  0.14270777748E+03  0.47000000000E+01 0.  1.
         13    1    6    6    0    0 -0.12711969007E+03 -0.62902825377E+02 -0.18283357694E+03  0.23139640857E+03  0.00000000000E+00 0. -1.
        -14    1    6    6    0    0  0.92912087146E+01 -0.67140187498E+00 -0.49118747206E+02  0.49994286343E+02  0.00000000000E+00 0.  1.
</event>
<event>
12    1  0.2576962E-002  0.2120823E+03  0.7818608E-02  0.1139928E+00
         -1   -1    0    0    0  501 -0.00000000000E+00  0.00000000000E+00  0.76259213641E+02  0.76259213641E+02  0.00000000000E+00 0.  1.
          1   -1    0    0  502    0  0.00000000000E+00 -0.00000000000E+00 -0.72271872408E+03  0.72271872408E+03  0.00000000000E+00 0. -1.
          6    2    1    2  502    0  0.41089667054E+02  0.11551949965E+03 -0.49628480146E+03  0.54026190574E+03  0.17478903599E+03 0.  0.
         24    2    3    3    0    0  0.99907770553E+02  0.95044225613E+02 -0.35855822350E+03  0.38903523342E+03  0.61395812271E+02 0.  0.
         -6    2    1    2    0  501 -0.41089667054E+02 -0.11551949965E+03 -0.15017470898E+03  0.25871603198E+03  0.17131382445E+03 0.  0.
        -24    2    5    5    0    0 -0.83041894537E+02 -0.39921416918E+02 -0.69241582621E+02  0.14019463962E+03  0.79815189266E+02 0.  0.
          5    1    3    3  502    0 -0.58818103499E+02  0.20475274036E+02 -0.13772657796E+03  0.15122667232E+03  0.47000000000E+01 0. -1.
        -13    1    4    4    0    0  0.38671074901E+02  0.62597112300E+02 -0.12138363770E+03  0.14194308015E+03  0.00000000000E+00 0.  1.
         14    1    4    4    0    0  0.61236695652E+02  0.32447113313E+02 -0.23717458580E+03  0.24709215327E+03  0.00000000000E+00 0. -1.
         -5    1    5    5    0  501  0.41952227483E+02 -0.75598082731E+02 -0.80933126364E+02  0.11852139236E+03  0.47000000000E+01 0.  1.
         11    1    6    6    0    0 -0.40533016806E+02 -0.60802754034E+02 -0.31238095656E+02  0.79471497845E+02  0.00000000000E+00 0. -1.
        -12    1    6    6    0    0 -0.42508877731E+02  0.20881337116E+02 -0.38003486965E+02  0.60723141776E+02  0.00000000000E+00 0.  1.
</event>
<event>
12    1  0.2576962E-002  0.3226091E+03  0.7818608E-02  0.1074455E+00
         -1   -1    0    0    0  501 -0.00000000000E+00  0.00000000000E+00  0.23398847979E+03  0.23398847979E+03  0.00000000000E+00 0.  1.
          1   -1    0    0  502    0  0.00000000000E+00 -0.00000000000E+00 -0.64012426766E+03  0.64012426766E+03  0.00000000000E+00 0. -1.
          6    2    1    2  502    0 -0.13221954667E+03 -0.23925902921E+03  0.38380103134E+02  0.32484189289E+03  0.17123764621E+03 0.  0.
         24    2    3    3    0    0 -0.20237742432E+02 -0.14161643491E+03  0.60957507609E+02  0.17448954042E+03  0.79158076823E+02 0.  0.
         -6    2    1    2    0  501  0.13221954667E+03  0.23925902921E+03 -0.44451589101E+03  0.54927085456E+03  0.17139779090E+03 0.  0.
        -24    2    5    5    0    0  0.69348772778E+02  0.41634413035E+02 -0.13300371271E+03  0.17501138526E+03  0.79977001328E+02 0.  0.
          5    1    3    3  502    0 -0.11198180423E+03 -0.97642594308E+02 -0.22577404475E+02  0.15035235248E+03  0.47000000000E+01 0. -1.
        -13    1    4    4    0    0 -0.26352465002E+02 -0.13604004934E+03  0.29122060451E+02  0.14159605164E+03  0.00000000000E+00 0.  1.
         14    1    4    4    0    0  0.61147225695E+01 -0.55763855701E+01  0.31835447158E+02  0.32893488776E+02  0.00000000000E+00 0. -1.
         -5    1    5    5    0  501  0.62870773887E+02  0.19762461618E+03 -0.31151217830E+03  0.37425946929E+03  0.47000000000E+01 0.  1.
         11    1    6    6    0    0  0.64972972136E+02  0.50324513655E+02 -0.14047162243E+03  0.16274618426E+03  0.00000000000E+00 0. -1.
        -12    1    6    6    0    0  0.43758006418E+01 -0.86901006197E+01  0.74679097190E+01  0.12265201002E+02  0.00000000000E+00 0.  1.
</event>
<event>
12    1  0.2576962E-002  0.2398575E+03  0.7818608E-02  0.1119888E+00
         -2   -1    0    0    0  501 -0.00000000000E+00  0.00000000000E+00  0.10086913797E+04  0.10086913797E+04  0.00000000000E+00 0. -1.
          2   -1    0    0  502    0  0.00000000000E+00 -0.00000000000E+00 -0.57624846728E+02  0.57624846728E+02  0.00000000000E+00 0.  1.
          6    2    1    2  502    0 -0.13626974927E+03 -0.98344113140E+02  0.42124183980E+03  0.48464435713E+03  0.17086385266E+03 0.  0.
         24    2    3    3    0    0 -0.27442005256E+02 -0.40402218127E+02  0.82809574027E+02  0.12442327282E+03  0.78983051264E+02 0.  0.
         -6    2    1    2    0  501  0.13626974927E+03  0.98344113140E+02  0.52982469322E+03  0.58167186934E+03  0.17142621994E+03 0.  0.
        -24    2    5    5    0    0  0.73475997596E+02  0.12089277079E+03  0.28833752322E+03  0.33109325795E+03  0.80439007410E+02 0.  0.
          5    1    3    3  502    0 -0.10882774402E+03 -0.57941895013E+02  0.33843226577E+03  0.36022108431E+03  0.47000000000E+01 0. -1.
        -13    1    4    4    0    0  0.17063040278E+02 -0.32638477723E+02  0.67190505474E+02  0.76622330932E+02  0.00000000000E+00 0.  1.
         14    1    4    4    0    0 -0.44505045534E+02 -0.77637404043E+01  0.15619068553E+02  0.47800941889E+02  0.00000000000E+00 0. -1.
         -5    1    5    5    0  501  0.62793751679E+02 -0.22548657653E+02  0.24148717000E+03  0.25057861139E+03  0.47000000000E+01 0.  1.
         13    1    6    6    0    0  0.35399191047E+02  0.32689047921E+02  0.17980085725E+03  0.18614517144E+03  0.00000000000E+00 0. -1.
        -14    1    6    6    0    0  0.38076806548E+02  0.88203722872E+02  0.10853666597E+03  0.14494808652E+03  0.00000000000E+00 0.  1.
</event>
<event>
12    1  0.2576962E-002  0.1800822E+03  0.7818608E-02  0.1167724E+00
         -1   -1    0    0    0  501 -0.00000000000E+00  0.00000000000E+00  0.43977516806E+02  0.43977516806E+02  0.00000000000E+00 0. -1.
          1   -1    0    0  502    0  0.00000000000E+00 -0.00000000000E+00 -0.73749839789E+03  0.73749839789E+03  0.00000000000E+00 0.  1.
          6    2    1    2  502    0 -0.35215107625E+02 -0.29092873277E+02 -0.34231849645E+03  0.38591722609E+03  0.17223139464E+03 0.  0.
         24    2    3    3    0    0  0.78400098322E+00 -0.17732161623E+02 -0.33795858660E+03  0.34762753552E+03  0.79459757003E+02 0.  0.
         -6    2    1    2    0  501  0.35215107625E+02  0.29092873277E+02 -0.35120238463E+03  0.39555868861E+03  0.17617338641E+03 0.  0.
        -24    2    5    5    0    0 -0.37276529973E+02  0.42944284679E+02 -0.26151615667E+03  0.27931494209E+03  0.79952394570E+02 0.  0.
          5    1    3    3  502    0 -0.35999108608E+02 -0.11360711654E+02 -0.43599098503E+01  0.38289690568E+02  0.47000000000E+01 0. -1.
        -11    1    4    4    0    0  0.82902695332E+01  0.16209440720E+02 -0.27587043097E+03  0.27647055760E+03  0.00000000000E+00 0.  1.
         12    1    4    4    0    0 -0.75062685499E+01 -0.33941602343E+02 -0.62088155635E+02  0.71156977924E+02  0.00000000000E+00 0. -1.
         -5    1    5    5    0  501  0.72491637598E+02 -0.13851411402E+02 -0.89686227960E+02  0.11624374652E+03  0.47000000000E+01 0.  1.
         13    1    6    6    0    0 -0.53192792243E+02  0.76010689430E+01 -0.10353381548E+03  0.11664690456E+03  0.00000000000E+00 0. -1.
        -14    1    6    6    0    0  0.15916262270E+02  0.35343215736E+02 -0.15798234120E+03  0.16266803753E+03  0.00000000000E+00 0.  1.
</event>
<event>
12    1  0.2576962E-002  0.2114084E+03  0.7818608E-02  0.1140456E+00
         -1   -1    0    0    0  501 -0.00000000000E+00  0.00000000000E+00  0.38108777517E+03  0.38108777517E+03  0.00000000000E+00 0.  1.
          1   -1    0    0  502    0  0.00000000000E+00 -0.00000000000E+00 -0.11818197512E+03  0.11818197512E+03  0.00000000000E+00 0. -1.
          6    2    1    2  502    0 -0.12230403365E+03  0.82761029122E-01  0.11009286800E+03  0.23899958647E+03  0.17332651053E+03 0.  0.
         24    2    3    3    0    0 -0.12109110624E+03 -0.44417442828E+02  0.11258599454E+03  0.19416606089E+03  0.91590871790E+02 0.  0.
         -6    2    1    2    0  501  0.12230403365E+03 -0.82761029122E-01  0.15281293205E+03  0.26027016381E+03  0.17155314766E+03 0.  0.
        -24    2    5    5    0    0  0.16558711628E+02 -0.98824969890E+01  0.12580252397E+03  0.15058990078E+03  0.80493406570E+02 0.  0.
          5    1    3    3  502    0 -0.12129274083E+01  0.44500203857E+02 -0.24931265401E+01  0.44833525582E+02  0.47000000000E+01 0. -1.
        -11    1    4    4    0    0 -0.15264859953E+02 -0.40182805066E+02  0.65301932661E+02  0.78179384633E+02  0.00000000000E+00 0.  1.
         12    1    4    4    0    0 -0.10582624629E+03 -0.42346377614E+01  0.47284061882E+02  0.11598667625E+03  0.00000000000E+00 0. -1.
         -5    1    5    5    0  501  0.10574532202E+03  0.97997359598E+01  0.27010408073E+02  0.10968026303E+03  0.47000000000E+01 0.  1.
         13    1    6    6    0    0 -0.19253537998E+02  0.13679494399E+02  0.75323660850E+01  0.24790397965E+02  0.00000000000E+00 0. -1.
        -14    1    6    6    0    0  0.35812249626E+02 -0.23561991388E+02  0.11827015789E+03  0.12579950282E+03  0.00000000000E+00 0.  1.
</event>
<event>
12    1  0.2576962E-002  0.2688831E+03  0.7818608E-02  0.1101921E+00
         -1   -1    0    0    0  501 -0.00000000000E+00  0.00000000000E+00  0.26523268977E+03  0.26523268977E+03  0.00000000000E+00 0. -1.
          1   -1    0    0  502    0  0.00000000000E+00 -0.00000000000E+00 -0.27478984895E+03  0.27478984895E+03  0.00000000000E+00 0.  1.
          6    2    1    2  502    0  0.32862064036E+02 -0.20424033672E+03 -0.28975649538E+02  0.27086885895E+03  0.17244222246E+03 0.  0.
         24    2    3    3    0    0 -0.32410494873E+02 -0.17241400684E+03 -0.38344519139E+02  0.19749796596E+03  0.82207751941E+02 0.  0.
         -6    2    1    2    0  501 -0.32862064036E+02  0.20424033672E+03  0.19418490362E+02  0.26915367977E+03  0.17109235859E+03 0.  0.
        -24    2    5    5    0    0 -0.17702504163E+02  0.29705197916E+02  0.32597951060E+02  0.93403530073E+02  0.80410295235E+02 0.  0.
          5    1    3    3  502    0  0.65272558909E+02 -0.31826329882E+02  0.93688696010E+01  0.73370892988E+02  0.47000000000E+01 0. -1.
        -11    1    4    4    0    0 -0.13980016924E+02 -0.10239691297E+02 -0.29285647706E+02  0.34028536739E+02  0.00000000000E+00 0.  1.
         12    1    4    4    0    0 -0.18430477949E+02 -0.16217431554E+03 -0.90588714328E+01  0.16346942922E+03  0.00000000000E+00 0. -1.
         -5    1    5    5    0  501 -0.15159559873E+02  0.17453513880E+03 -0.13179460698E+02  0.17575014969E+03  0.47000000000E+01 0.  1.
         11    1    6    6    0    0  0.26499805786E+02 -0.91418043720E+01  0.15927057340E+02  0.32241021221E+02  0.00000000000E+00 0. -1.
        -12    1    6    6    0    0 -0.44202309949E+02  0.38847002288E+02  0.16670893720E+02  0.61162508852E+02  0.00000000000E+00 0.  1.
</event>
<event>
12    1  0.2576962E-002  0.1866635E+03  0.7818608E-02  0.1161506E+00
          1   -1    0    0  502    0  0.00000000000E+00  0.00000000000E+00  0.76015377040E+02  0.76015377040E+02  0.00000000000E+00 0. -1.
         -1   -1    0    0    0  501 -0.00000000000E+00 -0.00000000000E+00 -0.46208333302E+03  0.46208333302E+03  0.00000000000E+00 0.  1.
          6    2    1    2  502    0  0.72493907147E+02 -0.28749973296E+02 -0.21826381798E+03  0.28794275201E+03  0.17085083159E+03 0.  0.
         24    2    3    3    0    0  0.37177891728E+01  0.23005552033E+02 -0.46204179287E+02  0.95496920477E+02  0.80260564765E+02 0.  0.
         -6    2    1    2    0  501 -0.72493907147E+02  0.28749973296E+02 -0.16780413800E+03  0.25015595805E+03  0.16833848960E+03 0.  0.
        -24    2    5    5    0    0 -0.39915013891E+00  0.63259782855E+02 -0.89427761579E+02  0.13811343343E+03  0.84119180360E+02 0.  0.
          5    1    3    3  502    0  0.68776117974E+02 -0.51755525328E+02 -0.17205963869E+03  0.19244583153E+03  0.47000000000E+01 0. -1.
        -13    1    4    4    0    0  0.29128290064E+02  0.30816875924E+02 -0.53176468432E+02  0.68013777418E+02  0.00000000000E+00 0.  1.
         14    1    4    4    0    0 -0.25410500892E+02 -0.78113238913E+01  0.69722891450E+01  0.27483143059E+02  0.00000000000E+00 0. -1.
         -5    1    5    5    0  501 -0.72094757008E+02 -0.34509809559E+02 -0.78376376420E+02  0.11204252463E+03  0.47000000000E+01 0.  1.
         11    1    6    6    0    0 -0.30011201892E+02  0.63603591310E+01 -0.60322690355E+02  0.67675352817E+02  0.00000000000E+00 0. -1.
        -12    1    6    6    0    0  0.29612051753E+02  0.56899423724E+02 -0.29105071224E+02  0.70438080610E+02  0.00000000000E+00 0.  1.
</event>
<event>
12    1  0.2576962E-002  0.3713793E+03  0.7818608E-02  0.1054167E+00
          2   -1    0    0  502    0  0.00000000000E+00  0.00000000000E+00  0.28738561934E+04  0.28738561934E+04  0.00000000000E+00 0. -1.
         -2   -1    0    0    0  501 -0.00000000000E+00 -0.00000000000E+00 -0.48115298131E+02  0.48115298131E+02  0.00000000000E+00 0.  1.
          6    2    1    2  502    0  0.32178417031E+03  0.72013875054E+02  0.14869008363E+04  0.15325861525E+04  0.17092444925E+03 0.  0.
         24    2    3    3    0    0  0.28867006636E+03  0.95147862488E+01  0.11768117415E+04  0.12144980882E+04  0.81846152876E+02 0.  0.
         -6    2    1    2    0  501 -0.32178417031E+03 -0.72013875054E+02  0.13388400590E+04  0.13893853390E+04  0.17078602513E+03 0.  0.
        -24    2    5    5    0    0 -0.31584860467E+03 -0.82086323606E+02  0.13344036202E+04  0.13760265536E+04  0.79483010944E+02 0.  0.
          5    1    3    3  502    0  0.33114103952E+02  0.62499088806E+02  0.31008909475E+03  0.31808806433E+03  0.47000000000E+01 0. -1.
        -11    1    4    4    0    0  0.17581674408E+03  0.38107876722E+02  0.61609344316E+03  0.64182152384E+03  0.00000000000E+00 0.  1.
         12    1    4    4    0    0  0.11285332228E+03 -0.28593090473E+02  0.56071829839E+03  0.57267656432E+03  0.00000000000E+00 0. -1.
         -5    1    5    5    0  501 -0.59355656394E+01  0.10072448551E+02  0.44364387647E+01  0.13358785431E+02  0.47000000000E+01 0.  1.
         11    1    6    6    0    0 -0.22890430307E+03 -0.41225964468E+02  0.10622519672E+04  0.10874171242E+04  0.00000000000E+00 0. -1.
        -12    1    6    6    0    0 -0.86944301607E+02 -0.40860359138E+02  0.27215165298E+03  0.28860942942E+03  0.00000000000E+00 0.  1.
</event>
<event>
12    1  0.2576962E-002  0.2729611E+03  0.7818608E-02  0.1099597E+00
         -2   -1    0    0    0  501 -0.00000000000E+00  0.00000000000E+00  0.40850986949E+02  0.40850986949E+02  0.00000000000E+00 0. -1.
          2   -1    0    0  502    0  0.00000000000E+00 -0.00000000000E+00 -0.18334693092E+04  0.18334693092E+04  0.00000000000E+00 0.  1.
          6    2    1    2  502    0  0.19618538840E+03 -0.80571912330E+02 -0.96693747881E+03  0.10049742526E+04  0.17327614017E+03 0.  0.
         24    2    3    3    0    0  0.13545905373E+03 -0.77942088876E+02 -0.89014508447E+03  0.90692444116E+03  0.75693765265E+02 0.  0.
         -6    2    1    2    0  501 -0.19618538840E+03  0.80571912330E+02 -0.82568084343E+03  0.86934604355E+03  0.17039116338E+03 0.  0.
        -24    2    5    5    0    0 -0.75642964799E+02  0.10116166791E+03 -0.42338013431E+03  0.44884352931E+03  0.79083718316E+02 0.  0.
          5    1    3    3  502    0  0.60726334662E+02 -0.26298234538E+01 -0.76792394339E+02  0.98049811429E+02  0.47000000000E+01 0. -1.
        -13    1    4    4    0    0  0.85277771468E+02 -0.56753810449E+02 -0.74285819779E+03  0.74988772182E+03  0.00000000000E+00 0.  1.
         14    1    4    4    0    0  0.50181282266E+02 -0.21188278428E+02 -0.14728688668E+03  0.15703671934E+03  0.00000000000E+00 0. -1.
         -5    1    5    5    0  501 -0.12054242360E+03 -0.20589755581E+02 -0.40230070913E+03  0.42050251424E+03  0.47000000000E+01 0.  1.
         13    1    6    6    0    0 -0.55439965578E+02  0.85806889909E+02 -0.40453647094E+03  0.41723634605E+03  0.00000000000E+00 0. -1.
        -14    1    6    6    0    0 -0.20202999221E+02  0.15354778003E+02 -0.18843663361E+02  0.31607183264E+02  0.00000000000E+00 0.  1.
</event>
<event>
12    1  0.2576962E-002  0.2663967E+03  0.7818608E-02  0.1103360E+00
         -2   -1    0    0    0  501 -0.00000000000E+00  0.00000000000E+00  0.27608608739E+02  0.27608608739E+02  0.00000000000E+00 0.  1.
          2   -1    0    0  502    0  0.00000000000E+00 -0.00000000000E+00 -0.25798482727E+04  0.25798482727E+04  0.00000000000E+00 0. -1.
          6    2    1    2  502    0 -0.10245952336E+03 -0.17511711797E+03 -0.11984536212E+04  0.12277461211E+04  0.17293205867E+03 0.  0.
         24    2    3    3    0    0 -0.12386576630E+03 -0.16781612348E+03 -0.85758750021E+03  0.88609815293E+03  0.78794903034E+02 0.  0.
         -6    2    1    2    0  501  0.10245952336E+03  0.17511711797E+03 -0.13537860428E+04  0.13797107603E+04  0.17234028412E+03 0.  0.
        -24    2    5    5    0    0 -0.11136581516E+02  0.47820290024E+02 -0.55800241677E+03  0.56582979426E+03  0.79911547180E+02 0.  0.
          5    1    3    3  502    0  0.21406242938E+02 -0.73009944857E+01 -0.34086612094E+03  0.34164796818E+03  0.47000000000E+01 0. -1.
        -13    1    4    4    0    0 -0.84680919641E+02 -0.14936861679E+03 -0.57102626415E+03  0.59628251373E+03  0.00000000000E+00 0.  1.
         14    1    4    4    0    0 -0.39184846657E+02 -0.18447506696E+02 -0.28656123606E+03  0.28981563920E+03  0.00000000000E+00 0. -1.
         -5    1    5    5    0  501  0.11359610488E+03  0.12729682794E+03 -0.79578362606E+03  0.81388096608E+03  0.47000000000E+01 0.  1.
         13    1    6    6    0    0  0.18525648510E+02  0.59084880220E+02 -0.38332289152E+03  0.38829198020E+03  0.00000000000E+00 0. -1.
        -14    1    6    6    0    0 -0.29662230026E+02 -0.11264590196E+02 -0.17467952524E+03  0.17753781406E+03  0.00000000000E+00 0.  1.
</event>
<event>
12    1  0.2576962E-002  0.4287697E+03  0.7818608E-02  0.1034249E+00
          2   -1    0    0  502    0  0.00000000000E+00  0.00000000000E+00  0.22698306679E+04  0.22698306679E+04  0.00000000000E+00 0. -1.
         -2   -1    0    0    0  501 -0.00000000000E+00 -0.00000000000E+00 -0.11656978957E+03  0.11656978957E+03  0.00000000000E+00 0.  1.
          6    2    1    2  502    0 -0.31130634418E+03 -0.23955662930E+03  0.41688350824E+03  0.59778775269E+03  0.17105355669E+03 0.  0.
         24    2    3    3    0    0 -0.22057224371E+03 -0.85845619798E+02  0.22614549457E+03  0.33651618652E+03  0.77972905180E+02 0.  0.
         -6    2    1    2    0  501  0.31130634418E+03  0.23955662930E+03  0.17363773701E+04  0.17886127048E+04  0.17271368723E+03 0.  0.
        -24    2    5    5    0    0  0.15415224825E+03  0.19200538156E+03  0.12029801635E+04  0.12304969452E+04  0.79576857915E+02 0.  0.
          5    1    3    3  502    0 -0.90734100472E+02 -0.15371100950E+03  0.19073801367E+03  0.26127156617E+03  0.47000000000E+01 0. -1.
        -11    1    4    4    0    0 -0.17525616100E+03 -0.86154936769E+02  0.14378301454E+03  0.24250969128E+03  0.00000000000E+00 0.  1.
         12    1    4    4    0    0 -0.45316082709E+02  0.30931697026E+00  0.82362480033E+02  0.94006495235E+02  0.00000000000E+00 0. -1.
         -5    1    5    5    0  501  0.15715409593E+03  0.47551247736E+02  0.53339720664E+03  0.55811575957E+03  0.47000000000E+01 0.  1.
         13    1    6    6    0    0  0.11378642441E+03  0.12202057182E+03  0.62452253602E+03  0.64642460374E+03  0.00000000000E+00 0. -1.
        -14    1    6    6    0    0  0.40365823840E+02  0.69984809741E+02  0.57845762745E+03  0.58407234149E+03  0.00000000000E+00 0.  1.
</event>
<event>
12    1  0.2576962E-002  0.4760507E+03  0.7818608E-02  0.1020226E+00
         -2   -1    0    0    0  501 -0.00000000000E+00  0.00000000000E+00  0.94133253876E+02  0.94133253876E+02  0.00000000000E+00 0.  1.
          2   -1    0    0  502    0  0.00000000000E+00 -0.00000000000E+00 -0.29339968842E+04  0.29339968842E+04  0.00000000000E+00 0. -1.
          6    2    1    2  502    0 -0.17013810499E+03  0.40993930568E+03 -0.20613728654E+04  0.21156332141E+04  0.17218768080E+03 0.  0.
         24    2    3    3    0    0 -0.18212978719E+03  0.30239442490E+03 -0.17130630944E+04  0.17508709787E+04  0.79689215443E+02 0.  0.
         -6    2    1    2    0  501  0.17013810499E+03 -0.40993930568E+03 -0.77849076491E+03  0.91249692393E+03  0.17206265146E+03 0.  0.
        -24    2    5    5    0    0  0.68338382156E+02 -0.94613827933E+02 -0.18866579750E+03  0.23595503856E+03  0.80362218510E+02 0.  0.
          5    1    3    3  502    0  0.11991682199E+02  0.10754488078E+03 -0.34830977094E+03  0.36476223538E+03  0.47000000000E+01 0. -1.
        -11    1    4    4    0    0  0.75268686463E+01  0.22901055093E+02 -0.10998126924E+03  0.11259214741E+03  0.00000000000E+00 0.  1.
         12    1    4    4    0    0 -0.18965665583E+03  0.27949336981E+03 -0.16030818252E+04  0.16382788313E+04  0.00000000000E+00 0. -1.
         -5    1    5    5    0  501  0.10179972283E+03 -0.31532547774E+03 -0.58982496741E+03  0.67654188537E+03  0.47000000000E+01 0.  1.
         11    1    6    6    0    0 -0.10273011634E+02 -0.43280384209E+02 -0.38374743224E+02  0.58748168846E+02  0.00000000000E+00 0. -1.
        -12    1    6    6    0    0  0.78611393791E+02 -0.51333443724E+02 -0.15029105428E+03  0.17720686972E+03  0.00000000000E+00 0.  1.
</event>
<event>
12    1  0.2576962E-002  0.1749869E+03  0.7818608E-02  0.1172745E+00
          1   -1    0    0  502    0  0.00000000000E+00  0.00000000000E+00  0.25944973225E+03  0.25944973225E+03  0.00000000000E+00 0. -1.
         -1   -1    0    0    0  501 -0.00000000000E+00 -0.00000000000E+00 -0.22629242552E+03  0.22629242552E+03  0.00000000000E+00 0.  1.
          6    2    1    2  502    0 -0.23543274786E+02 -0.16714259875E+02  0.18457630568E+03  0.25436554847E+03  0.17262609119E+03 0.  0.
         24    2    3    3    0    0  0.44743050960E+02 -0.22370079516E+01  0.55095872381E+02  0.10719256958E+03  0.80297864269E+02 0.  0.
         -6    2    1    2    0  501  0.23543274786E+02  0.16714259875E+02 -0.15141899895E+03  0.23137660930E+03  0.17255077460E+03 0.  0.
        -24    2    5    5    0    0 -0.34858321454E+02  0.40436273837E+01 -0.19428691214E+02  0.86411707654E+02  0.76537936217E+02 0.  0.
          5    1    3    3  502    0 -0.68286325746E+02 -0.14477251923E+02  0.12948043330E+03  0.14717297889E+03  0.47000000000E+01 0. -1.
        -13    1    4    4    0    0  0.16366539515E+02 -0.19376339671E+02 -0.15131303731E+02  0.29534090596E+02  0.00000000000E+00 0.  1.
         14    1    4    4    0    0  0.28376511444E+02  0.17139331719E+02  0.70227176113E+02  0.77658478985E+02  0.00000000000E+00 0. -1.
         -5    1    5    5    0  501  0.58401596240E+02  0.12670632491E+02 -0.13199030774E+03  0.14496490164E+03  0.47000000000E+01 0.  1.
         11    1    6    6    0    0 -0.19254718554E+02 -0.35968372309E+02 -0.49861854541E+01  0.41101460297E+02  0.00000000000E+00 0. -1.
        -12    1    6    6    0    0 -0.15603602900E+02  0.40011999693E+02 -0.14442505760E+02  0.45310247357E+02  0.00000000000E+00 0.  1.
</event>
<event>
12    1  0.2576962E-002  0.2176311E+03  0.7818608E-02  0.1135662E+00
          1   -1    0    0  502    0  0.00000000000E+00  0.00000000000E+00  0.10792971498E+03  0.10792971498E+03  0.00000000000E+00 0. -1.
         -1   -1    0    0    0  501 -0.00000000000E+00 -0.00000000000E+00 -0.46724817298E+03  0.46724817298E+03  0.00000000000E+00 0.  1.
          6    2    1    2  502    0 -0.33493784169E+02  0.13021284616E+03 -0.25082955803E+03  0.33229656094E+03  0.17154684010E+03 0.  0.
         24    2    3    3    0    0  0.42154057486E+02  0.47153907709E+02 -0.90090558446E+02  0.13613209119E+03  0.80094831026E+02 0.  0.
         -6    2    1    2    0  501  0.33493784169E+02 -0.13021284616E+03 -0.10848889997E+03  0.24288132702E+03  0.17071695497E+03 0.  0.
        -24    2    5    5    0    0  0.42581207916E+02 -0.62745180104E+01 -0.32474444533E+02  0.97129558966E+02  0.80790054050E+02 0.  0.
          5    1    3    3  502    0 -0.75647841656E+02  0.83058938451E+02 -0.16073899959E+03  0.19616446975E+03  0.47000000000E+01 0. -1.
        -11    1    4    4    0    0  0.29207744839E+02  0.53487963409E+02 -0.10106431652E+03  0.11801716257E+03  0.00000000000E+00 0.  1.
         12    1    4    4    0    0  0.12946312647E+02 -0.63340557001E+01  0.10973758072E+02  0.18114928623E+02  0.00000000000E+00 0. -1.
         -5    1    5    5    0  501 -0.90874237466E+01 -0.12393832815E+03 -0.76014455440E+02  0.14575176805E+03  0.47000000000E+01 0. -1.
         11    1    6    6    0    0  0.42891551282E+02  0.19260438957E+02  0.95280703336E+01  0.47973261349E+02  0.00000000000E+00 0. -1.
        -12    1    6    6    0    0 -0.31034336574E+00 -0.25534956967E+02 -0.42002514867E+02  0.49156297617E+02  0.00000000000E+00 0.  1.
</event>
<event>
12    1  0.2576962E-002  0.2527670E+03  0.7818608E-02  0.1111569E+00
         -2   -1    0    0    0  501 -0.00000000000E+00  0.00000000000E+00  0.25119324447E+03  0.25119324447E+03  0.00000000000E+00 0.  1.
          2   -1    0    0  502    0  0.00000000000E+00 -0.00000000000E+00 -0.29999110357E+03  0.29999110357E+03  0.00000000000E+00 0. -1.
          6    2    1    2  502    0 -0.14909072569E+03  0.11274125814E+03  0.83186775137E+02  0.26496238625E+03  0.16836386429E+03 0.  0.
         24    2    3    3    0    0 -0.35440759768E+02  0.27133461026E+02  0.81714524046E+02  0.12259220959E+03  0.79745308650E+02 0.  0.
         -6    2    1    2    0  501  0.14909072569E+03 -0.11274125814E+03 -0.13198463423E+03  0.28622196179E+03  0.17194310677E+03 0.  0.
        -24    2    5    5    0    0  0.15146628632E+03 -0.14063540002E+03 -0.99012755125E+02  0.24271378725E+03  0.79913110398E+02 0.  0.
          5    1    3    3  502    0 -0.11364996592E+03  0.85607797112E+02  0.14722510904E+01  0.14237017666E+03  0.47000000000E+01 0. -1.
        -11    1    4    4    0    0 -0.39446969150E+02 -0.19896918531E+02  0.38839705883E+02  0.58825789372E+02  0.00000000000E+00 0.  1.
         12    1    4    4    0    0  0.40062093822E+01  0.47030379557E+02  0.42874818164E+02  0.63766420218E+02  0.00000000000E+00 0. -1.
         -5    1    5    5    0  501 -0.23755606387E+01  0.27894141882E+02 -0.32971879108E+02  0.43508174538E+02  0.47000000000E+01 0.  1.
         11    1    6    6    0    0  0.10925153445E+03 -0.77893570855E+02 -0.24204126923E+02  0.13634201818E+03  0.00000000000E+00 0. -1.
        -12    1    6    6    0    0  0.42214751871E+02 -0.62741829165E+02 -0.74808628201E+02  0.10637176907E+03  0.00000000000E+00 0.  1.
</event>
<event>
12    1  0.2576962E-002  0.2077367E+03  0.7818608E-02  0.1143371E+00
          2   -1    0    0  502    0  0.00000000000E+00  0.00000000000E+00  0.20857194622E+04  0.20857194622E+04  0.00000000000E+00 0.  1.
         -2   -1    0    0    0  501 -0.00000000000E+00 -0.00000000000E+00 -0.31742885536E+02  0.31742885536E+02  0.00000000000E+00 0. -1.
          6    2    1    2  502    0 -0.88939732909E+02  0.75989892198E+02  0.40024597756E+03  0.45065675463E+03  0.17090912242E+03 0.  0.
         24    2    3    3    0    0  0.16172114837E+02  0.63246505825E+02  0.20188316307E+03  0.22575501918E+03  0.77115882643E+02 0.  0.
         -6    2    1    2    0  501  0.88939732909E+02 -0.75989892198E+02  0.16537305991E+04  0.16668055931E+04  0.17242752396E+03 0.  0.
        -24    2    5    5    0    0  0.45336673497E+02 -0.22082373153E+02  0.42256973826E+03  0.43368499777E+03  0.83513163192E+02 0.  0.
          5    1    3    3  502    0 -0.10511184775E+03  0.12743386373E+02  0.19836281450E+03  0.22490173545E+03  0.47000000000E+01 0. -1.
        -13    1    4    4    0    0  0.32540019176E+02 -0.30089367312E+01  0.60493027999E+02  0.68755457854E+02  0.00000000000E+00 0.  1.
         14    1    4    4    0    0 -0.16367904339E+02  0.66255442556E+02  0.14139013507E+03  0.15699956132E+03  0.00000000000E+00 0. -1.
         -5    1    5    5    0  501  0.43603059412E+02 -0.53907519044E+02  0.12311608608E+04  0.12331205954E+04  0.47000000000E+01 0.  1.
         13    1    6    6    0    0 -0.11353089921E+02 -0.20891074784E+02  0.37086609974E+02  0.44053902163E+02  0.00000000000E+00 0. -1.
        -14    1    6    6    0    0  0.56689763418E+02 -0.11912983692E+01  0.38548312829E+03  0.38963109560E+03  0.00000000000E+00 0.  1.
</event>
<event>
12    1  0.2576962E-002  0.2288274E+03  0.7818608E-02  0.1127468E+00
         -1   -1    0    0    0  501 -0.00000000000E+00  0.00000000000E+00  0.13907981149E+03  0.13907981149E+03  0.00000000000E+00 0.  1.
          1   -1    0    0  502    0  0.00000000000E+00 -0.00000000000E+00 -0.18680126488E+04  0.18680126488E+04  0.00000000000E+00 0. -1.
          6    2    1    2  502    0 -0.52602023859E+02 -0.14072258327E+03 -0.17605064697E+04  0.17751993665E+04  0.17140578356E+03 0.  0.
         24    2    3    3    0    0 -0.83114216612E+02 -0.12743650367E+03 -0.10662639605E+04  0.10801437821E+04  0.81509024689E+02 0.  0.
         -6    2    1    2    0  501  0.52602023859E+02  0.14072258327E+03  0.31573632379E+02  0.23189309379E+03  0.17380360851E+03 0.  0.
        -24    2    5    5    0    0  0.90379722849E+02  0.91795386361E+02 -0.16359269573E+02  0.15353061407E+03  0.81909318742E+02 0.  0.
          5    1    3    3  502    0  0.30512192753E+02 -0.13286079604E+02 -0.69424250923E+03  0.69505558442E+03  0.47000000000E+01 0. -1.
        -11    1    4    4    0    0 -0.16035933127E+02 -0.12424130649E+02 -0.36082166403E+02  0.41393633640E+02  0.00000000000E+00 0.  1.
         12    1    4    4    0    0 -0.67078283485E+02 -0.11501237302E+03 -0.10301817940E+04  0.10387501484E+04  0.00000000000E+00 0. -1.
         -5    1    5    5    0  501 -0.37777698990E+02  0.48927196909E+02  0.47932901952E+02  0.78362479720E+02  0.47000000000E+01 0.  1.
         11    1    6    6    0    0 -0.58789300304E+00  0.29941083061E+02 -0.30352861442E+02  0.42639304295E+02  0.00000000000E+00 0. -1.
        -12    1    6    6    0    0  0.90967615853E+02  0.61854303300E+02  0.13993591869E+02  0.11089130978E+03  0.00000000000E+00 0.  1.
</event>
<event>
12    1  0.2576962E-002  0.1767892E+03  0.7818608E-02  0.1170947E+00
         -2   -1    0    0    0  501 -0.00000000000E+00  0.00000000000E+00  0.26111288623E+03  0.26111288623E+03  0.00000000000E+00 0. -1.
          2   -1    0    0  502    0  0.00000000000E+00 -0.00000000000E+00 -0.13765506539E+03  0.13765506539E+03  0.00000000000E+00 0.  1.
          6    2    1    2  502    0 -0.23434560237E+01 -0.34601375412E+02  0.13378301262E+03  0.22180542649E+03  0.17348488634E+03 0.  0.
         24    2    3    3    0    0  0.42251001196E+02 -0.37604747443E+02  0.14551495433E+03  0.17535745221E+03  0.79852175793E+02 0.  0.
         -6    2    1    2    0  501  0.23434560237E+01  0.34601375412E+02 -0.10325191782E+02  0.17696252513E+03  0.17322349364E+03 0.  0.
        -24    2    5    5    0    0 -0.16268215949E+02 -0.21489802538E+02  0.44980985418E+02  0.95885538173E+02  0.80276278677E+02 0.  0.
          5    1    3    3  502    0 -0.44594457220E+02  0.30033720310E+01 -0.11731941718E+02  0.46447974280E+02  0.47000000000E+01 0. -1.
        -13    1    4    4    0    0  0.47235658389E+02  0.10983721347E+02  0.63509812796E+02  0.79908359259E+02  0.00000000000E+00 0.  1.
         14    1    4    4    0    0 -0.49846571934E+01 -0.48588468790E+02  0.82005141537E+02  0.95449092951E+02  0.00000000000E+00 0. -1.
         -5    1    5    5    0  501  0.18611671972E+02  0.56091177950E+02 -0.55306177200E+02  0.81076986956E+02  0.47000000000E+01 0.  1.
         13    1    6    6    0    0  0.15520075430E+02  0.10079979421E+02  0.47536280921E+02  0.51011535267E+02  0.00000000000E+00 0. -1.
        -14    1    6    6    0    0 -0.31788291379E+02 -0.31569781958E+02 -0.25552955024E+01  0.44874002906E+02  0.00000000000E+00 0.  1.
</event>
<event>
12    1  0.2576962E-002  0.2174016E+03  0.7818608E-02  0.1135835E+00
         -2   -1    0    0    0  501 -0.00000000000E+00  0.00000000000E+00  0.13055691821E+02  0.13055691821E+02  0.00000000000E+00 0.  1.
          2   -1    0    0  502    0  0.00000000000E+00 -0.00000000000E+00 -0.36713510008E+04  0.36713510008E+04  0.00000000000E+00 0. -1.
          6    2    1    2  502    0  0.12885365443E+03  0.21784966682E+02 -0.16144245281E+04  0.16290421866E+04  0.17416670052E+03 0.  0.
         24    2    3    3    0    0  0.74909062975E+02  0.61132201934E+02 -0.13637260807E+04  0.13695618878E+04  0.81255324172E+02 0.  0.
         -6    2    1    2    0  501 -0.12885365443E+03 -0.21784966682E+02 -0.20438707808E+04  0.20553645060E+04  0.17331368927E+03 0.  0.
        -24    2    5    5    0    0 -0.21190972751E+02  0.40259368098E+02 -0.97659973125E+03  0.98087377281E+03  0.79350167386E+02 0.  0.
          5    1    3    3  502    0  0.53944591454E+02 -0.39347235252E+02 -0.25069844748E+03  0.25948029875E+03  0.47000000000E+01 0. -1.
        -11    1    4    4    0    0  0.56157403889E+02 -0.59115903564E+01 -0.57149470442E+03  0.57427763154E+03  0.00000000000E+00 0.  1.
         12    1    4    4    0    0  0.18751659085E+02  0.67043792290E+02 -0.79223137624E+03  0.79528425629E+03  0.00000000000E+00 0. -1.
         -5    1    5    5    0  501 -0.10766268168E+03 -0.62044334780E+02 -0.10672710496E+04  0.10744907332E+04  0.47000000000E+01 0.  1.
         13    1    6    6    0    0 -0.22563292063E+02  0.79898030290E+01 -0.84602944854E+03  0.84636798551E+03  0.00000000000E+00 0. -1.
        -14    1    6    6    0    0  0.13723193113E+01  0.32269565069E+02 -0.13057028271E+03  0.13450578730E+03  0.00000000000E+00 0.  1.
</event>
<event>
12    1  0.2576962E-002  0.1842885E+03  0.7818608E-02  0.1163716E+00
          2   -1    0    0  502    0  0.00000000000E+00  0.00000000000E+00  0.38162094396E+04  0.38162094396E+04  0.00000000000E+00 0.  1.
         -2   -1    0    0    0  501 -0.00000000000E+00 -0.00000000000E+00 -0.10845429008E+02  0.10845429008E+02  0.00000000000E+00 0. -1.
          6    2    1    2  502    0  0.65684305511E+02 -0.12862244375E+02  0.10914436791E+04  0.11068791411E+04  0.17161661640E+03 0.  0.
         24    2    3    3    0    0  0.58430811344E+02  0.54874219942E+02  0.57606071623E+03  0.58699210510E+03  0.79299703288E+02 0.  0.
         -6    2    1    2    0  501 -0.65684305511E+02  0.12862244375E+02  0.27139203315E+04  0.27201757275E+04  0.17179219291E+03 0.  0.
        -24    2    5    5    0    0 -0.93040123418E+02 -0.29708445956E+02  0.22361120690E+04  0.22396724183E+04  0.79976870974E+02 0.  0.
          5    1    3    3  502    0  0.72534941667E+01 -0.67736464317E+02  0.51538296287E+03  0.51988703599E+03  0.47000000000E+01 0. -1.
        -11    1    4    4    0    0  0.75567398577E+01  0.13798562114E+02  0.37980295984E+03  0.38012865313E+03  0.00000000000E+00 0.  1.
         12    1    4    4    0    0  0.50874071486E+02  0.41075657828E+02  0.19625775639E+03  0.20686345197E+03  0.00000000000E+00 0. -1.
         -5    1    5    5    0  501  0.27355817907E+02  0.42570690331E+02  0.47780826255E+03  0.48050330926E+03  0.47000000000E+01 0.  1.
         11    1    6    6    0    0 -0.51096896466E+02 -0.56691638278E+02  0.13241107173E+04  0.13263084205E+04  0.00000000000E+00 0. -1.
        -12    1    6    6    0    0 -0.41943226952E+02  0.26983192323E+02  0.91200135170E+03  0.91336399779E+03  0.00000000000E+00 0.  1.
</event>
<event>
12    1  0.2576962E-002  0.1893002E+03  0.7818608E-02  0.1159094E+00
          2   -1    0    0  502    0  0.00000000000E+00  0.00000000000E+00  0.21386491507E+04  0.21386491507E+04  0.00000000000E+00 0.  1.
         -2   -1    0    0    0  501 -0.00000000000E+00 -0.00000000000E+00 -0.21524377011E+02  0.21524377011E+02  0.00000000000E+00 0. -1.
          6    2    1    2  502    0  0.74572569951E+02  0.24457751702E+02  0.55004666701E+03  0.58169965709E+03  0.17223212637E+03 0.  0.
         24    2    3    3    0    0 -0.62664813079E+01  0.81327578077E+01  0.42251816312E+03  0.42975536815E+03  0.77863134756E+02 0.  0.
         -6    2    1    2    0  501 -0.74572569951E+02 -0.24457751702E+02  0.15670781067E+04  0.15784738707E+04  0.17229834014E+03 0.  0.
        -24    2    5    5    0    0  0.12645344374E+02 -0.46517208903E+02  0.61993328947E+03  0.62705441581E+03  0.80970374461E+02 0.  0.
          5    1    3    3  502    0  0.80839051259E+02  0.16324993894E+02  0.12752850390E+03  0.15194428894E+03  0.47000000000E+01 0. -1.
        -11    1    4    4    0    0 -0.57586901166E+01  0.35573695792E+02  0.35569003309E+03  0.35751090891E+03  0.00000000000E+00 0.  1.
         12    1    4    4    0    0 -0.50779119128E+00 -0.27440937985E+02  0.66828130021E+02  0.72244459245E+02  0.00000000000E+00 0. -1.
         -5    1    5    5    0  501 -0.87217914325E+02  0.22059457202E+02  0.94714481724E+03  0.95141945485E+03  0.47000000000E+01 0.  1.
         11    1    6    6    0    0 -0.11209340135E+02 -0.45396548444E+02  0.56768074187E+03  0.56960330109E+03  0.00000000000E+00 0. -1.
        -12    1    6    6    0    0  0.23854684509E+02 -0.11206604594E+01  0.52252547597E+02  0.57451114726E+02  0.00000000000E+00 0.  1.
</event>
<event>
12    1  0.2576962E-002  0.2003302E+03  0.7818608E-02  0.1149461E+00
          2   -1    0    0  502    0  0.00000000000E+00  0.00000000000E+00  0.28085529778E+04  0.28085529778E+04  0.00000000000E+00 0. -1.
         -2   -1    0    0    0  501 -0.00000000000E+00 -0.00000000000E+00 -0.16649455310E+02  0.16649455310E+02  0.00000000000E+00 0.  1.
          6    2    1    2  502    0 -0.49844691374E+02  0.90639528167E+02  0.19301007710E+04  0.19405091244E+04  0.17200772822E+03 0.  0.
         24    2    3    3    0    0 -0.76965792830E+02  0.13572848547E+02  0.12816209533E+04  0.12868861511E+04  0.86114706302E+02 0.  0.
         -6    2    1    2    0  501  0.49844691374E+02 -0.90639528167E+02  0.86180275147E+03  0.88469330863E+03  0.17110888513E+03 0.  0.
        -24    2    5    5    0    0 -0.17618902374E+02 -0.50982366666E+02  0.67871338767E+03  0.68552545962E+03  0.79897845803E+02 0.  0.
          5    1    3    3  502    0  0.27121101456E+02  0.77066679620E+02  0.64847981772E+03  0.65362297331E+03  0.47000000000E+01 0. -1.
        -11    1    4    4    0    0 -0.32931992282E+02  0.34839279948E+02  0.28016906727E+03  0.28424109098E+03  0.00000000000E+00 0.  1.
         12    1    4    4    0    0 -0.44033800549E+02 -0.21266431402E+02  0.10014518860E+04  0.10026450601E+04  0.00000000000E+00 0. -1.
         -5    1    5    5    0  501  0.67463593748E+02 -0.39657161501E+02  0.18308936381E+03  0.19916784901E+03  0.47000000000E+01 0.  1.
         13    1    6    6    0    0 -0.29394729893E+02 -0.56482734285E+02  0.65798940542E+03  0.66106308856E+03  0.00000000000E+00 0. -1.
        -14    1    6    6    0    0  0.11775827519E+02  0.55003676193E+01  0.20723982247E+02  0.24462371060E+02  0.00000000000E+00 0.  1.
</event>
<event>
12    1  0.2576962E-002  0.2064670E+03  0.7818608E-02  0.1144395E+00
          2   -1    0    0  502    0  0.00000000000E+00  0.00000000000E+00  0.14019948050E+04  0.14019948050E+04  0.00000000000E+00 0.  1.
         -2   -1    0    0    0  501 -0.00000000000E+00 -0.00000000000E+00 -0.14220522292E+03  0.14220522292E+03  0.00000000000E+00 0. -1.
          6    2    1    2  502    0  0.55631053150E+02 -0.96240060701E+02 -0.54466088502E+02  0.21388167676E+03  0.17441861568E+03 0.  0.
         24    2    3    3    0    0  0.78881370771E+02 -0.45457730003E+02 -0.85809283458E+02  0.14966401368E+03  0.82142607653E+02 0.  0.
         -6    2    1    2    0  501 -0.55631053150E+02  0.96240060701E+02  0.13142556706E+04  0.13303183512E+04  0.17355686217E+03 0.  0.
        -24    2    5    5    0    0  0.11813441408E+02  0.19018167224E+02  0.31644748031E+03  0.32724544490E+03  0.80307691629E+02 0.  0.
          5    1    3    3  502    0 -0.23250317622E+02 -0.50782330698E+02  0.31343194956E+02  0.64217663074E+02  0.47000000000E+01 0. -1.
        -13    1    4    4    0    0  0.27196951570E+02 -0.40473985860E+02  0.70030407500E+00  0.48767900630E+02  0.00000000000E+00 0.  1.
         14    1    4    4    0    0  0.51684419202E+02 -0.49837441434E+01 -0.86509587533E+02  0.10089611305E+03  0.00000000000E+00 0. -1.
         -5    1    5    5    0  501 -0.67444494558E+02  0.77221893477E+02  0.99780819027E+03  0.10030729063E+04  0.47000000000E+01 0.  1.
         11    1    6    6    0    0 -0.31226797479E+02 -0.79899220464E+01  0.10903080641E+03  0.11369550775E+03  0.00000000000E+00 0. -1.
        -12    1    6    6    0    0  0.43040238887E+02  0.27008089270E+02  0.20741667389E+03  0.21354993716E+03  0.00000000000E+00 0.  1.
</event>
<event>
12    1  0.2576962E-002  0.1992725E+03  0.7818608E-02  0.1150354E+00
          1   -1    0    0  502    0  0.00000000000E+00  0.00000000000E+00  0.10927211918E+04  0.10927211918E+04  0.00000000000E+00 0.  1.
         -1   -1    0    0    0  501 -0.00000000000E+00 -0.00000000000E+00 -0.97156644364E+02  0.97156644364E+02  0.00000000000E+00 0. -1.
          6    2    1    2  502    0  0.92662647346E+02 -0.24400032597E+02  0.26801639127E+02  0.20077227237E+03  0.17438305447E+03 0.  0.
         24    2    3    3    0    0  0.12372435087E+03 -0.91897052994E+00 -0.91928520038E+01  0.14753804378E+03  0.79839879325E+02 0.  0.
         -6    2    1    2    0  501 -0.92662647346E+02  0.24400032597E+02  0.96876290835E+03  0.98910556384E+03  0.17506146355E+03 0.  0.
        -24    2    5    5    0    0  0.16658984119E+02  0.19833168945E+02  0.53450646135E+03  0.54125198608E+03  0.81152195719E+02 0.  0.
          5    1    3    3  502    0 -0.31061703520E+02 -0.23481062067E+02  0.35994491131E+02  0.53234228586E+02  0.47000000000E+01 0. -1.
        -11    1    4    4    0    0  0.12284386848E+03 -0.15429722963E+02 -0.24736034484E+02  0.12625594551E+03  0.00000000000E+00 0.  1.
         12    1    4    4    0    0  0.88048238777E+00  0.14510752433E+02  0.15543182480E+02  0.21282098276E+02  0.00000000000E+00 0. -1.
         -5    1    5    5    0  501 -0.10932163147E+03  0.45668636520E+01  0.43425644700E+03  0.44785357776E+03  0.47000000000E+01 0.  1.
         11    1    6    6    0    0 -0.13684240485E+02 -0.18272619182E+02  0.59088159344E+02  0.63344752143E+02  0.00000000000E+00 0. -1.
        -12    1    6    6    0    0  0.30343224604E+02  0.38105788127E+02  0.47541830200E+03  0.47790723394E+03  0.00000000000E+00 0.  1.
</event>
<event>
12    1  0.2576962E-002  0.1779801E+03  0.7818608E-02  0.1169772E+00
         -2   -1    0    0    0  501 -0.00000000000E+00  0.00000000000E+00  0.10915987361E+03  0.10915987361E+03  0.00000000000E+00 0.  1.
          2   -1    0    0  502    0  0.00000000000E+00 -0.00000000000E+00 -0.35066291727E+03  0.35066291727E+03  0.00000000000E+00 0. -1.
          6    2    1    2  502    0 -0.87100865303E+01 -0.17215617834E+02 -0.22008907561E+03  0.28811540669E+03  0.18492983335E+03 0.  0.
         24    2    3    3    0    0  0.13881074086E+02  0.38049161581E+02 -0.41357692684E+02  0.99617253848E+02  0.81072286296E+02 0.  0.
         -6    2    1    2    0  501  0.87100865303E+01  0.17215617834E+02 -0.21413968052E+02  0.17170738420E+03  0.16927086180E+03 0.  0.
        -24    2    5    5    0    0  0.63810315045E+02  0.86150259404E+00 -0.40602140052E+02  0.11093100546E+03  0.81145891471E+02 0.  0.
          5    1    3    3  502    0 -0.22591160617E+02 -0.55264779415E+02 -0.17873138292E+03  0.18849815284E+03  0.47000000000E+01 0. -1.
        -13    1    4    4    0    0  0.24819788266E+02 -0.15572784625E+02  0.26098319738E+01  0.29416742401E+02  0.00000000000E+00 0.  1.
         14    1    4    4    0    0 -0.10938714180E+02  0.53621946206E+02 -0.43967524658E+02  0.70200511447E+02  0.00000000000E+00 0. -1.
         -5    1    5    5    0  501 -0.55100228515E+02  0.16354115240E+02  0.19188172000E+02  0.60776378737E+02  0.47000000000E+01 0.  1.
         11    1    6    6    0    0 -0.41013782807E+01 -0.24566635031E+02  0.48130365269E+01  0.25367423621E+02  0.00000000000E+00 0. -1.
        -12    1    6    6    0    0  0.67911693326E+02  0.25428137625E+02 -0.45415176578E+02  0.85563581839E+02  0.00000000000E+00 0.  1.
</event>
<event>
12    1  0.2576962E-002  0.2490370E+03  0.7818608E-02  0.1113915E+00
         -1   -1    0    0    0  501 -0.00000000000E+00  0.00000000000E+00  0.11872034699E+03  0.11872034699E+03  0.00000000000E+00 0. -1.
          1   -1    0    0  502    0  0.00000000000E+00 -0.00000000000E+00 -0.57575931180E+03  0.57575931180E+03  0.00000000000E+00 0.  1.
          6    2    1    2  502    0 -0.73034343619E+02  0.16526385196E+03 -0.12270857157E+03  0.27751836285E+03  0.17121008168E+03 0.  0.
         24    2    3    3    0    0 -0.45966886705E+02  0.18416162873E+03 -0.12934727124E+03  0.24351931104E+03  0.80885586489E+02 0.  0.
         -6    2    1    2    0  501  0.73034343619E+02 -0.16526385196E+03 -0.33433039323E+03  0.41696129594E+03  0.17156268346E+03 0.  0.
        -24    2    5    5    0    0  0.54401583259E+02 -0.35341693341E+02 -0.22790634554E+03  0.24791954078E+03  0.72898757290E+02 0.  0.
          5    1    3    3  502    0 -0.27067456914E+02 -0.18897776772E+02  0.66386996711E+01  0.33999051811E+02  0.47000000000E+01 0. -1.
        -13    1    4    4    0    0 -0.18471439866E+02  0.15975637865E+03 -0.73891097900E+02  0.17698358387E+03  0.00000000000E+00 0.  1.
         14    1    4    4    0    0 -0.27495446839E+02  0.24405250078E+02 -0.55456173343E+02  0.66535727170E+02  0.00000000000E+00 0. -1.
         -5    1    5    5    0  501  0.18632760360E+02 -0.12992215862E+03 -0.10642404769E+03  0.16904175515E+03  0.47000000000E+01 0.  1.
         13    1    6    6    0    0  0.70324778064E+02 -0.32568307497E+02 -0.15564272938E+03  0.17387043530E+03  0.00000000000E+00 0. -1.
        -14    1    6    6    0    0 -0.15923194805E+02 -0.27733858441E+01 -0.72263616163E+02  0.74049105483E+02  0.00000000000E+00 0.  1.
</event>
<event>
12    1  0.2576962E-002  0.1863858E+03  0.7818608E-02  0.1161762E+00
          1   -1    0    0  502    0  0.00000000000E+00  0.00000000000E+00  0.75953388633E+03  0.75953388633E+03  0.00000000000E+00 0. -1.
         -1   -1    0    0    0  501 -0.00000000000E+00 -0.00000000000E+00 -0.52570678298E+02  0.52570678298E+02  0.00000000000E+00 0.  1.
          6    2    1    2  502    0 -0.48043046831E+02  0.54318611703E+02  0.49986364158E+03  0.53348130455E+03  0.17169739717E+03 0.  0.
         24    2    3    3    0    0 -0.25906811957E+02  0.15344966702E+02  0.98235544614E+02  0.12933259902E+03  0.78549780623E+02 0.  0.
         -6    2    1    2    0  501  0.48043046831E+02 -0.54318611703E+02  0.20709956645E+03  0.27862326009E+03  0.17170336255E+03 0.  0.
        -24    2    5    5    0    0 -0.12641876484E+02 -0.72980786817E+02  0.75130252819E+02  0.13210047538E+03  0.79498229044E+02 0.  0.
          5    1    3    3  502    0 -0.22136234873E+02  0.38973645001E+02  0.40162809697E+03  0.40414870552E+03  0.47000000000E+01 0. -1.
        -11    1    4    4    0    0  0.16771815371E+02  0.33711299947E+02  0.43121208925E+02  0.57246695923E+02  0.00000000000E+00 0.  1.
         12    1    4    4    0    0 -0.42678627328E+02 -0.18366333245E+02  0.55114335689E+02  0.72085903101E+02  0.00000000000E+00 0. -1.
         -5    1    5    5    0  501  0.60684923315E+02  0.18662175114E+02  0.13196931363E+03  0.14652278471E+03  0.47000000000E+01 0.  1.
         13    1    6    6    0    0 -0.34229030328E+02 -0.18037695932E+01  0.23575310286E+02  0.41601386480E+02  0.00000000000E+00 0. -1.
        -14    1    6    6    0    0  0.21587153844E+02 -0.71177017224E+02  0.51554942533E+02  0.90499088899E+02  0.00000000000E+00 0.  1.
</event>
<event>
12    1  0.2576962E-002  0.2560693E+03  0.7818608E-02  0.1109528E+00
          2   -1    0    0  502    0  0.00000000000E+00  0.00000000000E+00  0.65090245770E+03  0.65090245770E+03  0.00000000000E+00 0.  1.
         -2   -1    0    0    0  501 -0.00000000000E+00 -0.00000000000E+00 -0.12902284051E+03  0.12902284051E+03  0.00000000000E+00 0. -1.
          6    2    1    2  502    0 -0.18756444876E+03  0.32183358507E+02  0.78169842803E+02  0.26750792487E+03  0.17097887162E+03 0.  0.
         24    2    3    3    0    0 -0.20383167305E+03  0.29825587696E+02  0.95399787601E+02  0.24323566360E+03  0.87324406402E+02 0.  0.
         -6    2    1    2    0  501  0.18756444876E+03 -0.32183358507E+02  0.44370977439E+03  0.51241737335E+03  0.17168869976E+03 0.  0.
        -24    2    5    5    0    0  0.11206695941E+03 -0.60863727097E+02  0.16015366572E+03  0.21754690823E+03  0.73580323243E+02 0.  0.
          5    1    3    3  502    0  0.16267224291E+02  0.23577708109E+01 -0.17229944798E+02  0.24272261268E+02  0.47000000000E+01 0. -1.
        -13    1    4    4    0    0 -0.86939394493E+02  0.46151123059E+02  0.74331413379E+02  0.12334319393E+03  0.00000000000E+00 0.  1.
         14    1    4    4    0    0 -0.11689227855E+03 -0.16325535363E+02  0.21068374222E+02  0.11989246967E+03  0.00000000000E+00 0. -1.
         -5    1    5    5    0  501  0.75497489347E+02  0.28680368590E+02  0.28355610867E+03  0.29487046512E+03  0.47000000000E+01 0.  1.
         11    1    6    6    0    0  0.53342637374E+01 -0.37591196209E+02  0.39585719783E+02  0.54850538856E+02  0.00000000000E+00 0. -1.
        -12    1    6    6    0    0  0.10673269567E+03 -0.23272530888E+02  0.12056794594E+03  0.16269636937E+03  0.00000000000E+00 0.  1.
</event>
<event>
12    1  0.2576962E-002  0.2087364E+03  0.7818608E-02  0.1142571E+00
          1   -1    0    0  502    0  0.00000000000E+00  0.00000000000E+00  0.20163016648E+04  0.20163016648E+04  0.00000000000E+00 0.  1.
         -1   -1    0    0    0  501 -0.00000000000E+00 -0.00000000000E+00 -0.34102957210E+02  0.34102957210E+02  0.00000000000E+00 0. -1.
          6    2    1    2  502    0  0.16351349932E+02 -0.11667795995E+03  0.37109571541E+03  0.42585798578E+03  0.17251632119E+03 0.  0.
         24    2    3    3    0    0  0.35770114708E+02 -0.13923282579E+02  0.25474334296E+03  0.26934735764E+03  0.78615961360E+02 0.  0.
         -6    2    1    2    0  501 -0.16351349932E+02  0.11667795995E+03  0.16111029922E+04  0.16245466362E+04  0.17209825360E+03 0.  0.
        -24    2    5    5    0    0 -0.69599326426E+02  0.55913879099E+02  0.75314686603E+03  0.76278192071E+03  0.81459367984E+02 0.  0.
          5    1    3    3  502    0 -0.19418764775E+02 -0.10275467737E+03  0.11635237245E+03  0.15651062814E+03  0.47000000000E+01 0. -1.
        -13    1    4    4    0    0  0.39300623997E+02 -0.41586449793E+02  0.13951995395E+03  0.15079717970E+03  0.00000000000E+00 0.  1.
         14    1    4    4    0    0 -0.35305092892E+01  0.27663167215E+02  0.11522338901E+03  0.11855017795E+03  0.00000000000E+00 0. -1.
         -5    1    5    5    0  501  0.53247976494E+02  0.60764080847E+02  0.85795612614E+03  0.86176471551E+03  0.47000000000E+01 0.  1.
         11    1    6    6    0    0 -0.12554216719E+02 -0.84139695455E+01  0.22565911701E+02  0.27159227011E+02  0.00000000000E+00 0. -1.
        -12    1    6    6    0    0 -0.57045109707E+02  0.64327848645E+02  0.73058095433E+03  0.73562269369E+03  0.00000000000E+00 0.  1.
</event>
<event>
12    1  0.2576962E-002  0.2064270E+03  0.7818608E-02  0.1144427E+00
         -1   -1    0    0    0  501 -0.00000000000E+00  0.00000000000E+00  0.93390676793E+02  0.93390676793E+02  0.00000000000E+00 0. -1.
          1   -1    0    0  502    0  0.00000000000E+00 -0.00000000000E+00 -0.50770081794E+03  0.50770081794E+03  0.00000000000E+00 0.  1.
          6    2    1    2  502    0  0.10305948969E+03  0.50361371837E+02 -0.30249326737E+03  0.36602229984E+03  0.17120929003E+03 0.  0.
         24    2    3    3    0    0  0.13241196672E+02 -0.27888858739E+02 -0.14857080639E+03  0.17133116410E+03  0.79548510655E+02 0.  0.
         -6    2    1    2    0  501 -0.10305948969E+03 -0.50361371837E+02 -0.11181687378E+03  0.23506919489E+03  0.17203774858E+03 0.  0.
        -24    2    5    5    0    0 -0.13267333918E+03 -0.57318514851E+02 -0.59872179828E+02  0.17468937086E+03  0.77743625459E+02 0.  0.
          5    1    3    3  502    0  0.89818293014E+02  0.78250230575E+02 -0.15392246097E+03  0.19469113574E+03  0.47000000000E+01 0. -1.
        -11    1    4    4    0    0 -0.18006200673E+02  0.18820981652E+02 -0.70336889731E+02  0.75004870976E+02  0.00000000000E+00 0.  1.
         12    1    4    4    0    0  0.31247397345E+02 -0.46709840391E+02 -0.78233916662E+02  0.96326293121E+02  0.00000000000E+00 0. -1.
         -5    1    5    5    0  501  0.29613849493E+02  0.69571430145E+01 -0.51944693950E+02  0.60379824033E+02  0.47000000000E+01 0.  1.
         11    1    6    6    0    0 -0.10761234021E+03 -0.60064568088E+02 -0.16251429756E+02  0.12430718835E+03  0.00000000000E+00 0. -1.
        -12    1    6    6    0    0 -0.25060998964E+02  0.27460532370E+01 -0.43620750072E+02  0.50382182508E+02  0.00000000000E+00 0.  1.
</event>
<event>
12    1  0.2576962E-002  0.2129228E+03  0.7818608E-02  0.1139272E+00
          1   -1    0    0  502    0  0.00000000000E+00  0.00000000000E+00  0.71667366268E+03  0.71667366268E+03  0.00000000000E+00 0.  1.
         -1   -1    0    0    0  501 -0.00000000000E+00 -0.00000000000E+00 -0.12039274703E+03  0.12039274703E+03  0.00000000000E+00 0. -1.
          6    2    1    2  502    0  0.27273348057E+02 -0.12497843091E+03  0.11256065764E+02  0.21515212501E+03  0.17262761706E+03 0.  0.
         24    2    3    3    0    0 -0.22508287158E+02 -0.90668121184E+02  0.64141806963E+02  0.13468846749E+03  0.72797532141E+02 0.  0.
         -6    2    1    2    0  501 -0.27273348057E+02  0.12497843091E+03  0.58502484988E+03  0.62191428470E+03  0.16780899507E+03 0.  0.
        -24    2    5    5    0    0 -0.54896126254E+02  0.91271674660E+02  0.54834850051E+03  0.56476178786E+03  0.83220765078E+02 0.  0.
          5    1    3    3  502    0  0.49781635214E+02 -0.34310309724E+02 -0.52885741198E+02  0.80463657511E+02  0.47000000000E+01 0. -1.
        -13    1    4    4    0    0  0.65865669283E+01 -0.16341719932E+02  0.50792696239E+02  0.53761814194E+02  0.00000000000E+00 0.  1.
         14    1    4    4    0    0 -0.29094854086E+02 -0.74326401252E+02  0.13349110724E+02  0.80926653301E+02  0.00000000000E+00 0. -1.
         -5    1    5    5    0  501  0.27622778197E+02  0.33706756248E+02  0.36676349375E+02  0.57152496844E+02  0.47000000000E+01 0.  1.
         11    1    6    6    0    0  0.15972921886E+02  0.20589885436E+02  0.21885769129E+03  0.22040364482E+03  0.00000000000E+00 0. -1.
        -12    1    6    6    0    0 -0.70869048139E+02  0.70681789224E+02  0.32949080922E+03  0.34435814303E+03  0.00000000000E+00 0.  1.
</event>
<event>
12    1  0.2576962E-002  0.1746378E+03  0.7818608E-02  0.1173096E+00
         -2   -1    0    0    0  501 -0.00000000000E+00  0.00000000000E+00  0.16357198979E+03  0.16357198979E+03  0.00000000000E+00 0.  1.
          2   -1    0    0  502    0  0.00000000000E+00 -0.00000000000E+00 -0.18730026529E+03  0.18730026529E+03  0.00000000000E+00 0. -1.
          6    2    1    2  502    0  0.18944955185E+02 -0.23935644809E+02 -0.84979192771E-01  0.17495730361E+03  0.17227369052E+03 0.  0.
         24    2    3    3    0    0  0.68998097102E+02 -0.37021736631E+02 -0.28993643585E+02  0.11550678896E+03  0.79811280786E+02 0.  0.
         -6    2    1    2    0  501 -0.18944955185E+02  0.23935644809E+02 -0.23643296302E+02  0.17591495147E+03  0.17162528448E+03 0.  0.
        -24    2    5    5    0    0  0.54357048263E+02 -0.45781080371E+01 -0.14793621147E+02  0.96626714254E+02  0.78372335117E+02 0.  0.
          5    1    3    3  502    0 -0.50053141917E+02  0.13086091822E+02  0.28908664392E+02  0.59450514647E+02  0.47000000000E+01 0. -1.
        -11    1    4    4    0    0  0.18972121250E+02  0.24738902614E+02 -0.83730238556E+00  0.31187429560E+02  0.00000000000E+00 0.  1.
         12    1    4    4    0    0  0.50025975852E+02 -0.61760639245E+02 -0.28156341199E+02  0.84319359400E+02  0.00000000000E+00 0. -1.
         -5    1    5    5    0  501 -0.73302003448E+02  0.28513752846E+02 -0.88496751548E+01  0.79288237219E+02  0.47000000000E+01 0.  1.
         11    1    6    6    0    0  0.68455409557E+02  0.16206298228E+02 -0.99246070413E+01  0.71044246950E+02  0.00000000000E+00 0. -1.
        -12    1    6    6    0    0 -0.14098361293E+02 -0.20784406265E+02 -0.48690141061E+01  0.25582467303E+02  0.00000000000E+00 0.  1.
</event>
<event>
12    1  0.2576962E-002  0.5741071E+03  0.7818608E-02  0.9960631E-01
          2   -1    0    0  502    0  0.00000000000E+00  0.00000000000E+00  0.21741507941E+04  0.21741507941E+04  0.00000000000E+00 0.  1.
         -2   -1    0    0    0  501 -0.00000000000E+00 -0.00000000000E+00 -0.15160107528E+03  0.15160107528E+03  0.00000000000E+00 0. -1.
          6    2    1    2  502    0 -0.45256429344E+03 -0.30812330941E+03  0.10161843348E+04  0.11673168837E+04  0.17390713347E+03 0.  0.
         24    2    3    3    0    0 -0.41954509686E+03 -0.22939261177E+03  0.80044998085E+03  0.93525613392E+03  0.73108177030E+02 0.  0.
         -6    2    1    2    0  501  0.45256429344E+03  0.30812330941E+03  0.10063653840E+04  0.11584349857E+04  0.17159812503E+03 0.  0.
        -24    2    5    5    0    0  0.29060596906E+03  0.27579085349E+03  0.72590259865E+03  0.83292407882E+03  0.79470209679E+02 0.  0.
          5    1    3    3  502    0 -0.33019196573E+02 -0.78730697644E+02  0.21573435398E+03  0.23206074976E+03  0.47000000000E+01 0. -1.
        -13    1    4    4    0    0 -0.16409167816E+03 -0.12013972943E+03  0.29190094412E+03  0.35576086716E+03  0.00000000000E+00 0.  1.
         14    1    4    4    0    0 -0.25545341871E+03 -0.10925288234E+03  0.50854903674E+03  0.57949526676E+03  0.00000000000E+00 0. -1.
         -5    1    5    5    0  501  0.16195832437E+03  0.32332455916E+02  0.28046278537E+03  0.32551090691E+03  0.47000000000E+01 0.  1.
         11    1    6    6    0    0  0.25079907595E+02  0.47691385370E+02  0.14520471605E+03  0.15488021038E+03  0.00000000000E+00 0. -1.
        -12    1    6    6    0    0  0.26552606147E+03  0.22809946812E+03  0.58069788261E+03  0.67804386845E+03  0.00000000000E+00 0.  1.
</event>
<event>
12    1  0.2576962E-002  0.3195650E+03  0.7818608E-02  0.1075850E+00
          2   -1    0    0  502    0  0.00000000000E+00  0.00000000000E+00  0.43576379095E+03  0.43576379095E+03  0.00000000000E+00 0. -1.
         -2   -1    0    0    0  501 -0.00000000000E+00 -0.00000000000E+00 -0.27040894778E+03  0.27040894778E+03  0.00000000000E+00 0.  1.
          6    2    1    2  502    0  0.24249631071E+03  0.11633785040E+03  0.21156064544E+03  0.38305918748E+03  0.17215538988E+03 0.  0.
         24    2    3    3    0    0  0.40514707605E+02  0.11006292040E+02  0.46157539308E+02  0.10150709159E+03  0.80066167705E+02 0.  0.
         -6    2    1    2    0  501 -0.24249631071E+03 -0.11633785040E+03 -0.46205802262E+02  0.32311355126E+03  0.17299836617E+03 0.  0.
        -24    2    5    5    0    0 -0.11013073445E+03  0.95556635906E+01 -0.30750133837E+02  0.13972655518E+03  0.79736128034E+02 0.  0.
          5    1    3    3  502    0  0.20198160311E+03  0.10533155836E+03  0.16540310613E+03  0.28155209589E+03  0.47000000000E+01 0. -1.
        -11    1    4    4    0    0  0.38144363537E+02 -0.30274998824E+02  0.29442086500E+02  0.56906980950E+02  0.00000000000E+00 0.  1.
         12    1    4    4    0    0  0.23703440682E+01  0.41281290864E+02  0.16715452808E+02  0.44600110638E+02  0.00000000000E+00 0. -1.
         -5    1    5    5    0  501 -0.13236557626E+03 -0.12589351399E+03 -0.15455668425E+02  0.18338699608E+03  0.47000000000E+01 0.  1.
         13    1    6    6    0    0 -0.39246064905E+01  0.64594567956E+01  0.20435803494E+02  0.21788739813E+02  0.00000000000E+00 0. -1.
        -14    1    6    6    0    0 -0.10620612796E+03  0.30962067951E+01 -0.51185937332E+02  0.11793781536E+03  0.00000000000E+00 0.  1.
</event>
<event>
12    1  0.2576962E-002  0.2873599E+03  0.7818608E-02  0.1091736E+00
          2   -1    0    0  502    0  0.00000000000E+00  0.00000000000E+00  0.20550085560E+03  0.20550085560E+03  0.00000000000E+00 0.  1.
         -2   -1    0    0    0  501 -0.00000000000E+00 -0.00000000000E+00 -0.40261506292E+03  0.40261506292E+03  0.00000000000E+00 0. -1.
          6    2    1    2  502    0  0.20649297463E+03  0.10113297301E+03 -0.11195492355E+03  0.30824245031E+03  0.17208217939E+03 0.  0.
         24    2    3    3    0    0  0.18049770611E+03  0.10276753492E+03 -0.14489255350E+03  0.26598841802E+03  0.81335098944E+02 0.  0.
         -6    2    1    2    0  501 -0.20649297463E+03 -0.10113297301E+03 -0.85159283755E+02  0.29987346821E+03  0.17264057033E+03 0.  0.
        -24    2    5    5    0    0 -0.17212542399E+03 -0.11656081459E+03 -0.11613144348E+03  0.25087845304E+03  0.78993043726E+02 0.  0.
          5    1    3    3  502    0  0.25995268525E+02 -0.16345619117E+01  0.32937629944E+02  0.42254032288E+02  0.47000000000E+01 0. -1.
        -11    1    4    4    0    0  0.55566161800E+02  0.76618373087E+02 -0.50812597473E+02  0.10742389629E+03  0.00000000000E+00 0.  1.
         12    1    4    4    0    0  0.12493154431E+03  0.26149161830E+02 -0.94079956026E+02  0.15856452173E+03  0.00000000000E+00 0. -1.
         -5    1    5    5    0  501 -0.34367550642E+02  0.15427841582E+02  0.30972159723E+02  0.48995015164E+02  0.47000000000E+01 0.  1.
         13    1    6    6    0    0 -0.77895626158E+02 -0.38918517111E+02 -0.74098663107E+01  0.87391565196E+02  0.00000000000E+00 0. -1.
        -14    1    6    6    0    0 -0.94229797831E+02 -0.77642297477E+02 -0.10872157717E+03  0.16348688785E+03  0.00000000000E+00 0.  1.
</event>
<event>
12    1  0.2576962E-002  0.5369813E+03  0.7818608E-02  0.1004553E+00
          2   -1    0    0  502    0  0.00000000000E+00  0.00000000000E+00  0.13387349570E+04  0.13387349570E+04  0.00000000000E+00 0. -1.
         -2   -1    0    0    0  501 -0.00000000000E+00 -0.00000000000E+00 -0.25231496971E+03  0.25231496971E+03  0.00000000000E+00 0.  1.
          6    2    1    2  502    0 -0.39492498548E+03  0.32034121150E+03  0.84772127904E+03  0.10035951863E+04  0.17316955584E+03 0.  0.
         24    2    3    3    0    0 -0.26444753565E+03  0.21487137316E+03  0.43564823446E+03  0.55865189127E+03  0.78742271497E+02 0.  0.
         -6    2    1    2    0  501  0.39492498548E+03 -0.32034121150E+03  0.23869870824E+03  0.58745474041E+03  0.17187717351E+03 0.  0.
        -24    2    5    5    0    0  0.15846417351E+03 -0.12014146017E+03  0.16217655736E+03  0.26828176912E+03  0.78287975738E+02 0.  0.
          5    1    3    3  502    0 -0.13047744983E+03  0.10546983834E+03  0.41207304458E+03  0.44494329502E+03  0.47000000000E+01 0. -1.
        -11    1    4    4    0    0 -0.50106097442E+02  0.66890042629E+01  0.72360324028E+02  0.88268795576E+02  0.00000000000E+00 0.  1.
         12    1    4    4    0    0 -0.21434143820E+03  0.20818236889E+03  0.36328791043E+03  0.47038309569E+03  0.00000000000E+00 0. -1.
         -5    1    5    5    0  501  0.23646081197E+03 -0.20019975133E+03  0.76522150881E+02  0.31917297129E+03  0.47000000000E+01 0.  1.
         11    1    6    6    0    0  0.35035630856E+02 -0.67095068752E+02  0.35389449319E+02  0.83556309177E+02  0.00000000000E+00 0. -1.
        -12    1    6    6    0    0  0.12342854265E+03 -0.53046391419E+02  0.12678710804E+03  0.18472545994E+03  0.00000000000E+00 0.  1.
</event>
<event>
12    1  0.2576962E-002  0.1931624E+03  0.7818608E-02  0.1155640E+00
          1   -1    0    0  502    0  0.00000000000E+00  0.00000000000E+00  0.26696104248E+03  0.26696104248E+03  0.00000000000E+00 0.  1.
         -1   -1    0    0    0  501 -0.00000000000E+00 -0.00000000000E+00 -0.16080710597E+03  0.16080710597E+03  0.00000000000E+00 0. -1.
          6    2    1    2  502    0 -0.76283649252E+02  0.45902194975E+02  0.13093994292E+03  0.23521576165E+03  0.17393958500E+03 0.  0.
         24    2    3    3    0    0 -0.66387515965E+02 -0.34168110731E+02  0.49140788801E+02  0.12022715819E+03  0.80405163866E+02 0.  0.
         -6    2    1    2    0  501  0.76283649252E+02 -0.45902194975E+02 -0.24786006406E+02  0.19255238680E+03  0.16892563128E+03 0.  0.
        -24    2    5    5    0    0  0.63555841831E+02  0.30535458534E+02 -0.40628860259E+02  0.11331983053E+03  0.78860132167E+02 0.  0.
          5    1    3    3  502    0 -0.98961332874E+01  0.80070305706E+02  0.81799154121E+02  0.11498860346E+03  0.47000000000E+01 0. -1.
        -13    1    4    4    0    0 -0.25764927885E+02  0.10518983780E+02  0.52842029613E+02  0.59722362833E+02  0.00000000000E+00 0.  1.
         14    1    4    4    0    0 -0.40622588080E+02 -0.44687094511E+02 -0.37012408116E+01  0.60504795361E+02  0.00000000000E+00 0. -1.
         -5    1    5    5    0  501  0.12727807421E+02 -0.76437653509E+02  0.15842853854E+02  0.79232556276E+02  0.47000000000E+01 0.  1.
         11    1    6    6    0    0 -0.74746935570E+01 -0.23296504556E+01 -0.33870147906E+02  0.34763274216E+02  0.00000000000E+00 0. -1.
        -12    1    6    6    0    0  0.71030535388E+02  0.32865108990E+02 -0.67587123531E+01  0.78556556309E+02  0.00000000000E+00 0.  1.
</event>
<event>
12    1  0.2576962E-002  0.2740753E+03  0.7818608E-02  0.1098970E+00
          1   -1    0    0  502    0  0.00000000000E+00  0.00000000000E+00  0.16134237474E+04  0.16134237474E+04  0.00000000000E+00 0. -1.
         -1   -1    0    0    0  501 -0.00000000000E+00 -0.00000000000E+00 -0.59524405228E+02  0.59524405228E+02  0.00000000000E+00 0.  1.
          6    2    1    2  502    0  0.18161472872E+03  0.11065910004E+03  0.11633763932E+04  0.11948190291E+04  0.17005450289E+03 0.  0.
         24    2    3    3    0    0  0.58497456995E+02  0.84210695937E+02  0.79595868226E+03  0.80639240156E+03  0.78772378692E+02 0.  0.
         -6    2    1    2    0  501 -0.18161472872E+03 -0.11065910004E+03  0.39052294894E+03  0.47812912349E+03  0.17569843190E+03 0.  0.
        -24    2    5    5    0    0 -0.19734875468E+03 -0.70071150711E+02  0.36413866460E+03  0.42701003054E+03  0.76707900431E+02 0.  0.
          5    1    3    3  502    0  0.12311727172E+03  0.26448404103E+02  0.36741771097E+03  0.38842662757E+03  0.47000000000E+01 0. -1.
        -13    1    4    4    0    0 -0.13593211531E+02  0.34008714692E+02  0.34641194586E+03  0.34834265358E+03  0.00000000000E+00 0.  1.
         14    1    4    4    0    0  0.72090668526E+02  0.50201981246E+02  0.44954673640E+03  0.45804974797E+03  0.00000000000E+00 0. -1.
         -5    1    5    5    0  501  0.15734025962E+02 -0.40587949329E+02  0.26384284333E+02  0.51119092945E+02  0.47000000000E+01 0.  1.
         13    1    6    6    0    0 -0.76641883281E+02 -0.49453192396E+02  0.21823129342E+03  0.23652588429E+03  0.00000000000E+00 0. -1.
        -14    1    6    6    0    0 -0.12070687140E+03 -0.20617958315E+02  0.14590737118E+03  0.19048414625E+03  0.00000000000E+00 0.  1.
</event>
<event>
12    1  0.2576962E-002  0.1824447E+03  0.7818608E-02  0.1165458E+00
          2   -1    0    0  502    0  0.00000000000E+00  0.00000000000E+00  0.72580230479E+03  0.72580230479E+03  0.00000000000E+00 0.  1.
         -2   -1    0    0    0  501 -0.00000000000E+00 -0.00000000000E+00 -0.60253123784E+02  0.60253123784E+02  0.00000000000E+00 0. -1.
          6    2    1    2  502    0  0.62911635471E+02  0.22413834474E+02  0.52381920611E+03  0.55443831678E+03  0.16898234395E+03 0.  0.
         24    2    3    3    0    0  0.69032908503E+02  0.73632299980E+02  0.40822089461E+03  0.42776605930E+03  0.78436245690E+02 0.  0.
         -6    2    1    2    0  501 -0.62911635471E+02 -0.22413834474E+02  0.14172997489E+03  0.23161711179E+03  0.17058384108E+03 0.  0.
        -24    2    5    5    0    0 -0.18997351092E+02 -0.72504910803E+02  0.11675813039E+03  0.16032010401E+03  0.80325670243E+02 0.  0.
          5    1    3    3  502    0 -0.61212730317E+01 -0.51218465506E+02  0.11559831150E+03  0.12667225748E+03  0.47000000000E+01 0. -1.
        -13    1    4    4    0    0  0.48007784267E+02  0.15289757448E+02  0.28921669818E+03  0.29357251666E+03  0.00000000000E+00 0.  1.
         14    1    4    4    0    0  0.21025124236E+02  0.58342542533E+02  0.11900419643E+03  0.13419354264E+03  0.00000000000E+00 0. -1.
         -5    1    5    5    0  501 -0.43914284379E+02  0.50091076329E+02  0.24971844503E+02  0.71297007778E+02  0.47000000000E+01 0.  1.
         13    1    6    6    0    0  0.88468219787E+01 -0.70873349165E+02  0.47821340486E+02  0.85954514058E+02  0.00000000000E+00 0. -1.
        -14    1    6    6    0    0 -0.27844173071E+02 -0.16315616376E+01  0.68936789903E+02  0.74365589956E+02  0.00000000000E+00 0.  1.
</event>
<event>
12    1  0.2576962E-002  0.2257763E+03  0.7818608E-02  0.1129648E+00
          2   -1    0    0  502    0  0.00000000000E+00  0.00000000000E+00  0.21608030155E+04  0.21608030155E+04  0.00000000000E+00 0. -1.
         -2   -1    0    0    0  501 -0.00000000000E+00 -0.00000000000E+00 -0.25393580481E+02  0.25393580481E+02  0.00000000000E+00 0.  1.
          6    2    1    2  502    0  0.50834463362E+02  0.14097499831E+03  0.13484594381E+04  0.13668474259E+04  0.16574358758E+03 0.  0.
         24    2    3    3    0    0  0.44516424763E+02 -0.59067002410E+01  0.48064727636E+03  0.48665756630E+03  0.61621273764E+02 0.  0.
         -6    2    1    2    0  501 -0.50834463362E+02 -0.14097499831E+03  0.78694999692E+03  0.81934917003E+03  0.17200195335E+03 0.  0.
        -24    2    5    5    0    0  0.87033738656E+01 -0.14401554052E+03  0.63871997693E+03  0.65951104008E+03  0.78583576088E+02 0.  0.
          5    1    3    3  502    0  0.63180385987E+01  0.14688169855E+03  0.86781216171E+03  0.88018985963E+03  0.47000000000E+01 0. -1.
        -13    1    4    4    0    0  0.13380864860E+02 -0.54232738222E+01  0.18522937980E+02  0.23485286347E+02  0.00000000000E+00 0.  1.
         14    1    4    4    0    0  0.31135559903E+02 -0.48342641875E+00  0.46212433838E+03  0.46317227995E+03  0.00000000000E+00 0. -1.
         -5    1    5    5    0  501 -0.59537837227E+02  0.30405422095E+01  0.14823002000E+03  0.15983812995E+03  0.47000000000E+01 0.  1.
         11    1    6    6    0    0  0.27697677338E+01  0.78241706839E+01  0.82217815748E+02  0.82635697410E+02  0.00000000000E+00 0. -1.
        -12    1    6    6    0    0  0.59336061317E+01 -0.15183971120E+03  0.55650216118E+03  0.57687534266E+03  0.00000000000E+00 0.  1.
</event>
<event>
12    1  0.2576962E-002  0.1752132E+03  0.7818608E-02  0.1172518E+00
         -2   -1    0    0    0  501 -0.00000000000E+00  0.00000000000E+00  0.14464036465E+03  0.14464036465E+03  0.00000000000E+00 0.  1.
          2   -1    0    0  502    0  0.00000000000E+00 -0.00000000000E+00 -0.21235384920E+03  0.21235384920E+03  0.00000000000E+00 0. -1.
          6    2    1    2  502    0  0.33673836984E+02 -0.50011011604E+01 -0.29832761950E+02  0.17747681031E+03  0.17160736057E+03 0.  0.
         24    2    3    3    0    0  0.28503838888E+02 -0.20994493378E+02 -0.83807757183E+02  0.12075020645E+03  0.79395431925E+02 0.  0.
         -6    2    1    2    0  501 -0.33673836984E+02  0.50011011604E+01 -0.37880722598E+02  0.17951740355E+03  0.17214125224E+03 0.  0.
        -24    2    5    5    0    0 -0.40267689907E+02  0.68093374185E+00  0.47499035442E+02  0.93645779446E+02  0.69938709731E+02 0.  0.
          5    1    3    3  502    0  0.51699980957E+01  0.15993392217E+02  0.53974995232E+02  0.56726603858E+02  0.47000000000E+01 0. -1.
        -11    1    4    4    0    0  0.19311584102E+02 -0.24156562329E+02  0.50722873010E+01  0.31340148094E+02  0.00000000000E+00 0.  1.
         12    1    4    4    0    0  0.91922547861E+01  0.31620689509E+01 -0.88880044484E+02  0.89410058358E+02  0.00000000000E+00 0. -1.
         -5    1    5    5    0  501  0.65938529237E+01  0.43201674186E+01 -0.85379758040E+02  0.85871624101E+02  0.47000000000E+01 0.  1.
         13    1    6    6    0    0 -0.15215720331E+02  0.41677989974E+01 -0.17701262990E+02  0.23711250602E+02  0.00000000000E+00 0. -1.
        -14    1    6    6    0    0 -0.25051969576E+02 -0.34868652555E+01  0.65200298432E+02  0.69934528843E+02  0.00000000000E+00 0.  1.
</event>
<event>
12    1  0.2576962E-002  0.2257252E+03  0.7818608E-02  0.1129685E+00
         -2   -1    0    0    0  501 -0.00000000000E+00  0.00000000000E+00  0.33943803508E+03  0.33943803508E+03  0.00000000000E+00 0. -1.
          2   -1    0    0  502    0  0.00000000000E+00 -0.00000000000E+00 -0.21007755309E+03  0.21007755309E+03  0.00000000000E+00 0.  1.
          6    2    1    2  502    0 -0.14904903614E+03 -0.23842273890E+02  0.21211659023E+03  0.31222168989E+03  0.17235099822E+03 0.  0.
         24    2    3    3    0    0 -0.79009640393E+02  0.36988857797E+02  0.17772560338E+03  0.21317234100E+03  0.79027577426E+02 0.  0.
         -6    2    1    2    0  501  0.14904903614E+03  0.23842273890E+02 -0.82756108239E+02  0.23729389828E+03  0.16332713035E+03 0.  0.
        -24    2    5    5    0    0  0.13915767421E+03  0.37236455775E+02 -0.12666478056E+02  0.16510048162E+03  0.79663777438E+02 0.  0.
          5    1    3    3  502    0 -0.70039395752E+02 -0.60831131687E+02  0.34390986851E+02  0.99049348893E+02  0.47000000000E+01 0. -1.
        -13    1    4    4    0    0 -0.10019095348E+02 -0.12034386340E+02  0.89712103510E+02  0.91068492039E+02  0.00000000000E+00 0.  1.
         14    1    4    4    0    0 -0.68990545045E+02  0.49023244137E+02  0.88013499871E+02  0.12210384896E+03  0.00000000000E+00 0. -1.
         -5    1    5    5    0  501  0.98913619394E+01 -0.13394181884E+02 -0.70089630184E+02  0.72193416657E+02  0.47000000000E+01 0.  1.
         11    1    6    6    0    0  0.22427465984E+02  0.20556584876E+02  0.27015451447E+02  0.40686595202E+02  0.00000000000E+00 0. -1.
        -12    1    6    6    0    0  0.11673020822E+03  0.16679870898E+02 -0.39681929502E+02  0.12441388642E+03  0.00000000000E+00 0.  1.
</event>
<event>
12    1  0.2576962E-002  0.2044762E+03  0.7818608E-02  0.1146016E+00
          1   -1    0    0  502    0  0.00000000000E+00  0.00000000000E+00  0.13616272152E+03  0.13616272152E+03  0.00000000000E+00 0. -1.
         -1   -1    0    0    0  501 -0.00000000000E+00 -0.00000000000E+00 -0.58524288004E+03  0.58524288004E+03  0.00000000000E+00 0.  1.
          6    2    1    2  502    0  0.33092923900E+02  0.10348507635E+03 -0.47341101486E+03  0.51581306349E+03  0.17361113108E+03 0.  0.
         24    2    3    3    0    0  0.50275779773E+00  0.13616398781E+03 -0.38603273811E+03  0.41688337417E+03  0.78927741794E+02 0.  0.
         -6    2    1    2    0  501 -0.33092923900E+02 -0.10348507635E+03  0.24330856348E+02  0.20559253807E+03  0.17283517726E+03 0.  0.
        -24    2    5    5    0    0 -0.60625976993E+01 -0.78997958223E+02  0.80132806693E+02  0.13876286538E+03  0.80971807478E+02 0.  0.
          5    1    3    3  502    0  0.32590166102E+02 -0.32678911461E+02 -0.87378276755E+02  0.98929689323E+02  0.47000000000E+01 0. -1.
        -11    1    4    4    0    0 -0.24777408062E+02  0.33173575374E+02 -0.18519122789E+03  0.18976352901E+03  0.00000000000E+00 0.  1.
         12    1    4    4    0    0  0.25280165860E+02  0.10299041244E+03 -0.20084151022E+03  0.22711984516E+03  0.00000000000E+00 0. -1.
         -5    1    5    5    0  501 -0.27030326201E+02 -0.24487118127E+02 -0.55801950346E+02  0.66829672684E+02  0.47000000000E+01 0.  1.
         11    1    6    6    0    0 -0.36316739328E+02 -0.10581025665E+02  0.20035564647E+02  0.42805227604E+02  0.00000000000E+00 0. -1.
        -12    1    6    6    0    0  0.30254141629E+02 -0.68416932558E+02  0.60097242047E+02  0.95957637778E+02  0.00000000000E+00 0.  1.
</event>
<event>
12    1  0.2576962E-002  0.2370634E+03  0.7818608E-02  0.1121765E+00
         -2   -1    0    0    0  501 -0.00000000000E+00  0.00000000000E+00  0.42884897984E+02  0.42884897984E+02  0.00000000000E+00 0.  1.
          2   -1    0    0  502    0  0.00000000000E+00 -0.00000000000E+00 -0.13443998818E+04  0.13443998818E+04  0.00000000000E+00 0. -1.
          6    2    1    2  502    0 -0.62002433294E+01 -0.16182713313E+03 -0.53756809016E+03  0.58706362448E+03  0.17157442581E+03 0.  0.
         24    2    3    3    0    0  0.96116991845E+01 -0.12114001548E+03 -0.51508528520E+03  0.53773791529E+03  0.95299141614E+02 0.  0.
         -6    2    1    2    0  501  0.62002433294E+01  0.16182713313E+03 -0.76394689368E+03  0.80022115533E+03  0.17467849621E+03 0.  0.
        -24    2    5    5    0    0  0.53616533850E+01  0.19110197038E+03 -0.69130243135E+03  0.72175442840E+03  0.80508961653E+02 0.  0.
          5    1    3    3  502    0 -0.15811942514E+02 -0.40687117650E+02 -0.22482804960E+02  0.49325709195E+02  0.47000000000E+01 0. -1.
        -13    1    4    4    0    0  0.36973431419E+02 -0.50250893829E+02 -0.11830331341E+03  0.13374550805E+03  0.00000000000E+00 0.  1.
         14    1    4    4    0    0 -0.27361732235E+02 -0.70889121653E+02 -0.39678197180E+03  0.40399240723E+03  0.00000000000E+00 0. -1.
         -5    1    5    5    0  501  0.83858994439E+00 -0.29274837246E+02 -0.72644462326E+02  0.78466726932E+02  0.47000000000E+01 0.  1.
         13    1    6    6    0    0 -0.24571192342E+02  0.90815114425E+02 -0.43203770469E+03  0.44216253434E+03  0.00000000000E+00 0. -1.
        -14    1    6    6    0    0  0.29932845727E+02  0.10028685595E+03 -0.25926472667E+03  0.27959189406E+03  0.00000000000E+00 0.  1.
</event>
<event>
12    1  0.2576962E-002  0.3498459E+03  0.7818608E-02  0.1062678E+00
         -1   -1    0    0    0  501 -0.00000000000E+00  0.00000000000E+00  0.30018771703E+03  0.30018771703E+03  0.00000000000E+00 0. -1.
          1   -1    0    0  502    0  0.00000000000E+00 -0.00000000000E+00 -0.41696133359E+03  0.41696133359E+03  0.00000000000E+00 0.  1.
          6    2    1    2  502    0 -0.29492869225E+03  0.73012948801E+02 -0.11154814448E+03  0.36598211030E+03  0.17083937579E+03 0.  0.
         24    2    3    3    0    0 -0.76317328371E+02  0.55431838878E+02 -0.83212517307E+02  0.14479209784E+03  0.71717537539E+02 0.  0.
         -6    2    1    2    0  501  0.29492869225E+03 -0.73012948801E+02 -0.52254720770E+01  0.35116694032E+03  0.17600309717E+03 0.  0.
        -24    2    5    5    0    0  0.26179005999E+03 -0.71139210012E+02  0.49613490468E+02  0.28689344922E+03  0.79066617868E+02 0.  0.
          5    1    3    3  502    0 -0.21861136388E+03  0.17581109923E+02 -0.28335627174E+02  0.22119001246E+03  0.47000000000E+01 0. -1.
        -13    1    4    4    0    0 -0.86749568364E+02  0.37354675434E+02 -0.53711254033E+02  0.10865430593E+03  0.00000000000E+00 0.  1.
         14    1    4    4    0    0  0.10432239993E+02  0.18077163444E+02 -0.29501263274E+02  0.36137791912E+02  0.00000000000E+00 0. -1.
         -5    1    5    5    0  501  0.33138632261E+02 -0.18737387895E+01 -0.54838962545E+02  0.64273491100E+02  0.47000000000E+01 0.  1.
         13    1    6    6    0    0  0.61535475674E+02 -0.45434004718E+02  0.35995103658E+02  0.84537039447E+02  0.00000000000E+00 0. -1.
        -14    1    6    6    0    0  0.20025458432E+03 -0.25705205294E+02  0.13618386809E+02  0.20235640978E+03  0.00000000000E+00 0.  1.
</event>
<event>
12    1  0.2576962E-002  0.1930683E+03  0.7818608E-02  0.1155723E+00
          2   -1    0    0  502    0  0.00000000000E+00  0.00000000000E+00  0.11233297415E+03  0.11233297415E+03  0.00000000000E+00 0.  1.
         -2   -1    0    0    0  501 -0.00000000000E+00 -0.00000000000E+00 -0.39009832363E+03  0.39009832363E+03  0.00000000000E+00 0. -1.
          6    2    1    2  502    0 -0.26456505792E+02 -0.83207918757E+02 -0.23657748179E+03  0.30599485238E+03  0.17332178267E+03 0.  0.
         24    2    3    3    0    0  0.46806253911E+02 -0.14349680695E+02 -0.11354441463E+03  0.14703537791E+03  0.79563367965E+02 0.  0.
         -6    2    1    2    0  501  0.26456505792E+02  0.83207918757E+02 -0.41187867684E+02  0.19643644540E+03  0.17107697739E+03 0.  0.
        -24    2    5    5    0    0 -0.24762914006E+02  0.11146710369E+02  0.23976699139E+02  0.86505751376E+02  0.78555151692E+02 0.  0.
          5    1    3    3  502    0 -0.73262759703E+02 -0.68858238062E+02 -0.12303306716E+03  0.15895947447E+03  0.47000000000E+01 0. -1.
        -11    1    4    4    0    0 -0.20836057692E+02  0.19343340910E+01 -0.12566038979E+02  0.24408774736E+02  0.00000000000E+00 0.  1.
         12    1    4    4    0    0  0.67642311602E+02 -0.16284014786E+02 -0.10097837565E+03  0.12262660317E+03  0.00000000000E+00 0. -1.
         -5    1    5    5    0  501  0.51219419798E+02  0.72061208388E+02 -0.65164566823E+02  0.10993069402E+03  0.47000000000E+01 0.  1.
         11    1    6    6    0    0 -0.18479995416E+02  0.93098246921E+01 -0.27611029498E+02  0.34504376770E+02  0.00000000000E+00 0. -1.
        -12    1    6    6    0    0 -0.62829185892E+01  0.18368856766E+01  0.51587728637E+02  0.52001374605E+02  0.00000000000E+00 0.  1.
</event>
<event>
12    1  0.2576962E-002  0.3506720E+03  0.7818608E-02  0.1062340E+00
         -2   -1    0    0    0  501 -0.00000000000E+00  0.00000000000E+00  0.21868426849E+03  0.21868426849E+03  0.00000000000E+00 0. -1.
          2   -1    0    0  502    0  0.00000000000E+00 -0.00000000000E+00 -0.66355964628E+03  0.66355964628E+03  0.00000000000E+00 0.  1.
          6    2    1    2  502    0  0.42377663338E+02  0.30187974382E+03 -0.50819672819E+02  0.35558420126E+03  0.17586994899E+03 0.  0.
         24    2    3    3    0    0  0.38222720074E+02  0.28463872039E+03 -0.88758008126E+02  0.31344249118E+03  0.88814603502E+02 0.  0.
         -6    2    1    2    0  501 -0.42377663338E+02 -0.30187974382E+03 -0.39405570497E+03  0.52665971351E+03  0.17077268266E+03 0.  0.
        -24    2    5    5    0    0 -0.10646447712E+02 -0.48716316671E+02 -0.92572674827E+02  0.13167528553E+03  0.79259411648E+02 0.  0.
          5    1    3    3  502    0  0.41549432634E+01  0.17241023432E+02  0.37938335307E+02  0.42141710079E+02  0.47000000000E+01 0. -1.
        -11    1    4    4    0    0  0.49281135040E+02  0.27117112274E+03 -0.99440160497E+02  0.29300299248E+03  0.00000000000E+00 0.  1.
         12    1    4    4    0    0 -0.11058414966E+02  0.13467597644E+02  0.10682152371E+02  0.20439498700E+02  0.00000000000E+00 0. -1.
         -5    1    5    5    0  501 -0.31731215626E+02 -0.25316342715E+03 -0.30148303014E+03  0.39498442799E+03  0.47000000000E+01 0.  1.
         13    1    6    6    0    0 -0.38305325315E+02 -0.52429783386E+02 -0.72328804938E+02  0.97198951420E+02  0.00000000000E+00 0. -1.
        -14    1    6    6    0    0  0.27658877603E+02  0.37134667143E+01 -0.20243869889E+02  0.34476334106E+02  0.00000000000E+00 0.  1.
</event>
<event>
12    1  0.2576962E-002  0.1722846E+03  0.7818608E-02  0.1175486E+00
          2   -1    0    0  502    0  0.00000000000E+00  0.00000000000E+00  0.31719581954E+03  0.31719581954E+03  0.00000000000E+00 0.  1.
         -2   -1    0    0    0  501 -0.00000000000E+00 -0.00000000000E+00 -0.93589173681E+02  0.93589173681E+02  0.00000000000E+00 0. -1.
          6    2    1    2  502    0  0.29418410365E+01 -0.91720293152E+01  0.10982697715E+03  0.20477429836E+03  0.17256235920E+03 0.  0.
         24    2    3    3    0    0 -0.29981033442E+02 -0.94829010712E+01  0.13619955139E+03  0.16232886307E+03  0.82532140464E+02 0.  0.
         -6    2    1    2    0  501 -0.29418410365E+01  0.91720293152E+01  0.11377966871E+03  0.20601069485E+03  0.17146956824E+03 0.  0.
        -24    2    5    5    0    0  0.50451125996E+02 -0.71792415385E+01  0.18340571101E+02  0.95336016902E+02  0.78458409028E+02 0.  0.
          5    1    3    3  502    0  0.32922874479E+02  0.31087175593E+00 -0.26372574239E+02  0.42445435293E+02  0.47000000000E+01 0. -1.
        -13    1    4    4    0    0  0.12685075191E+02  0.27417643866E+02  0.33152288047E+02  0.44852118462E+02  0.00000000000E+00 0.  1.
         14    1    4    4    0    0 -0.42666108633E+02 -0.36900544937E+02  0.10304726334E+03  0.11747674461E+03  0.00000000000E+00 0. -1.
         -5    1    5    5    0  501 -0.53392967032E+02  0.16351270854E+02  0.95439097608E+02  0.11067467795E+03  0.47000000000E+01 0.  1.
         11    1    6    6    0    0  0.39583060218E+02  0.32730126304E+02  0.38414430084E+01  0.51505693943E+02  0.00000000000E+00 0. -1.
        -12    1    6    6    0    0  0.10868065777E+02 -0.39909367842E+02  0.14499128092E+02  0.43830322960E+02  0.00000000000E+00 0.  1.
</event>
<event>
12    1  0.2576962E-002  0.2214322E+03  0.7818608E-02  0.1132820E+00
         -2   -1    0    0    0  501 -0.00000000000E+00  0.00000000000E+00  0.22730188470E+03  0.22730188470E+03  0.00000000000E+00 0. -1.
          2   -1    0    0  502    0  0.00000000000E+00 -0.00000000000E+00 -0.31456352305E+03  0.31456352305E+03  0.00000000000E+00 0.  1.
          6    2    1    2  502    0  0.66187182863E+02  0.12327265864E+03 -0.19552533859E+03  0.29549473819E+03  0.17178501310E+03 0.  0.
         24    2    3    3    0    0  0.10812048887E+03  0.11233612384E+03 -0.13696571255E+03  0.22249247968E+03  0.80211297610E+02 0.  0.
         -6    2    1    2    0  501 -0.66187182863E+02 -0.12327265864E+03  0.10826370024E+03  0.24637066956E+03  0.17146599222E+03 0.  0.
        -24    2    5    5    0    0  0.56991712353E+01 -0.25853816035E+02  0.22976935341E+02  0.98201843328E+02  0.91732012510E+02 0.  0.
          5    1    3    3  502    0 -0.41933306010E+02  0.10936534797E+02 -0.58559626037E+02  0.73002258512E+02  0.47000000000E+01 0. -1.
        -11    1    4    4    0    0  0.68033732374E+02  0.60944062178E+02 -0.12718581348E+03  0.15658543548E+03  0.00000000000E+00 0.  1.
         12    1    4    4    0    0  0.40086756499E+02  0.51392061667E+02 -0.97798990774E+01  0.65907044198E+02  0.00000000000E+00 0. -1.
         -5    1    5    5    0  501 -0.71886354098E+02 -0.97418842606E+02  0.85286764900E+02  0.14816882623E+03  0.47000000000E+01 0.  1.
         13    1    6    6    0    0 -0.13410658471E+02  0.30283810467E+02  0.20287304315E+02  0.38839794713E+02  0.00000000000E+00 0. -1.
        -14    1    6    6    0    0  0.19109829707E+02 -0.56137626502E+02  0.26896310266E+01  0.59362048615E+02  0.00000000000E+00 0.  1.
</event>
<event>
12    1  0.2576962E-002  0.1971950E+03  0.7818608E-02  0.1152127E+00
          2   -1    0    0  502    0  0.00000000000E+00  0.00000000000E+00  0.10397371235E+04  0.10397371235E+04  0.00000000000E+00 0. -1.
         -2   -1    0    0    0  501 -0.00000000000E+00 -0.00000000000E+00 -0.37535113490E+02  0.37535113490E+02  0.00000000000E+00 0.  1.
          6    2    1    2  502    0  0.49981193933E+02  0.82843142777E+02  0.53401418471E+03  0.56933792468E+03  0.17208549315E+03 0.  0.
         24    2    3    3    0    0  0.73699042860E+01 -0.22272834533E+01  0.37784008512E+03  0.38640313081E+03  0.80529331908E+02 0.  0.
         -6    2    1    2    0  501 -0.49981193933E+02 -0.82843142777E+02  0.46818782529E+03  0.50793431230E+03  0.17157016002E+03 0.  0.
        -24    2    5    5    0    0 -0.85465086741E+02 -0.28305015376E+02  0.20229446410E+03  0.23415541700E+03  0.76159399657E+02 0.  0.
          5    1    3    3  502    0  0.42611289647E+02  0.85070426231E+02  0.15617409960E+03  0.18293479387E+03  0.47000000000E+01 0. -1.
        -13    1    4    4    0    0 -0.33448180917E+02 -0.70035541226E+01  0.10334353367E+03  0.10884721645E+03  0.00000000000E+00 0.  1.
         14    1    4    4    0    0  0.40818085203E+02  0.47762706693E+01  0.27449655145E+03  0.27755591436E+03  0.00000000000E+00 0. -1.
         -5    1    5    5    0  501  0.35483892808E+02 -0.54538127401E+02  0.26589336119E+03  0.27377889530E+03  0.47000000000E+01 0.  1.
         11    1    6    6    0    0 -0.60200879492E+02 -0.14432998956E+02  0.19476368483E+03  0.20436572677E+03  0.00000000000E+00 0. -1.
        -12    1    6    6    0    0 -0.25264207249E+02 -0.13872016420E+02  0.75307792760E+01  0.29789690230E+02  0.00000000000E+00 0.  1.
</event>
<event>
12    1  0.2576962E-002  0.1786778E+03  0.7818608E-02  0.1169089E+00
          2   -1    0    0  502    0  0.00000000000E+00  0.00000000000E+00  0.72751275903E+02  0.72751275903E+02  0.00000000000E+00 0.  1.
         -2   -1    0    0    0  501 -0.00000000000E+00 -0.00000000000E+00 -0.48899102581E+03  0.48899102581E+03  0.00000000000E+00 0. -1.
          6    2    1    2  502    0 -0.45291295521E+02  0.88526991992E+01 -0.11910832030E+03  0.21548255312E+03  0.17354039011E+03 0.  0.
         24    2    3    3    0    0 -0.85332185544E+01 -0.29249542541E+02  0.54496260822E+00  0.84555339908E+02  0.78873043335E+02 0.  0.
         -6    2    1    2    0  501  0.45291295521E+02 -0.88526991992E+01 -0.29713142961E+03  0.34625974860E+03  0.17169465718E+03 0.  0.
        -24    2    5    5    0    0  0.94097941889E+02 -0.12917702919E+02 -0.24490121107E+03  0.27450531519E+03  0.79719979731E+02 0.  0.
          5    1    3    3  502    0 -0.36758076966E+02  0.38102241741E+02 -0.11965328291E+03  0.13092721321E+03  0.47000000000E+01 0. -1.
        -13    1    4    4    0    0  0.19967937509E+02 -0.23337479147E+02 -0.29596496707E+02  0.42653359523E+02  0.00000000000E+00 0.  1.
         14    1    4    4    0    0 -0.28501156063E+02 -0.59120633949E+01  0.30141459315E+02  0.41901980385E+02  0.00000000000E+00 0. -1.
         -5    1    5    5    0  501 -0.48806646368E+02  0.40650037195E+01 -0.52230218532E+02  0.71754433402E+02  0.47000000000E+01 0.  1.
         13    1    6    6    0    0  0.31992142836E+02 -0.13880103795E+02 -0.18484609625E+03  0.18810697431E+03  0.00000000000E+00 0. -1.
        -14    1    6    6    0    0  0.62105799053E+02  0.96240087587E+00 -0.60055114825E+02  0.86398340887E+02  0.00000000000E+00 0.  1.
</event>
<event>
12    1  0.2576962E-002  0.2161171E+03  0.7818608E-02  0.1136811E+00
          2   -1    0    0  502    0  0.00000000000E+00  0.00000000000E+00  0.25689892688E+03  0.25689892688E+03  0.00000000000E+00 0.  1.
         -2   -1    0    0    0  501 -0.00000000000E+00 -0.00000000000E+00 -0.33165137344E+03  0.33165137344E+03  0.00000000000E+00 0. -1.
          6    2    1    2  502    0 -0.59495554360E+02 -0.11325215978E+03 -0.23533763821E+03  0.32075272558E+03  0.17644470615E+03 0.  0.
         24    2    3    3    0    0 -0.52169201443E+02 -0.79461736098E+02 -0.45275962480E+02  0.12751453381E+03  0.71932263074E+02 0.  0.
         -6    2    1    2    0  501  0.59495554360E+02  0.11325215978E+03  0.16058519165E+03  0.26779757474E+03  0.17193651321E+03 0.  0.
        -24    2    5    5    0    0 -0.11495139059E+01  0.13370401355E+02  0.31482154184E+02  0.93602642969E+02  0.87121981865E+02 0.  0.
          5    1    3    3  502    0 -0.73263529173E+01 -0.33790423682E+02 -0.19006167573E+03  0.19323819177E+03  0.47000000000E+01 0. -1.
        -11    1    4    4    0    0 -0.39756046368E+02 -0.48435366785E+02 -0.63700270907E+02  0.89354644491E+02  0.00000000000E+00 0.  1.
         12    1    4    4    0    0 -0.12413155075E+02 -0.31026369313E+02  0.18424308428E+02  0.38159889318E+02  0.00000000000E+00 0. -1.
         -5    1    5    5    0  501  0.60645068266E+02  0.99881758425E+02  0.12910303746E+03  0.17419493177E+03  0.47000000000E+01 0.  1.
         13    1    6    6    0    0  0.41658772352E+02  0.17375925571E+02  0.17039405344E+02  0.48246424094E+02  0.00000000000E+00 0. -1.
        -14    1    6    6    0    0 -0.42808286258E+02 -0.40055242158E+01  0.14442748840E+02  0.45356218875E+02  0.00000000000E+00 0.  1.
</event>
<event>
12    1  0.2576962E-002  0.2027114E+03  0.7818608E-02  0.1147471E+00
          2   -1    0    0  502    0  0.00000000000E+00  0.00000000000E+00  0.77270268476E+03  0.77270268476E+03  0.00000000000E+00 0.  1.
         -2   -1    0    0    0  501 -0.00000000000E+00 -0.00000000000E+00 -0.59518487962E+02  0.59518487962E+02  0.00000000000E+00 0. -1.
          6    2    1    2  502    0 -0.98675154885E+02  0.43589787731E+02  0.22148910943E+03  0.30054662345E+03  0.17214526275E+03 0.  0.
         24    2    3    3    0    0 -0.17262093831E+02  0.61292107398E+02  0.18079107418E+03  0.20770332157E+03  0.80003468505E+02 0.  0.
         -6    2    1    2    0  501  0.98675154885E+02 -0.43589787731E+02  0.49169508737E+03  0.53167454927E+03  0.17110497250E+03 0.  0.
        -24    2    5    5    0    0  0.64748010364E+02  0.37085705841E+02  0.32929195097E+03  0.34713063820E+03  0.80615361966E+02 0.  0.
          5    1    3    3  502    0 -0.81413061054E+02 -0.17702319667E+02  0.40698035245E+02  0.92843301883E+02  0.47000000000E+01 0. -1.
        -13    1    4    4    0    0  0.24599375011E+02  0.13611048456E+01  0.76298833541E+02  0.80177888829E+02  0.00000000000E+00 0.  1.
         14    1    4    4    0    0 -0.41861468842E+02  0.59931002553E+02  0.10449224064E+03  0.12752543274E+03  0.00000000000E+00 0. -1.
         -5    1    5    5    0  501  0.33927144521E+02 -0.80675493573E+02  0.16240313641E+03  0.18454391107E+03  0.47000000000E+01 0.  1.
         11    1    6    6    0    0  0.64889840411E+02  0.47159621292E+02  0.17498776843E+03  0.19249789705E+03  0.00000000000E+00 0. -1.
        -12    1    6    6    0    0 -0.14183004682E+00 -0.10073915450E+02  0.15430418254E+03  0.15463274115E+03  0.00000000000E+00 0.  1.
</event>
<event>
12    1  0.2576962E-002  0.2242449E+03  0.7818608E-02  0.1130757E+00
          2   -1    0    0  502    0  0.00000000000E+00  0.00000000000E+00  0.37028685710E+03  0.37028685710E+03  0.00000000000E+00 0. -1.
         -2   -1    0    0    0  501 -0.00000000000E+00 -0.00000000000E+00 -0.16015156051E+03  0.16015156051E+03  0.00000000000E+00 0.  1.
          6    2    1    2  502    0  0.14450353256E+03 -0.36311492652E+01  0.14758771692E+01  0.22380148424E+03  0.17085218748E+03 0.  0.
         24    2    3    3    0    0  0.59953951445E+02  0.50665570276E+02 -0.29490334812E+02  0.11855053791E+03  0.83803782047E+02 0.  0.
         -6    2    1    2    0  501 -0.14450353256E+03  0.36311492652E+01  0.20865941942E+03  0.30663693337E+03  0.17202615912E+03 0.  0.
        -24    2    5    5    0    0 -0.48755672663E+01  0.18571456657E+02  0.96598907558E+02  0.12691818143E+03  0.80051269059E+02 0.  0.
          5    1    3    3  502    0  0.84549581119E+02 -0.54296719542E+02  0.30966211981E+02  0.10525094634E+03  0.47000000000E+01 0. -1.
        -13    1    4    4    0    0  0.71578390165E+02  0.13517617432E+02 -0.60065952338E+01  0.73090841465E+02  0.00000000000E+00 0.  1.
         14    1    4    4    0    0 -0.11624438720E+02  0.37147952845E+02 -0.23483739578E+02  0.45459696443E+02  0.00000000000E+00 0. -1.
         -5    1    5    5    0  501 -0.13962796530E+03 -0.14940307392E+02  0.11206051186E+03  0.17971875194E+03  0.47000000000E+01 0.  1.
         11    1    6    6    0    0 -0.38442426019E+02  0.27857547309E+02  0.57074388526E+02  0.74238459614E+02  0.00000000000E+00 0. -1.
        -12    1    6    6    0    0  0.33566858752E+02 -0.92860906518E+01  0.39524519032E+02  0.52679721818E+02  0.00000000000E+00 0.  1.
</event>
<event>
12    1  0.2576962E-002  0.1736454E+03  0.7818608E-02  0.1174099E+00
          1   -1    0    0  502    0  0.00000000000E+00  0.00000000000E+00  0.38726841486E+03  0.38726841486E+03  0.00000000000E+00 0.  1.
         -1   -1    0    0    0  501 -0.00000000000E+00 -0.00000000000E+00 -0.78311112757E+02  0.78311112757E+02  0.00000000000E+00 0. -1.
          6    2    1    2  502    0  0.16441332167E+02 -0.18975280240E+02  0.13688419280E+03  0.22117655248E+03  0.17190522524E+03 0.  0.
         24    2    3    3    0    0 -0.13077491312E+02  0.52234348606E+02  0.75654349809E+02  0.12262019372E+03  0.80079231449E+02 0.  0.
         -6    2    1    2    0  501 -0.16441332167E+02  0.18975280240E+02  0.17207310930E+03  0.24440297513E+03  0.17173607846E+03 0.  0.
        -24    2    5    5    0    0 -0.68335822715E+02  0.18511450638E+02  0.63606609595E+02  0.12406875371E+03  0.79591434162E+02 0.  0.
          5    1    3    3  502    0  0.29518823479E+02 -0.71209628846E+02  0.61229842992E+02  0.98556358764E+02  0.47000000000E+01 0. -1.
        -11    1    4    4    0    0  0.23399940393E+02  0.30055446692E+02  0.69817498654E+02  0.79532196025E+02  0.00000000000E+00 0.  1.
         12    1    4    4    0    0 -0.36477431705E+02  0.22178901914E+02  0.58368511543E+01  0.43087997694E+02  0.00000000000E+00 0. -1.
         -5    1    5    5    0  501  0.51894490547E+02  0.46382960261E+00  0.10846649971E+03  0.12033422143E+03  0.47000000000E+01 0.  1.
         11    1    6    6    0    0 -0.61012122352E+02  0.21029614671E+02  0.81860774902E+02  0.10423967687E+03  0.00000000000E+00 0. -1.
        -12    1    6    6    0    0 -0.73237003625E+01 -0.25181640332E+01 -0.18254165307E+02  0.19829076836E+02  0.00000000000E+00 0.  1.
</event>
<event>
12    1  0.2576962E-002  0.2475756E+03  0.7818608E-02  0.1114847E+00
          2   -1    0    0  502    0  0.00000000000E+00  0.00000000000E+00  0.34771918793E+04  0.34771918793E+04  0.00000000000E+00 0.  1.
         -2   -1    0    0    0  501 -0.00000000000E+00 -0.00000000000E+00 -0.39079522820E+02  0.39079522820E+02  0.00000000000E+00 0. -1.
          6    2    1    2  502    0 -0.16072102483E+03  0.79299824160E+02  0.30182375840E+04  0.30282858435E+04  0.16922566713E+03 0.  0.
         24    2    3    3    0    0 -0.10329934901E+03  0.11119430635E+03  0.25020610262E+04  0.25079255494E+04  0.79663374036E+02 0.  0.
         -6    2    1    2    0  501  0.16072102483E+03 -0.79299824160E+02  0.41987477244E+03  0.48798555860E+03  0.17238146924E+03 0.  0.
        -24    2    5    5    0    0  0.20715262963E+02  0.17908536067E+01  0.99620328870E+02  0.12915090308E+03  0.79519913017E+02 0.  0.
          5    1    3    3  502    0 -0.57421675816E+02 -0.31894482187E+02  0.51617655785E+03  0.52036029414E+03  0.47000000000E+01 0. -1.
        -11    1    4    4    0    0 -0.63031870474E+02  0.12127422815E+02  0.86971724517E+03  0.87208266674E+03  0.00000000000E+00 0.  1.
         12    1    4    4    0    0 -0.40267478537E+02  0.99066883533E+02  0.16323437810E+04  0.16358428826E+04  0.00000000000E+00 0. -1.
         -5    1    5    5    0  501  0.14000576186E+03 -0.81090677767E+02  0.32025444357E+03  0.35883465552E+03  0.47000000000E+01 0.  1.
         11    1    6    6    0    0  0.43684236806E+02  0.30661179851E+01  0.96454043303E+02  0.10592967523E+03  0.00000000000E+00 0. -1.
        -12    1    6    6    0    0 -0.22968973843E+02 -0.12752643784E+01  0.31662855674E+01  0.23221227852E+02  0.00000000000E+00 0.  1.
</event>
<event>
12    1  0.2576962E-002  0.2780798E+03  0.7818608E-02  0.1096742E+00
          4   -1    0    0  502    0  0.00000000000E+00  0.00000000000E+00  0.43351969250E+03  0.43351969250E+03  0.00000000000E+00 0.  1.
         -4   -1    0    0    0  501 -0.00000000000E+00 -0.00000000000E+00 -0.26627072027E+03  0.26627072027E+03  0.00000000000E+00 0. -1.
          6    2    1    2  502    0  0.31794146333E+02  0.21630525437E+03 -0.11746399916E+03  0.30160918890E+03  0.17138109850E+03 0.  0.
         24    2    3    3    0    0  0.38252235340E+02  0.12409420901E+03  0.66783820477E+00  0.15153652384E+03  0.78104198557E+02 0.  0.
         -6    2    1    2    0  501 -0.31794146333E+02 -0.21630525437E+03  0.28471297138E+03  0.39818122387E+03  0.17230200278E+03 0.  0.
        -24    2    5    5    0    0 -0.25157298557E+02 -0.12465755945E+03  0.70475275017E+02  0.16502199014E+03  0.78058286181E+02 0.  0.
          5    1    3    3  502    0 -0.64580890070E+01  0.92211045358E+02 -0.11813183736E+03  0.15007266506E+03  0.47000000000E+01 0. -1.
        -11    1    4    4    0    0  0.56716988995E+02  0.57015891743E+02 -0.10389886917E+02  0.81089940819E+02  0.00000000000E+00 0.  1.
         12    1    4    4    0    0 -0.18464753655E+02  0.67078317266E+02  0.11057725122E+02  0.70446583024E+02  0.00000000000E+00 0. -1.
         -5    1    5    5    0  501 -0.66368477755E+01 -0.91647694918E+02  0.21423769636E+03  0.23315923373E+03  0.47000000000E+01 0.  1.
         13    1    6    6    0    0  0.15676340296E+02  0.44508961013E+00  0.16560631643E+02  0.22807899296E+02  0.00000000000E+00 0. -1.
        -14    1    6    6    0    0 -0.40833638854E+02 -0.12510264906E+03  0.53914643374E+02  0.14221409084E+03  0.00000000000E+00 0.  1.
</event>
<event>
12    1  0.2576962E-002  0.2874633E+03  0.7818608E-02  0.1091681E+00
         -2   -1    0    0    0  501 -0.00000000000E+00  0.00000000000E+00  0.27166293994E+02  0.27166293994E+02  0.00000000000E+00 0. -1.
          2   -1    0    0  502    0  0.00000000000E+00 -0.00000000000E+00 -0.31244802965E+04  0.31244802965E+04  0.00000000000E+00 0.  1.
          6    2    1    2  502    0 -0.20904121357E+03 -0.96171947824E+02 -0.12901578945E+04  0.13217037627E+04  0.17159886683E+03 0.  0.
         24    2    3    3    0    0 -0.19868081014E+03 -0.10118066376E+03 -0.85212857442E+03  0.88349810273E+03  0.68805516725E+02 0.  0.
         -6    2    1    2    0  501  0.20904121357E+03  0.96171947824E+02 -0.18071561080E+04  0.18299428278E+04  0.17300370440E+03 0.  0.
        -24    2    5    5    0    0  0.10425764776E+03  0.12000859305E+03 -0.12069060214E+04  0.12201313506E+04  0.82623534967E+02 0.  0.
          5    1    3    3  502    0 -0.10360403432E+02  0.50087159393E+01 -0.43802932009E+03  0.43820565999E+03  0.47000000000E+01 0. -1.
        -11    1    4    4    0    0 -0.12666393164E+02 -0.20689890759E+02 -0.17538773819E+03  0.17705752682E+03  0.00000000000E+00 0.  1.
         12    1    4    4    0    0 -0.18601441698E+03 -0.80490773005E+02 -0.67674083623E+03  0.70644057591E+03  0.00000000000E+00 0. -1.
         -5    1    5    5    0  501  0.10478356582E+03 -0.23836645229E+02 -0.60025008657E+03  0.60981147722E+03  0.47000000000E+01 0.  1.
         13    1    6    6    0    0  0.42732253215E+02  0.39763699641E+02 -0.20538135823E+03  0.21351510388E+03  0.00000000000E+00 0. -1.
        -14    1    6    6    0    0  0.61525394541E+02  0.80244893412E+02 -0.10015246632E+04  0.10066162467E+04  0.00000000000E+00 0.  1.
</event>
<event>
12    1  0.2576962E-002  0.1758677E+03  0.7818608E-02  0.1171863E+00
          2   -1    0    0  502    0  0.00000000000E+00  0.00000000000E+00  0.14328589563E+04  0.14328589563E+04  0.00000000000E+00 0.  1.
         -2   -1    0    0    0  501 -0.00000000000E+00 -0.00000000000E+00 -0.21593443325E+02  0.21593443325E+02  0.00000000000E+00 0. -1.
          6    2    1    2  502    0  0.10081277258E+02 -0.22719032836E+01  0.70140342829E+03  0.72355764224E+03  0.17737558664E+03 0.  0.
         24    2    3    3    0    0 -0.58189080815E+02  0.28296728209E+02  0.40770620786E+03  0.42044804109E+03  0.79784267725E+02 0.  0.
         -6    2    1    2    0  501 -0.10081277258E+02  0.22719032836E+01  0.70986208466E+03  0.73089475735E+03  0.17377046181E+03 0.  0.
        -24    2    5    5    0    0 -0.57431469188E+02 -0.11130477234E+02  0.62659301879E+03  0.63405730690E+03  0.77379558427E+02 0.  0.
          5    1    3    3  502    0  0.68270358073E+02 -0.30568631492E+02  0.29369722043E+03  0.30310960115E+03  0.47000000000E+01 0. -1.
        -13    1    4    4    0    0 -0.20299428518E+02  0.49847153380E+02  0.28950677227E+03  0.29446727609E+03  0.00000000000E+00 0.  1.
         14    1    4    4    0    0 -0.37889652297E+02 -0.21550425171E+02  0.11819943559E+03  0.12598076500E+03  0.00000000000E+00 0. -1.
         -5    1    5    5    0  501  0.47350191930E+02  0.13402380518E+02  0.83269065862E+02  0.96837450446E+02  0.47000000000E+01 0.  1.
         11    1    6    6    0    0  0.66756122211E+01  0.21839771107E+02  0.21387632621E+03  0.21509212517E+03  0.00000000000E+00 0. -1.
        -12    1    6    6    0    0 -0.64107081409E+02 -0.32970248342E+02  0.41271669259E+03  0.41896518173E+03  0.00000000000E+00 0.  1.
</event>
<event>
12    1  0.2576962E-002  0.2072008E+03  0.7818608E-02  0.1143802E+00
          2   -1    0    0  502    0  0.00000000000E+00  0.00000000000E+00  0.29955597822E+03  0.29955597822E+03  0.00000000000E+00 0.  1.
         -2   -1    0    0    0  501 -0.00000000000E+00 -0.00000000000E+00 -0.14388876791E+03  0.14388876791E+03  0.00000000000E+00 0. -1.
          6    2    1    2  502    0 -0.54555072993E+02 -0.98778697088E+02  0.63524238604E+02  0.21567488469E+03  0.17247272250E+03 0.  0.
         24    2    3    3    0    0 -0.53367403006E+02 -0.47724912063E+02  0.10472097482E+03  0.14989372781E+03  0.79849233781E+02 0.  0.
         -6    2    1    2    0  501  0.54555072993E+02  0.98778697088E+02  0.92142971707E+02  0.22776986144E+03  0.17508653734E+03 0.  0.
        -24    2    5    5    0    0  0.15108780405E+02  0.10195183176E+03  0.21755836941E+01  0.12937118417E+03  0.78164690788E+02 0.  0.
          5    1    3    3  502    0 -0.11876699869E+01 -0.51053785024E+02 -0.41196736214E+02  0.65781156876E+02  0.47000000000E+01 0. -1.
        -11    1    4    4    0    0 -0.38073673476E+02 -0.22093558085E+02  0.32674001501E+01  0.44140750158E+02  0.00000000000E+00 0.  1.
         12    1    4    4    0    0 -0.15293729530E+02 -0.25631353979E+02  0.10145357467E+03  0.10575297765E+03  0.00000000000E+00 0. -1.
         -5    1    5    5    0  501  0.39446292588E+02 -0.31731346678E+01  0.89967388013E+02  0.98398677270E+02  0.47000000000E+01 0.  1.
         13    1    6    6    0    0 -0.30927788481E+02  0.26686948992E+02  0.46127529747E+01  0.41109595435E+02  0.00000000000E+00 0. -1.
        -14    1    6    6    0    0  0.46036568886E+02  0.75264882763E+02 -0.24371692806E+01  0.88261588736E+02  0.00000000000E+00 0.  1.
</event>
<event>
12    1  0.2576962E-002  0.1895063E+03  0.7818608E-02  0.1158907E+00
          1   -1    0    0  502    0  0.00000000000E+00  0.00000000000E+00  0.25692643384E+03  0.25692643384E+03  0.00000000000E+00 0. -1.
         -1   -1    0    0    0  501 -0.00000000000E+00 -0.00000000000E+00 -0.16071164904E+03  0.16071164904E+03  0.00000000000E+00 0.  1.
          6    2    1    2  502    0 -0.16324802865E+02 -0.76317219421E+02 -0.27323424162E+02  0.19116815451E+03  0.17235973028E+03 0.  0.
         24    2    3    3    0    0  0.44609527390E+02 -0.78986095511E+02 -0.40420192421E+02  0.12860833640E+03  0.81715965509E+02 0.  0.
         -6    2    1    2    0  501  0.16324802865E+02  0.76317219421E+02  0.12353820897E+03  0.22646992837E+03  0.17302058320E+03 0.  0.
        -24    2    5    5    0    0  0.20771640438E+02  0.69787361409E+02  0.61269794790E+01  0.10869938783E+03  0.80475338940E+02 0.  0.
          5    1    3    3  502    0 -0.60934330255E+02  0.26688760906E+01  0.13096768259E+02  0.62559818110E+02  0.47000000000E+01 0. -1.
        -13    1    4    4    0    0 -0.22200319521E+02 -0.37105640809E+02 -0.14184242693E+02  0.45506873189E+02  0.00000000000E+00 0.  1.
         14    1    4    4    0    0  0.66809846911E+02 -0.41880454703E+02 -0.26235949728E+02  0.83101463215E+02  0.00000000000E+00 0. -1.
         -5    1    5    5    0  501 -0.44468375728E+01  0.65298580121E+01  0.11741122949E+03  0.11777054054E+03  0.47000000000E+01 0.  1.
         13    1    6    6    0    0  0.13992045488E+02  0.87305453604E+02  0.11493944985E+02  0.89163503393E+02  0.00000000000E+00 0. -1.
        -14    1    6    6    0    0  0.67795949497E+01 -0.17518092196E+02 -0.53669655060E+01  0.19535884434E+02  0.00000000000E+00 0.  1.
</event>
<event>
12    1  0.2576962E-002  0.1782837E+03  0.7818608E-02  0.1169475E+00
         -1   -1    0    0    0  501 -0.00000000000E+00  0.00000000000E+00  0.44066106466E+02  0.44066106466E+02  0.00000000000E+00 0.  1.
          1   -1    0    0  502    0  0.00000000000E+00 -0.00000000000E+00 -0.15418640037E+04  0.15418640037E+04  0.00000000000E+00 0. -1.
          6    2    1    2  502    0  0.30892023711E+02  0.33410377525E+02 -0.13278972940E+04  0.13398474502E+04  0.17265397753E+03 0.  0.
         24    2    3    3    0    0  0.25700743169E+02  0.85875584680E+02 -0.90898970722E+03  0.91760912459E+03  0.87801329485E+02 0.  0.
         -6    2    1    2    0  501 -0.30892023711E+02 -0.33410377525E+02 -0.16990060324E+03  0.24608265996E+03  0.17210430006E+03 0.  0.
        -24    2    5    5    0    0 -0.83690171534E+02 -0.41589258979E+02 -0.13103425125E+03  0.17984655325E+03  0.80256441751E+02 0.  0.
          5    1    3    3  502    0  0.51912805417E+01 -0.52465207155E+02 -0.41890758676E+03  0.42223832560E+03  0.47000000000E+01 0. -1.
        -13    1    4    4    0    0  0.52781441309E+00  0.41038813606E+02 -0.11770080883E+03  0.12465128643E+03  0.00000000000E+00 0.  1.
         14    1    4    4    0    0  0.25172928756E+02  0.44836771074E+02 -0.79128889839E+03  0.79295783816E+03  0.00000000000E+00 0. -1.
         -5    1    5    5    0  501  0.52798147823E+02  0.81788814546E+01 -0.38866351990E+02  0.66236106712E+02  0.47000000000E+01 0.  1.
         13    1    6    6    0    0 -0.40353858715E+02 -0.43490621844E+02 -0.12182246885E+03  0.13550122515E+03  0.00000000000E+00 0. -1.
        -14    1    6    6    0    0 -0.43336312818E+02  0.19013628645E+01 -0.92117824032E+01  0.44345328102E+02  0.00000000000E+00 0.  1.
</event>
<event>
12    1  0.2576962E-002  0.3301962E+03  0.7818608E-02  0.1071050E+00
          2   -1    0    0  502    0  0.00000000000E+00  0.00000000000E+00  0.79627128646E+03  0.79627128646E+03  0.00000000000E+00 0. -1.
         -2   -1    0    0    0  501 -0.00000000000E+00 -0.00000000000E+00 -0.19568112487E+03  0.19568112487E+03  0.00000000000E+00 0.  1.
          6    2    1    2  502    0 -0.15354514124E+03 -0.23635615601E+03  0.57207746403E+03  0.66053595542E+03  0.17203133629E+03 0.  0.
         24    2    3    3    0    0 -0.16170735033E+03 -0.21146253906E+03  0.40334423488E+03  0.48971644119E+03  0.79183005661E+02 0.  0.
         -6    2    1    2    0  501  0.15354514124E+03  0.23635615601E+03  0.28512697559E+02  0.33141645592E+03  0.17199869316E+03 0.  0.
        -24    2    5    5    0    0  0.68136815746E+02  0.21910468397E+03  0.22951661110E+02  0.24397956166E+03  0.79685378592E+02 0.  0.
          5    1    3    3  502    0  0.81622090820E+01 -0.24893616951E+02  0.16873322914E+03  0.17081951422E+03  0.47000000000E+01 0. -1.
        -13    1    4    4    0    0 -0.13494714307E+02 -0.57583475349E+02  0.53267578952E+02  0.79595219171E+02  0.00000000000E+00 0.  1.
         14    1    4    4    0    0 -0.14821263602E+03 -0.15387906371E+03  0.35007665593E+03  0.41012122202E+03  0.00000000000E+00 0. -1.
         -5    1    5    5    0  501  0.85408325498E+02  0.17251472043E+02  0.55610364493E+01  0.87436894263E+02  0.47000000000E+01 0.  1.
         13    1    6    6    0    0 -0.18331762867E+02  0.39288270852E+02  0.51925321700E+01  0.43664449461E+02  0.00000000000E+00 0. -1.
        -14    1    6    6    0    0  0.86468578613E+02  0.17981641311E+03  0.17759128940E+02  0.20031511219E+03  0.00000000000E+00 0.  1.
</event>
<event>
12    1  0.2576962E-002  0.1765251E+03  0.7818608E-02  0.1171209E+00
          1   -1    0    0  502    0  0.00000000000E+00  0.00000000000E+00  0.11573222000E+03  0.11573222000E+03  0.00000000000E+00 0. -1.
         -1   -1    0    0    0  501 -0.00000000000E+00 -0.00000000000E+00 -0.30465831478E+03  0.30465831478E+03  0.00000000000E+00 0.  1.
          6    2    1    2  502    0 -0.35214854309E+02 -0.31802916631E+01 -0.22566967541E+02  0.17745547117E+03  0.17242672648E+03 0.  0.
         24    2    3    3    0    0 -0.67014471440E+02 -0.29185050423E+02  0.28407370975E+02  0.11182059999E+03  0.79712993325E+02 0.  0.
         -6    2    1    2    0  501  0.35214854309E+02  0.31802916631E+01 -0.16635912723E+03  0.24293506361E+03  0.17347012912E+03 0.  0.
        -24    2    5    5    0    0 -0.53873496111E+00  0.20279916621E+02  0.46276517352E+01  0.67352362577E+02  0.64057476773E+02 0.  0.
          5    1    3    3  502    0  0.31799617132E+02  0.26004758760E+02 -0.50974338517E+02  0.65634871182E+02  0.47000000000E+01 0. -1.
        -11    1    4    4    0    0 -0.24145842005E+02  0.96508032954E+01 -0.22787630836E+02  0.34575074975E+02  0.00000000000E+00 0.  1.
         12    1    4    4    0    0 -0.42868629435E+02 -0.38835853719E+02  0.51195001812E+02  0.77245525011E+02  0.00000000000E+00 0. -1.
         -5    1    5    5    0  501  0.35753589270E+02 -0.17099624958E+02 -0.17098677897E+03  0.17558270103E+03  0.47000000000E+01 0.  1.
         13    1    6    6    0    0 -0.18880684162E+02 -0.14311337930E+02  0.13413649624E+02  0.27225367289E+02  0.00000000000E+00 0. -1.
        -14    1    6    6    0    0  0.18341949201E+02  0.34591254551E+02 -0.87859978889E+01  0.40126995288E+02  0.00000000000E+00 0.  1.
</event>
<event>
12    1  0.2576962E-002  0.1763924E+03  0.7818608E-02  0.1171341E+00
         -3   -1    0    0    0  501 -0.00000000000E+00  0.00000000000E+00  0.13559337039E+04  0.13559337039E+04  0.00000000000E+00 0. -1.
          3   -1    0    0  502    0  0.00000000000E+00 -0.00000000000E+00 -0.25703432721E+02  0.25703432721E+02  0.00000000000E+00 0.  1.
          6    2    1    2  502    0  0.37486584775E+02  0.86998675869E+01  0.44107238125E+03  0.47527711457E+03  0.17280786557E+03 0.  0.
         24    2    3    3    0    0  0.24830032552E+02  0.44902627069E+02  0.12418055461E+03  0.15603841407E+03  0.79337255357E+02 0.  0.
         -6    2    1    2    0  501 -0.37486584775E+02 -0.86998675869E+01  0.88915788990E+03  0.90636002202E+03  0.17148120774E+03 0.  0.
        -24    2    5    5    0    0 -0.21629375097E+02  0.29493056991E+02  0.21579156482E+03  0.23170866884E+03  0.76060748701E+02 0.  0.
          5    1    3    3  502    0  0.12656552223E+02 -0.36202759482E+02  0.31689182664E+03  0.31923870051E+03  0.47000000000E+01 0. -1.
        -11    1    4    4    0    0 -0.24060038101E+02 -0.42341304124E+01  0.24258058242E+02  0.34427702268E+02  0.00000000000E+00 0.  1.
         12    1    4    4    0    0  0.48890070653E+02  0.49136757482E+02  0.99922496366E+02  0.12161071180E+03  0.00000000000E+00 0. -1.
         -5    1    5    5    0  501 -0.15857209678E+02 -0.38192924578E+02  0.67336632508E+03  0.67465135318E+03  0.47000000000E+01 0.  1.
         11    1    6    6    0    0  0.13898608911E+02 -0.53959524718E+01  0.14143781996E+03  0.14222146304E+03  0.00000000000E+00 0. -1.
        -12    1    6    6    0    0 -0.35527984008E+02  0.34889009463E+02  0.74353744855E+02  0.89487205806E+02  0.00000000000E+00 0.  1.
</event>
<event>
12    1  0.2576962E-002  0.2208759E+03  0.7818608E-02  0.1133232E+00
          1   -1    0    0  502    0  0.00000000000E+00  0.00000000000E+00  0.11473118046E+04  0.11473118046E+04  0.00000000000E+00 0. -1.
         -1   -1    0    0    0  501 -0.00000000000E+00 -0.00000000000E+00 -0.43194309571E+02  0.43194309571E+02  0.00000000000E+00 0.  1.
          6    2    1    2  502    0 -0.98867054835E+02 -0.95968501592E+02  0.47698423725E+03  0.52550199410E+03  0.17220259982E+03 0.  0.
         24    2    3    3    0    0 -0.12913924774E+03 -0.50466266773E+02  0.40151912186E+03  0.43220712458E+03  0.79759663571E+02 0.  0.
         -6    2    1    2    0  501  0.98867054835E+02  0.95968501592E+02  0.62713325774E+03  0.66500412004E+03  0.17305984188E+03 0.  0.
        -24    2    5    5    0    0  0.16987609339E+02 -0.13845611848E+02  0.22819899810E+03  0.24318186290E+03  0.81131719251E+02 0.  0.
          5    1    3    3  502    0  0.30272192902E+02 -0.45502234819E+02  0.75465115392E+02  0.93294869515E+02  0.47000000000E+01 0. -1.
        -11    1    4    4    0    0 -0.16600527139E+02  0.12130074313E+02  0.16938124767E+02  0.26638623740E+02  0.00000000000E+00 0.  1.
         12    1    4    4    0    0 -0.11253872060E+03 -0.62596341086E+02  0.38458099709E+03  0.40556850084E+03  0.00000000000E+00 0. -1.
         -5    1    5    5    0  501  0.81879445496E+02  0.10981411344E+03  0.39893425964E+03  0.42182225714E+03  0.47000000000E+01 0.  1.
         11    1    6    6    0    0  0.19210625952E+02  0.14752009703E+02  0.20462550215E+03  0.20605403678E+03  0.00000000000E+00 0. -1.
        -12    1    6    6    0    0 -0.22230166124E+01 -0.28597621551E+02  0.23573495947E+02  0.37127826120E+02  0.00000000000E+00 0.  1.
</event>
<event>
12    1  0.2576962E-002  0.1995095E+03  0.7818608E-02  0.1150153E+00
         -2   -1    0    0    0  501 -0.00000000000E+00  0.00000000000E+00  0.33766504526E+02  0.33766504526E+02  0.00000000000E+00 0. -1.
          2   -1    0    0  502    0  0.00000000000E+00 -0.00000000000E+00 -0.11829860020E+04  0.11829860020E+04  0.00000000000E+00 0.  1.
          6    2    1    2  502    0 -0.98843614403E+02  0.22777674420E+02 -0.61094433314E+03  0.64271225395E+03  0.17186384328E+03 0.  0.
         24    2    3    3    0    0 -0.51819314837E+01 -0.33693833971E+02 -0.31607872201E+03  0.32818187269E+03  0.81458309564E+02 0.  0.
         -6    2    1    2    0  501  0.98843614403E+02 -0.22777674420E+02 -0.53827516437E+03  0.57404025261E+03  0.17173577518E+03 0.  0.
        -24    2    5    5    0    0  0.20490305314E+02  0.40366144953E+02 -0.33369082698E+03  0.34599809845E+03  0.79472245766E+02 0.  0.
          5    1    3    3  502    0 -0.93661682920E+02  0.56471508391E+02 -0.29486561113E+03  0.31453038126E+03  0.47000000000E+01 0. -1.
        -13    1    4    4    0    0 -0.37212904256E+02  0.34363729406E+01 -0.17112998250E+03  0.17516300926E+03  0.00000000000E+00 0.  1.
         14    1    4    4    0    0  0.32030972772E+02 -0.37130206912E+02 -0.14494873951E+03  0.15301886343E+03  0.00000000000E+00 0. -1.
         -5    1    5    5    0  501  0.78353309090E+02 -0.63143819373E+02 -0.20458433739E+03  0.22804215416E+03  0.47000000000E+01 0.  1.
         11    1    6    6    0    0  0.40625757877E+02  0.50332850818E+02 -0.28678846052E+03  0.29399229439E+03  0.00000000000E+00 0. -1.
        -12    1    6    6    0    0 -0.20135452563E+02 -0.99667058648E+01 -0.46902366464E+02  0.52005804057E+02  0.00000000000E+00 0.  1.
</event>
<event>
12    1  0.2576962E-002  0.3165953E+03  0.7818608E-02  0.1077227E+00
          1   -1    0    0  502    0  0.00000000000E+00  0.00000000000E+00  0.74712795548E+03  0.74712795548E+03  0.00000000000E+00 0. -1.
         -1   -1    0    0    0  501 -0.00000000000E+00 -0.00000000000E+00 -0.25746642502E+03  0.25746642502E+03  0.00000000000E+00 0.  1.
          6    2    1    2  502    0 -0.21728420385E+03 -0.15423706002E+03 -0.10331178280E+03  0.33177162704E+03  0.16851585123E+03 0.  0.
         24    2    3    3    0    0 -0.34319312682E+02 -0.40147009292E+02 -0.39939242722E+02  0.10698092458E+03  0.84024862614E+02 0.  0.
         -6    2    1    2    0  501  0.21728420385E+03  0.15423706002E+03  0.59297331326E+03  0.67282275347E+03  0.17341168191E+03 0.  0.
        -24    2    5    5    0    0  0.44468468931E+02  0.47132394116E+02  0.12006169572E+03  0.15803719064E+03  0.79762369213E+02 0.  0.
          5    1    3    3  502    0 -0.18296489116E+03 -0.11409005073E+03 -0.63372540078E+02  0.22479070245E+03  0.47000000000E+01 0. -1.
        -11    1    4    4    0    0 -0.60266937117E+02 -0.41540486941E+02 -0.31160333336E+02  0.79553014641E+02  0.00000000000E+00 0.  1.
         12    1    4    4    0    0  0.25947624435E+02  0.13934776494E+01 -0.87789093864E+01  0.27427909942E+02  0.00000000000E+00 0. -1.
         -5    1    5    5    0  501  0.17281573492E+03  0.10710466590E+03  0.47291161753E+03  0.51478556282E+03  0.47000000000E+01 0.  1.
         11    1    6    6    0    0  0.57792178849E+02  0.41354546828E+02  0.12406193609E+03  0.14297376845E+03  0.00000000000E+00 0. -1.
        -12    1    6    6    0    0 -0.13323709918E+02  0.57778472879E+01 -0.40002403613E+01  0.15063422195E+02  0.00000000000E+00 0.  1.
</event>
<event>
12    1  0.2576962E-002  0.2028217E+03  0.7818608E-02  0.1147380E+00
         -2   -1    0    0    0  501 -0.00000000000E+00  0.00000000000E+00  0.86163015256E+02  0.86163015256E+02  0.00000000000E+00 0. -1.
          2   -1    0    0  502    0  0.00000000000E+00 -0.00000000000E+00 -0.72351821523E+03  0.72351821523E+03  0.00000000000E+00 0.  1.
          6    2    1    2  502    0 -0.57177980944E+02 -0.92214901287E+02 -0.82814197511E+02  0.21929332370E+03  0.17163467303E+03 0.  0.
         24    2    3    3    0    0  0.19506940024E+01 -0.11248231205E+03 -0.43970513394E+02  0.14555127372E+03  0.81213862749E+02 0.  0.
         -6    2    1    2    0  501  0.57177980944E+02  0.92214901287E+02 -0.55454100247E+03  0.59038790679E+03  0.17108257521E+03 0.  0.
        -24    2    5    5    0    0 -0.34517532886E+02  0.69382905032E+02 -0.31067927421E+03  0.32881573736E+03  0.74784558069E+02 0.  0.
          5    1    3    3  502    0 -0.59128674947E+02  0.20267410762E+02 -0.38843684117E+02  0.73742049983E+02  0.47000000000E+01 0. -1.
        -13    1    4    4    0    0 -0.12451903087E+00 -0.58638512331E+02 -0.65151568733E+02  0.87653964781E+02  0.00000000000E+00 0.  1.
         14    1    4    4    0    0  0.20752130333E+01 -0.53843799718E+02  0.21181055339E+02  0.57897308940E+02  0.00000000000E+00 0. -1.
         -5    1    5    5    0  501  0.91695513830E+02  0.22831996255E+02 -0.24386172825E+03  0.26157216942E+03  0.47000000000E+01 0.  1.
         11    1    6    6    0    0 -0.28029995253E+02 -0.69317794454E+01 -0.11778187547E+03  0.12126953611E+03  0.00000000000E+00 0. -1.
        -12    1    6    6    0    0 -0.64875376331E+01  0.76314684477E+02 -0.19289739874E+03  0.20754620125E+03  0.00000000000E+00 0.  1.
</event>
<event>
12    1  0.2576962E-002  0.1891872E+03  0.7818608E-02  0.1159196E+00
         -2   -1    0    0    0  501 -0.00000000000E+00  0.00000000000E+00  0.75649202237E+03  0.75649202237E+03  0.00000000000E+00 0. -1.
          2   -1    0    0  502    0  0.00000000000E+00 -0.00000000000E+00 -0.49791365614E+02  0.49791365614E+02  0.00000000000E+00 0.  1.
          6    2    1    2  502    0 -0.27176638138E+02  0.71903073180E+02  0.44007934567E+03  0.47832954927E+03  0.17094064943E+03 0.  0.
         24    2    3    3    0    0 -0.89339797476E+02  0.16967675223E+02  0.25004339561E+03  0.27092195866E+03  0.51063750174E+02 0.  0.
         -6    2    1    2    0  501  0.27176638138E+02 -0.71903073180E+02  0.26662131108E+03  0.32795383871E+03  0.17480896775E+03 0.  0.
        -24    2    5    5    0    0  0.65347550001E+02 -0.52814379626E+01  0.97116870227E+02  0.14181059746E+03  0.79877175663E+02 0.  0.
          5    1    3    3  502    0  0.62163159338E+02  0.54935397956E+02  0.19003595006E+03  0.20740759061E+03  0.47000000000E+01 0. -1.
        -13    1    4    4    0    0 -0.79711125654E+02  0.28175806936E+02  0.23538837046E+03  0.25011082463E+03  0.00000000000E+00 0.  1.
         14    1    4    4    0    0 -0.96286718220E+01 -0.11208131713E+02  0.14655025150E+02  0.20811134032E+02  0.00000000000E+00 0. -1.
         -5    1    5    5    0  501 -0.38170911863E+02 -0.66621635217E+02  0.16950444085E+03  0.18614324124E+03  0.47000000000E+01 0.  1.
         13    1    6    6    0    0 -0.86569761372E+01  0.19760543743E+01  0.56278665510E+02  0.56974873570E+02  0.00000000000E+00 0. -1.
        -14    1    6    6    0    0  0.74004526138E+02 -0.72574923369E+01  0.40838204718E+02  0.84835723893E+02  0.00000000000E+00 0.  1.
</event>
<event>
12    1  0.2576962E-002  0.2000908E+03  0.7818608E-02  0.1149662E+00
         -2   -1    0    0    0  501 -0.00000000000E+00  0.00000000000E+00  0.60186402112E+03  0.60186402112E+03  0.00000000000E+00 0. -1.
          2   -1    0    0  502    0  0.00000000000E+00 -0.00000000000E+00 -0.81592308934E+02  0.81592308934E+02  0.00000000000E+00 0.  1.
          6    2    1    2  502    0  0.10274018560E+03 -0.27198519944E+01  0.40717597431E+03  0.45375352734E+03  0.17186345216E+03 0.  0.
         24    2    3    3    0    0  0.88601591093E+02 -0.60420523082E+02  0.33028967745E+03  0.35647629494E+03  0.80518297755E+02 0.  0.
         -6    2    1    2    0  501 -0.10274018560E+03  0.27198519944E+01  0.11309573788E+03  0.22970280271E+03  0.17149282293E+03 0.  0.
        -24    2    5    5    0    0 -0.98404837088E+02  0.24042584899E+02  0.20894343711E+02  0.13485217661E+03  0.86527325666E+02 0.  0.
          5    1    3    3  502    0  0.14138594506E+02  0.57700671087E+02  0.76886296863E+02  0.97277232403E+02  0.47000000000E+01 0. -1.
        -11    1    4    4    0    0 -0.83204644091E+01 -0.32054593171E+02  0.81816945815E+02  0.88265166934E+02  0.00000000000E+00 0.  1.
         12    1    4    4    0    0  0.96922055502E+02 -0.28365929910E+02  0.24847273163E+03  0.26821112801E+03  0.00000000000E+00 0. -1.
         -5    1    5    5    0  501 -0.43353485106E+01 -0.21322732904E+02  0.92201394171E+02  0.94850626103E+02  0.47000000000E+01 0.  1.
         11    1    6    6    0    0 -0.48263499228E+02 -0.30018200966E+01  0.51114081944E+02  0.70363525030E+02  0.00000000000E+00 0. -1.
        -12    1    6    6    0    0 -0.50141337860E+02  0.27044404995E+02 -0.30219738233E+02  0.64488651581E+02  0.00000000000E+00 0.  1.
</event>
<event>
12    1  0.2576962E-002  0.1801286E+03  0.7818608E-02  0.1167679E+00
         -2   -1    0    0    0  501 -0.00000000000E+00  0.00000000000E+00  0.92771939238E+02  0.92771939238E+02  0.00000000000E+00 0. -1.
          2   -1    0    0  502    0  0.00000000000E+00 -0.00000000000E+00 -0.34993751832E+03  0.34993751832E+03  0.00000000000E+00 0.  1.
          6    2    1    2  502    0 -0.42778745244E+02 -0.55425526321E+01 -0.13376936911E+03  0.22739531131E+03  0.17875581825E+03 0.  0.
         24    2    3    3    0    0 -0.61620155384E+01  0.12543078160E+02  0.72672474571E+01  0.80489585936E+02  0.78933271269E+02 0.  0.
         -6    2    1    2    0  501  0.42778745244E+02  0.55425526321E+01 -0.12339620998E+03  0.21531414625E+03  0.17109300396E+03 0.  0.
        -24    2    5    5    0    0  0.12146267560E+02 -0.14346186214E+01  0.77529976640E+01  0.80372550468E+02  0.79057244764E+02 0.  0.
          5    1    3    3  502    0 -0.36616729706E+02 -0.18085630792E+02 -0.14103661656E+03  0.14690572537E+03  0.47000000000E+01 0. -1.
        -13    1    4    4    0    0  0.12421749711E+02  0.25226268247E+02 -0.27335024835E+02  0.39215660881E+02  0.00000000000E+00 0.  1.
         14    1    4    4    0    0 -0.18583765249E+02 -0.12683190087E+02  0.34602272293E+02  0.41273925055E+02  0.00000000000E+00 0. -1.
         -5    1    5    5    0  501  0.30632477684E+02  0.69771712535E+01 -0.13114920764E+03  0.13494159578E+03  0.47000000000E+01 0.  1.
         11    1    6    6    0    0  0.13211298370E+02  0.36621428806E+02 -0.69761488296E+01  0.39551663744E+02  0.00000000000E+00 0. -1.
        -12    1    6    6    0    0 -0.10650308100E+01 -0.38056047428E+02  0.14729146494E+02  0.40820886723E+02  0.00000000000E+00 0.  1.
</event>
<event>
12    1  0.2576962E-002  0.1715331E+03  0.7818608E-02  0.1176258E+00
         -2   -1    0    0    0  501 -0.00000000000E+00  0.00000000000E+00  0.12710390872E+03  0.12710390872E+03  0.00000000000E+00 0.  1.
          2   -1    0    0  502    0  0.00000000000E+00 -0.00000000000E+00 -0.23526854030E+03  0.23526854030E+03  0.00000000000E+00 0. -1.
          6    2    1    2  502    0  0.28986624019E+01  0.30262399226E+01 -0.30899288674E+02  0.17352095686E+03  0.17069620985E+03 0.  0.
         24    2    3    3    0    0  0.35243603298E+02  0.57605202134E+02 -0.67745559897E+01  0.10548309208E+03  0.80748481218E+02 0.  0.
         -6    2    1    2    0  501 -0.28986624019E+01 -0.30262399226E+01 -0.77265342909E+02  0.18885149216E+03  0.17227127591E+03 0.  0.
        -24    2    5    5    0    0  0.44387318504E+02 -0.43062704357E+02 -0.17407100766E+02  0.10257298019E+03  0.79959855916E+02 0.  0.
          5    1    3    3  502    0 -0.32344940896E+02 -0.54578962211E+02 -0.24124732684E+02  0.68037864787E+02  0.47000000000E+01 0. -1.
        -13    1    4    4    0    0  0.32889388641E+02 -0.34232408910E+01 -0.25328783035E+02  0.41653063674E+02  0.00000000000E+00 0.  1.
         14    1    4    4    0    0  0.23542146569E+01  0.61028443025E+02  0.18554227046E+02  0.63830028403E+02  0.00000000000E+00 0. -1.
         -5    1    5    5    0  501 -0.47285980906E+02  0.40036464434E+02 -0.59858242143E+02  0.86278511966E+02  0.47000000000E+01 0.  1.
         13    1    6    6    0    0  0.78867139648E+00  0.12387537361E+01 -0.37285907269E+02  0.37314814675E+02  0.00000000000E+00 0. -1.
        -14    1    6    6    0    0  0.43598647108E+02 -0.44301458093E+02  0.19878806503E+02  0.65258165518E+02  0.00000000000E+00 0.  1.
</event>
<event>
12    1  0.2576962E-002  0.2152734E+03  0.7818608E-02  0.1137457E+00
          1   -1    0    0  502    0  0.00000000000E+00  0.00000000000E+00  0.63943237313E+02  0.63943237313E+02  0.00000000000E+00 0. -1.
         -1   -1    0    0    0  501 -0.00000000000E+00 -0.00000000000E+00 -0.74874291304E+03  0.74874291304E+03  0.00000000000E+00 0.  1.
          6    2    1    2  502    0 -0.12642522301E+03 -0.18208180474E+02 -0.41300007820E+03  0.46511123488E+03  0.17159405983E+03 0.  0.
         24    2    3    3    0    0 -0.64785528333E+02 -0.66058084799E+02 -0.16559748047E+03  0.20565179553E+03  0.79431103593E+02 0.  0.
         -6    2    1    2    0  501  0.12642522301E+03  0.18208180474E+02 -0.27179959753E+03  0.34757491548E+03  0.17498121557E+03 0.  0.
        -24    2    5    5    0    0  0.52584073644E+02 -0.53827838464E+02 -0.17142918115E+03  0.20356792312E+03  0.79933811234E+02 0.  0.
          5    1    3    3  502    0 -0.61639694675E+02  0.47849904325E+02 -0.24740259773E+03  0.25945943935E+03  0.47000000000E+01 0. -1.
        -11    1    4    4    0    0  0.12846922013E+02 -0.21156577068E+02 -0.71496529152E+02  0.75659750457E+02  0.00000000000E+00 0.  1.
         12    1    4    4    0    0 -0.77632450345E+02 -0.44901507731E+02 -0.94100951315E+02  0.12999204507E+03  0.00000000000E+00 0. -1.
         -5    1    5    5    0  501  0.73841149363E+02  0.72036018938E+02 -0.10037041638E+03  0.14400699236E+03  0.47000000000E+01 0.  1.
         11    1    6    6    0    0  0.55655829501E+02 -0.41546416996E+02 -0.17669653140E+03  0.18985610428E+03  0.00000000000E+00 0. -1.
        -12    1    6    6    0    0 -0.30717558570E+01 -0.12281421468E+02  0.52673502485E+01  0.13711818842E+02  0.00000000000E+00 0.  1.
</event>
<event>
12    1  0.2576962E-002  0.2286992E+03  0.7818608E-02  0.1127559E+00
         -2   -1    0    0    0  501 -0.00000000000E+00  0.00000000000E+00  0.47546643430E+02  0.47546643430E+02  0.00000000000E+00 0.  1.
          2   -1    0    0  502    0  0.00000000000E+00 -0.00000000000E+00 -0.12392486713E+04  0.12392486713E+04  0.00000000000E+00 0. -1.
          6    2    1    2  502    0  0.10085374865E+03 -0.11349299841E+03 -0.37976602394E+03  0.44321276631E+03  0.17077231619E+03 0.  0.
         24    2    3    3    0    0  0.47008251699E+02 -0.13750279120E+03 -0.24199529439E+03  0.29328387780E+03  0.79604755826E+02 0.  0.
         -6    2    1    2    0  501 -0.10085374865E+03  0.11349299841E+03 -0.81193600392E+03  0.84358254841E+03  0.17128719220E+03 0.  0.
        -24    2    5    5    0    0 -0.14656171564E+02  0.86478939898E+02 -0.61328835211E+03  0.62531033025E+03  0.84835109864E+02 0.  0.
          5    1    3    3  502    0  0.53845496949E+02  0.24009792793E+02 -0.13777072955E+03  0.14992888852E+03  0.47000000000E+01 0. -1.
        -11    1    4    4    0    0  0.47984622274E+02 -0.33265535956E+02 -0.61165155445E+02  0.84559423472E+02  0.00000000000E+00 0.  1.
         12    1    4    4    0    0 -0.97637057547E+00 -0.10423725525E+03 -0.18083013895E+03  0.20872445432E+03  0.00000000000E+00 0. -1.
         -5    1    5    5    0  501 -0.86197577084E+02  0.27014058513E+02 -0.19864765181E+03  0.21827221816E+03  0.47000000000E+01 0.  1.
         11    1    6    6    0    0 -0.15247886385E+02  0.93096245147E+02 -0.36694300291E+03  0.37887540997E+03  0.00000000000E+00 0. -1.
        -12    1    6    6    0    0  0.59171482052E+00 -0.66173052496E+01 -0.24634534921E+03  0.24643492027E+03  0.00000000000E+00 0.  1.
</event>
<event>
12    1  0.2576962E-002  0.3378024E+03  0.7818608E-02  0.1067736E+00
         -1   -1    0    0    0  501 -0.00000000000E+00  0.00000000000E+00  0.39904976369E+03  0.39904976369E+03  0.00000000000E+00 0. -1.
          1   -1    0    0  502    0  0.00000000000E+00 -0.00000000000E+00 -0.28727563900E+03  0.28727563900E+03  0.00000000000E+00 0.  1.
          6    2    1    2  502    0  0.21768918731E+03 -0.19208690217E+03  0.32761110196E+02  0.34014235139E+03  0.17417683145E+03 0.  0.
         24    2    3    3    0    0  0.87343059774E+02 -0.17936638318E+02 -0.72552733626E+01  0.11891435064E+03  0.78341883510E+02 0.  0.
         -6    2    1    2    0  501 -0.21768918731E+03  0.19208690217E+03  0.79013014490E+02  0.34618305130E+03  0.17121240694E+03 0.  0.
        -24    2    5    5    0    0 -0.51450978688E+02  0.11485573801E+03  0.64814052521E+02  0.16227140065E+03  0.79322772911E+02 0.  0.
          5    1    3    3  502    0  0.13034612754E+03 -0.17415026385E+03  0.40016383559E+02  0.22122800075E+03  0.47000000000E+01 0. -1.
        -11    1    4    4    0    0  0.69808620952E+02 -0.14595190619E+02 -0.39890821724E+02  0.81716221194E+02  0.00000000000E+00 0.  1.
         12    1    4    4    0    0  0.17534438822E+02 -0.33414476990E+01  0.32635548361E+02  0.37198129447E+02  0.00000000000E+00 0. -1.
         -5    1    5    5    0  501 -0.16623820862E+03  0.77231164164E+02  0.14198961969E+02  0.18391165065E+03  0.47000000000E+01 0.  1.
         13    1    6    6    0    0 -0.57053681818E+02  0.55746713007E+02  0.65000036449E+02  0.10289714942E+03  0.00000000000E+00 0. -1.
        -14    1    6    6    0    0  0.56027031299E+01  0.59109025000E+02 -0.18598392835E+00  0.59374251227E+02  0.00000000000E+00 0.  1.
</event>
<event>
12    1  0.2576962E-002  0.1822247E+03  0.7818608E-02  0.1165667E+00
          1   -1    0    0  502    0  0.00000000000E+00  0.00000000000E+00  0.14910295616E+03  0.14910295616E+03  0.00000000000E+00 0. -1.
         -1   -1    0    0    0  501 -0.00000000000E+00 -0.00000000000E+00 -0.30359918816E+03  0.30359918816E+03  0.00000000000E+00 0.  1.
          6    2    1    2  502    0 -0.52267872159E+02 -0.25159398103E+02  0.39515795086E+02  0.18669976961E+03  0.17300398879E+03 0.  0.
         24    2    3    3    0    0 -0.80031588328E+02 -0.67635679912E+02  0.43477789350E+02  0.13558376575E+03  0.74249572660E+02 0.  0.
         -6    2    1    2    0  501  0.52267872159E+02  0.25159398103E+02 -0.19401202708E+03  0.26600237471E+03  0.17248672681E+03 0.  0.
        -24    2    5    5    0    0  0.38972545810E+02  0.13106214390E+02 -0.23216559016E+02  0.94202412972E+02  0.81513519214E+02 0.  0.
          5    1    3    3  502    0  0.27763716169E+02  0.42476281808E+02 -0.39619942640E+01  0.51116003857E+02  0.47000000000E+01 0. -1.
        -11    1    4    4    0    0 -0.20575270888E+02  0.18492561923E+01 -0.16312488309E+02  0.26322211066E+02  0.00000000000E+00 0.  1.
         12    1    4    4    0    0 -0.59456317440E+02 -0.69484936104E+02  0.59790277659E+02  0.10926155468E+03  0.00000000000E+00 0. -1.
         -5    1    5    5    0  501  0.13295326349E+02  0.12053183714E+02 -0.17079546807E+03  0.17179996174E+03  0.47000000000E+01 0.  1.
         11    1    6    6    0    0 -0.22960476954E+02 -0.66051899441E+01  0.30812619790E+01  0.24089545690E+02  0.00000000000E+00 0. -1.
        -12    1    6    6    0    0  0.61933022764E+02  0.19711404334E+02 -0.26297820995E+02  0.70112867282E+02  0.00000000000E+00 0.  1.
</event>
<event>
12    1  0.2576962E-002  0.1874179E+03  0.7818608E-02  0.1160811E+00
         -1   -1    0    0    0  501 -0.00000000000E+00  0.00000000000E+00  0.98215999982E+02  0.98215999982E+02  0.00000000000E+00 0.  1.
          1   -1    0    0  502    0  0.00000000000E+00 -0.00000000000E+00 -0.36001880939E+03  0.36001880939E+03  0.00000000000E+00 0. -1.
          6    2    1    2  502    0 -0.70118140624E+02 -0.18781459631E+02 -0.14931824542E+03  0.23937699967E+03  0.17244162109E+03 0.  0.
         24    2    3    3    0    0 -0.49853027798E+02  0.71031562779E+01 -0.95937718993E+01  0.95760473328E+02  0.80884167691E+02 0.  0.
         -6    2    1    2    0  501  0.70118140624E+02  0.18781459631E+02 -0.11248456399E+03  0.21885780970E+03  0.17313771068E+03 0.  0.
        -24    2    5    5    0    0  0.65107185219E+02  0.71113791732E+02 -0.52604881936E+02  0.13903645303E+03  0.85251068776E+02 0.  0.
          5    1    3    3  502    0 -0.20265112826E+02 -0.25884615909E+02 -0.13972447352E+03  0.14361652634E+03  0.47000000000E+01 0. -1.
        -11    1    4    4    0    0  0.92625427685E+01 -0.25647042542E+02  0.13359601868E+01  0.27301103994E+02  0.00000000000E+00 0.  1.
         12    1    4    4    0    0 -0.59115570566E+02  0.32750198820E+02 -0.10929732086E+02  0.68459369334E+02  0.00000000000E+00 0. -1.
         -5    1    5    5    0  501  0.50109554046E+01 -0.52332332101E+02 -0.59879682057E+02  0.79821356668E+02  0.47000000000E+01 0.  1.
         11    1    6    6    0    0  0.19448433770E+02  0.62533321488E+01 -0.56034879149E+02  0.59642714729E+02  0.00000000000E+00 0. -1.
        -12    1    6    6    0    0  0.45658751449E+02  0.64860459583E+02  0.34299972132E+01  0.79393738305E+02  0.00000000000E+00 0.  1.
</event>
<event>
12    1  0.2576962E-002  0.2269116E+03  0.7818608E-02  0.1128833E+00
          1   -1    0    0  502    0  0.00000000000E+00  0.00000000000E+00  0.27927390895E+03  0.27927390895E+03  0.00000000000E+00 0.  1.
         -1   -1    0    0    0  501 -0.00000000000E+00 -0.00000000000E+00 -0.20155761950E+03  0.20155761950E+03  0.00000000000E+00 0. -1.
          6    2    1    2  502    0 -0.91919032455E+02 -0.10829908879E+03  0.10956944501E+03  0.25561902059E+03  0.18209288633E+03 0.  0.
         24    2    3    3    0    0 -0.61489662774E+02 -0.32789331412E+02  0.13375788739E+03  0.17056115357E+03  0.79648074576E+02 0.  0.
         -6    2    1    2    0  501  0.91919032455E+02  0.10829908879E+03 -0.31853155568E+02  0.22521250785E+03  0.17183785676E+03 0.  0.
        -24    2    5    5    0    0  0.37205683917E+02 -0.56690102931E+01 -0.43456018659E+02  0.98173165334E+02  0.79581054533E+02 0.  0.
          5    1    3    3  502    0 -0.30429369681E+02 -0.75509757376E+02 -0.24188442385E+02  0.85057867027E+02  0.47000000000E+01 0. -1.
        -13    1    4    4    0    0  0.10415115300E+02 -0.30583183618E+02  0.28582642114E+02  0.43136680182E+02  0.00000000000E+00 0.  1.
         14    1    4    4    0    0 -0.71904778073E+02 -0.22061477936E+01  0.10517524528E+03  0.12742447339E+03  0.00000000000E+00 0. -1.
         -5    1    5    5    0  501  0.54713348538E+02  0.11396809908E+03  0.11602863091E+02  0.12703934252E+03  0.47000000000E+01 0.  1.
         13    1    6    6    0    0  0.27112664007E+02 -0.38858092941E+02 -0.70801712289E+01  0.47908003102E+02  0.00000000000E+00 0. -1.
        -14    1    6    6    0    0  0.10093019910E+02  0.33189082648E+02 -0.36375847430E+02  0.50265162232E+02  0.00000000000E+00 0.  1.
</event>
<event>
12    1  0.2576962E-002  0.1935548E+03  0.7818608E-02  0.1155294E+00
         -1   -1    0    0    0  501 -0.00000000000E+00  0.00000000000E+00  0.97145452842E+02  0.97145452842E+02  0.00000000000E+00 0.  1.
          1   -1    0    0  502    0  0.00000000000E+00 -0.00000000000E+00 -0.48419027421E+03  0.48419027421E+03  0.00000000000E+00 0. -1.
          6    2    1    2  502    0  0.88536535663E+02 -0.19368703461E+02 -0.62799918170E+02  0.20397598269E+03  0.17160567290E+03 0.  0.
         24    2    3    3    0    0  0.90391413540E+01 -0.55000486694E+02  0.25203343496E+01  0.94988437217E+02  0.76874517928E+02 0.  0.
         -6    2    1    2    0  501 -0.88536535663E+02  0.19368703461E+02 -0.32424490320E+03  0.37735974436E+03  0.17044575265E+03 0.  0.
        -24    2    5    5    0    0 -0.33137265619E+02 -0.36772615138E+02 -0.25623547524E+03  0.27310860976E+03  0.80507082649E+02 0.  0.
          5    1    3    3  502    0  0.79497394309E+02  0.35631783233E+02 -0.65320252520E+02  0.10898754547E+03  0.47000000000E+01 0. -1.
        -11    1    4    4    0    0  0.36222016986E+02 -0.25445997201E+02  0.23030372504E+02  0.49899211876E+02  0.00000000000E+00 0.  1.
         12    1    4    4    0    0 -0.27182875632E+02 -0.29554489493E+02 -0.20510038154E+02  0.45089225342E+02  0.00000000000E+00 0. -1.
         -5    1    5    5    0  501 -0.55399270044E+02  0.56141318599E+02 -0.68009427963E+02  0.10425113461E+03  0.47000000000E+01 0.  1.
         11    1    6    6    0    0 -0.57047387901E+02 -0.40548516205E+02 -0.19966707051E+03  0.21157865128E+03  0.00000000000E+00 0. -1.
        -12    1    6    6    0    0  0.23910122282E+02  0.37759010677E+01 -0.56568404730E+02  0.61529958476E+02  0.00000000000E+00 0.  1.
</event>
<event>
12    1  0.2576962E-002  0.1752625E+03  0.7818608E-02  0.1172468E+00
         -1   -1    0    0    0  501 -0.00000000000E+00  0.00000000000E+00  0.16234199342E+03  0.16234199342E+03  0.00000000000E+00 0. -1.
          1   -1    0    0  502    0  0.00000000000E+00 -0.00000000000E+00 -0.20433373967E+03  0.20433373967E+03  0.00000000000E+00 0.  1.
          6    2    1    2  502    0  0.30534811432E+02 -0.19833487912E+02 -0.70943889915E+02  0.18972294401E+03  0.17215114875E+03 0.  0.
         24    2    3    3    0    0  0.33611126845E+02  0.53631793214E+02 -0.46324615862E+02  0.11203890509E+03  0.80004181947E+02 0.  0.
         -6    2    1    2    0  501 -0.30534811432E+02  0.19833487912E+02  0.28952143665E+02  0.17695278908E+03  0.17072879368E+03 0.  0.
        -24    2    5    5    0    0 -0.14348383440E+02 -0.28256024590E+02 -0.37861988211E+02  0.92924104208E+02  0.78721534275E+02 0.  0.
          5    1    3    3  502    0 -0.30763154126E+01 -0.73465281126E+02 -0.24619274053E+02  0.77684038916E+02  0.47000000000E+01 0. -1.
        -13    1    4    4    0    0  0.67334604397E+01  0.49162922108E+02  0.89417725731E+01  0.50421103681E+02  0.00000000000E+00 0.  1.
         14    1    4    4    0    0  0.26877666405E+02  0.44688711061E+01 -0.55266388435E+02  0.61617801413E+02  0.00000000000E+00 0. -1.
         -5    1    5    5    0  501 -0.16186427993E+02  0.48089512502E+02  0.66814131876E+02  0.84028684877E+02  0.47000000000E+01 0.  1.
         13    1    6    6    0    0  0.21085026901E+02  0.15329983657E+02 -0.23134230952E+02  0.34853685602E+02  0.00000000000E+00 0. -1.
        -14    1    6    6    0    0 -0.35433410341E+02 -0.43586008246E+02 -0.14727757259E+02  0.58070418606E+02  0.00000000000E+00 0.  1.
</event>
<event>
12    1  0.2576962E-002  0.2191916E+03  0.7818608E-02  0.1134487E+00
          2   -1    0    0  502    0  0.00000000000E+00  0.00000000000E+00  0.13266400689E+03  0.13266400689E+03  0.00000000000E+00 0. -1.
         -2   -1    0    0    0  501 -0.00000000000E+00 -0.00000000000E+00 -0.36281313200E+03  0.36281313200E+03  0.00000000000E+00 0.  1.
          6    2    1    2  502    0  0.42762500915E+02  0.12971934598E+03 -0.10424038620E+03  0.24219093438E+03  0.17068875293E+03 0.  0.
         24    2    3    3    0    0  0.11828275163E+02  0.12811602071E+02 -0.87242315744E+02  0.11998057759E+03  0.80498895029E+02 0.  0.
         -6    2    1    2    0  501 -0.42762500915E+02 -0.12971934598E+03 -0.12590873891E+03  0.25328620451E+03  0.17217767177E+03 0.  0.
        -24    2    5    5    0    0  0.20303965051E+02 -0.12851926133E+03 -0.68448913893E+02  0.16783129931E+03  0.80948376665E+02 0.  0.
          5    1    3    3  502    0  0.30934225752E+02  0.11690774391E+03 -0.16998070459E+02  0.12221035680E+03  0.47000000000E+01 0. -1.
        -13    1    4    4    0    0 -0.64548224172E+01 -0.14633658486E+02  0.89252874827E+01  0.18315825119E+02  0.00000000000E+00 0.  1.
         14    1    4    4    0    0  0.18283097580E+02  0.27445260557E+02 -0.96167603227E+02  0.10166475247E+03  0.00000000000E+00 0. -1.
         -5    1    5    5    0  501 -0.63066465966E+02 -0.12000846472E+01 -0.57459825013E+02  0.85454905202E+02  0.47000000000E+01 0.  1.
         13    1    6    6    0    0  0.32953301473E+02 -0.64302774206E+02  0.11874640070E+01  0.72264631178E+02  0.00000000000E+00 0. -1.
        -14    1    6    6    0    0 -0.12649336422E+02 -0.64216487126E+02 -0.69636377900E+02  0.95566668131E+02  0.00000000000E+00 0.  1.
</event>
<event>
12    1  0.2576962E-002  0.2137167E+03  0.7818608E-02  0.1138656E+00
          2   -1    0    0  502    0  0.00000000000E+00  0.00000000000E+00  0.17689325516E+04  0.17689325516E+04  0.00000000000E+00 0. -1.
         -2   -1    0    0    0  501 -0.00000000000E+00 -0.00000000000E+00 -0.25856237288E+02  0.25856237288E+02  0.00000000000E+00 0.  1.
          6    2    1    2  502    0  0.35127843573E+02 -0.13017193004E+03  0.87001104492E+03  0.89451114379E+03  0.15827909311E+03 0.  0.
         24    2    3    3    0    0 -0.97570431940E+01 -0.53293208356E+02  0.65001236885E+03  0.65713697000E+03  0.79859575114E+02 0.  0.
         -6    2    1    2    0  501 -0.35127843573E+02  0.13017193004E+03  0.87306526944E+03  0.90027764515E+03  0.17343061115E+03 0.  0.
        -24    2    5    5    0    0  0.44385760543E+02  0.73074888292E+02  0.49644647423E+03  0.51111663435E+03  0.86435392631E+02 0.  0.
          5    1    3    3  502    0  0.44884886767E+02 -0.76878721688E+02  0.21999867607E+03  0.23737417378E+03  0.47000000000E+01 0. -1.
        -13    1    4    4    0    0  0.22404373751E+02 -0.20702694499E+02  0.85648933989E+02  0.90919180683E+02  0.00000000000E+00 0.  1.
         14    1    4    4    0    0 -0.32161416945E+02 -0.32590513857E+02  0.56436343486E+03  0.56621778932E+03  0.00000000000E+00 0. -1.
         -5    1    5    5    0  501 -0.79513604115E+02  0.57097041752E+02  0.37661879521E+03  0.38916101079E+03  0.47000000000E+01 0.  1.
         13    1    6    6    0    0  0.31911572262E+01  0.36787905522E+02  0.38616800812E+03  0.38792945747E+03  0.00000000000E+00 0. -1.
        -14    1    6    6    0    0  0.41194603316E+02  0.36286982770E+02  0.11027846611E+03  0.12318717688E+03  0.00000000000E+00 0.  1.
</event>
<event>
12    1  0.2576962E-002  0.2246821E+03  0.7818608E-02  0.1130440E+00
          1   -1    0    0  502    0  0.00000000000E+00  0.00000000000E+00  0.12285204691E+03  0.12285204691E+03  0.00000000000E+00 0.  1.
         -1   -1    0    0    0  501 -0.00000000000E+00 -0.00000000000E+00 -0.66303158474E+03  0.66303158474E+03  0.00000000000E+00 0. -1.
          6    2    1    2  502    0 -0.14356202032E+03 -0.59160385310E+01 -0.51210720586E+03  0.55907425864E+03  0.17223583594E+03 0.  0.
         24    2    3    3    0    0 -0.61922522148E+02 -0.54332217317E+02 -0.37120358758E+03  0.38911822410E+03  0.82671036677E+02 0.  0.
         -6    2    1    2    0  501  0.14356202032E+03  0.59160385310E+01 -0.28072331965E+02  0.22680937302E+03  0.17323216409E+03 0.  0.
        -24    2    5    5    0    0  0.12803215510E+03  0.51670354047E+02  0.17345303319E+02  0.16033016050E+03  0.79641965021E+02 0.  0.
          5    1    3    3  502    0 -0.81639498175E+02  0.48416178786E+02 -0.14090361828E+03  0.16995603454E+03  0.47000000000E+01 0. -1.
        -11    1    4    4    0    0  0.43450923661E+01 -0.18244981336E+02 -0.21318148215E+03  0.21400491467E+03  0.00000000000E+00 0.  1.
         12    1    4    4    0    0 -0.66267614514E+02 -0.36087235981E+02 -0.15802210543E+03  0.17511330943E+03  0.00000000000E+00 0. -1.
         -5    1    5    5    0  501  0.15529865228E+02 -0.45754315516E+02 -0.45417635284E+02  0.66479212519E+02  0.47000000000E+01 0.  1.
         11    1    6    6    0    0  0.27224368293E+02 -0.66674456898E+00 -0.27044625444E+02  0.38379975804E+02  0.00000000000E+00 0. -1.
        -12    1    6    6    0    0  0.10080778680E+03  0.52337098616E+02  0.44389928763E+02  0.12195018469E+03  0.00000000000E+00 0.  1.
</event>
<event>
12    1  0.2576962E-002  0.2290953E+03  0.7818608E-02  0.1127278E+00
          2   -1    0    0  502    0  0.00000000000E+00  0.00000000000E+00  0.93916604015E+03  0.93916604015E+03  0.00000000000E+00 0. -1.
         -2   -1    0    0    0  501 -0.00000000000E+00 -0.00000000000E+00 -0.12073794333E+03  0.12073794333E+03  0.00000000000E+00 0.  1.
          6    2    1    2  502    0  0.15198536536E+03 -0.56718910101E+01  0.79736958820E+03  0.82954601547E+03  0.17092866919E+03 0.  0.
         24    2    3    3    0    0  0.97073639274E+02 -0.65599457024E+02  0.40672791018E+03  0.43051015061E+03  0.78643605316E+02 0.  0.
         -6    2    1    2    0  501 -0.15198536536E+03  0.56718910101E+01  0.21058508619E+02  0.23035796802E+03  0.17172539420E+03 0.  0.
        -24    2    5    5    0    0 -0.12743330442E+03 -0.57020861349E+02  0.64272071857E+01  0.16129748817E+03  0.80529156175E+02 0.  0.
          5    1    3    3  502    0  0.54911726084E+02  0.59927566014E+02  0.39064167803E+03  0.39903586485E+03  0.47000000000E+01 0. -1.
        -11    1    4    4    0    0  0.52520913118E+02 -0.77919369978E+02  0.29476192658E+03  0.30937754911E+03  0.00000000000E+00 0.  1.
         12    1    4    4    0    0  0.44552726156E+02  0.12319912954E+02  0.11196598360E+03  0.12113260150E+03  0.00000000000E+00 0. -1.
         -5    1    5    5    0  501 -0.24552060940E+02  0.62692752359E+02  0.14631301433E+02  0.69060479845E+02  0.47000000000E+01 0.  1.
         11    1    6    6    0    0 -0.81634102170E+02 -0.42552368241E+02  0.42336901296E+02  0.10132740938E+03  0.00000000000E+00 0. -1.
        -12    1    6    6    0    0 -0.45799202247E+02 -0.14468493108E+02 -0.35909694110E+02  0.59970078792E+02  0.00000000000E+00 0.  1.
</event>
<event>
12    1  0.2576962E-002  0.2097215E+03  0.7818608E-02  0.1141787E+00
         -2   -1    0    0    0  501 -0.00000000000E+00  0.00000000000E+00  0.61172002284E+03  0.61172002284E+03  0.00000000000E+00 0.  1.
          2   -1    0    0  502    0  0.00000000000E+00 -0.00000000000E+00 -0.76953785160E+02  0.76953785160E+02  0.00000000000E+00 0. -1.
          6    2    1    2  502    0  0.11733871759E+03 -0.15648733797E+02  0.17842497909E+03  0.27488744843E+03  0.17237859097E+03 0.  0.
         24    2    3    3    0    0  0.10448088962E+03 -0.51575973250E+02  0.68065236686E+02  0.15802234235E+03  0.82230450110E+02 0.  0.
         -6    2    1    2    0  501 -0.11733871759E+03  0.15648733797E+02  0.35634125859E+03  0.41378635957E+03  0.17385856688E+03 0.  0.
        -24    2    5    5    0    0 -0.23258652829E+02 -0.87238086112E+01  0.27410656588E+03  0.28639046445E+03  0.79170821009E+02 0.  0.
          5    1    3    3  502    0  0.12857827970E+02  0.35927239453E+02  0.11035974241E+03  0.11686510608E+03  0.47000000000E+01 0. -1.
        -11    1    4    4    0    0  0.78626789276E+02 -0.74305768270E+02  0.52154851669E+02  0.12009849184E+03  0.00000000000E+00 0.  1.
         12    1    4    4    0    0  0.25854100345E+02  0.22729795020E+02  0.15910385017E+02  0.37923850512E+02  0.00000000000E+00 0. -1.
         -5    1    5    5    0  501 -0.94080064761E+02  0.24372542408E+02  0.82234692707E+02  0.12739589512E+03  0.47000000000E+01 0.  1.
         13    1    6    6    0    0 -0.39607301498E+02  0.85469474747E+00  0.62903963121E+02  0.74339608631E+02  0.00000000000E+00 0. -1.
        -14    1    6    6    0    0  0.16348648669E+02 -0.95785033586E+01  0.21120260276E+03  0.21205085582E+03  0.00000000000E+00 0.  1.
</event>
<event>
12    1  0.2576962E-002  0.1733878E+03  0.7818608E-02  0.1174360E+00
         -1   -1    0    0    0  501 -0.00000000000E+00  0.00000000000E+00  0.30962319703E+03  0.30962319703E+03  0.00000000000E+00 0.  1.
          1   -1    0    0  502    0  0.00000000000E+00 -0.00000000000E+00 -0.13576445473E+03  0.13576445473E+03  0.00000000000E+00 0. -1.
          6    2    1    2  502    0 -0.63014049190E+01  0.73076792132E+01 -0.31903231843E+02  0.17633965735E+03  0.17316104837E+03 0.  0.
         24    2    3    3    0    0 -0.36800336402E+02  0.65249042143E+02 -0.19090963251E+02  0.10945445281E+03  0.77486192984E+02 0.  0.
         -6    2    1    2    0  501  0.63014049190E+01 -0.73076792132E+01  0.20576197414E+03  0.26904799441E+03  0.17307721807E+03 0.  0.
        -24    2    5    5    0    0 -0.36742862750E+01  0.63044004151E+02  0.11978154471E+03  0.15740750887E+03  0.80258697696E+02 0.  0.
          5    1    3    3  502    0  0.30498931483E+02 -0.57941362929E+02 -0.12812268592E+02  0.66885204539E+02  0.47000000000E+01 0. -1.
        -13    1    4    4    0    0  0.43212454378E+01  0.23164036190E+02  0.26173836000E+02  0.35218112183E+02  0.00000000000E+00 0.  1.
         14    1    4    4    0    0 -0.41121581840E+02  0.42085005952E+02 -0.45264799252E+02  0.74236340631E+02  0.00000000000E+00 0. -1.
         -5    1    5    5    0  501  0.99756911940E+01 -0.70351683365E+02  0.85980429426E+02  0.11164048554E+03  0.47000000000E+01 0.  1.
         13    1    6    6    0    0 -0.27802874791E+02  0.32783003968E+02  0.14706636306E+02  0.45431380644E+02  0.00000000000E+00 0. -1.
        -14    1    6    6    0    0  0.24128588516E+02  0.30261000184E+02  0.10507490841E+03  0.11197612823E+03  0.00000000000E+00 0.  1.
</event>
<event>
12    1  0.2576962E-002  0.1939671E+03  0.7818608E-02  0.1154931E+00
          2   -1    0    0  502    0  0.00000000000E+00  0.00000000000E+00  0.82914530441E+03  0.82914530441E+03  0.00000000000E+00 0.  1.
         -2   -1    0    0    0  501 -0.00000000000E+00 -0.00000000000E+00 -0.47384080680E+02  0.47384080680E+02  0.00000000000E+00 0. -1.
          6    2    1    2  502    0  0.31686795210E+02  0.83054405260E+02  0.48178996338E+03  0.51950334568E+03  0.17280066590E+03 0.  0.
         24    2    3    3    0    0  0.55926418119E+02  0.91670497790E+01  0.37643234535E+03  0.38847198189E+03  0.77442695240E+02 0.  0.
         -6    2    1    2    0  501 -0.31686795210E+02 -0.83054405260E+02  0.29997126035E+03  0.35702603941E+03  0.17199636205E+03 0.  0.
        -24    2    5    5    0    0 -0.30117429670E+02  0.32177404761E+01  0.66437694839E+02  0.10801728001E+03  0.79601206406E+02 0.  0.
          5    1    3    3  502    0 -0.24239622909E+02  0.73887355481E+02  0.10535761803E+03  0.13103136379E+03  0.47000000000E+01 0. -1.
        -13    1    4    4    0    0 -0.17351637992E+02  0.14044296767E+02  0.77532689420E+02  0.80682337233E+02  0.00000000000E+00 0.  1.
         14    1    4    4    0    0  0.73278056111E+02 -0.48772469879E+01  0.29889965593E+03  0.30778964466E+03  0.00000000000E+00 0. -1.
         -5    1    5    5    0  501 -0.15693655397E+01 -0.86272145737E+02  0.23353356551E+03  0.24900875940E+03  0.47000000000E+01 0.  1.
         13    1    6    6    0    0 -0.50022736113E+02 -0.20605659907E+02  0.43437283148E+02  0.69380580249E+02  0.00000000000E+00 0. -1.
        -14    1    6    6    0    0  0.19905306443E+02  0.23823400383E+02  0.23000411691E+02  0.38636699760E+02  0.00000000000E+00 0.  1.
</event>
<event>
12    1  0.2576962E-002  0.2464812E+03  0.7818608E-02  0.1115549E+00
         -2   -1    0    0    0  501 -0.00000000000E+00  0.00000000000E+00  0.11724337561E+03  0.11724337561E+03  0.00000000000E+00 0.  1.
          2   -1    0    0  502    0  0.00000000000E+00 -0.00000000000E+00 -0.51818895794E+03  0.51818895794E+03  0.00000000000E+00 0. -1.
          6    2    1    2  502    0  0.16996056835E+03  0.43164953251E+02 -0.19879262526E+03  0.31609083937E+03  0.17217753307E+03 0.  0.
         24    2    3    3    0    0  0.10550575417E+03  0.94037100294E+02 -0.11957431042E+03  0.20189788941E+03  0.80562408349E+02 0.  0.
         -6    2    1    2    0  501 -0.16996056835E+03 -0.43164953251E+02 -0.20215295707E+03  0.31934149418E+03  0.17425086477E+03 0.  0.
        -24    2    5    5    0    0 -0.17320553570E+03  0.76487259426E+01 -0.18362225026E+03  0.26495365638E+03  0.80153905910E+02 0.  0.
          5    1    3    3  502    0  0.64454814180E+02 -0.50872147043E+02 -0.79218314837E+02  0.11419294996E+03  0.47000000000E+01 0. -1.
        -11    1    4    4    0    0  0.93129033108E+02  0.30816192418E+02 -0.67720408404E+02  0.11920028623E+03  0.00000000000E+00 0.  1.
         12    1    4    4    0    0  0.12376721066E+02  0.63220907876E+02 -0.51853902019E+02  0.82697603179E+02  0.00000000000E+00 0. -1.
         -5    1    5    5    0  501  0.32449673476E+01 -0.50813679193E+02 -0.18530706809E+02  0.54387837805E+02  0.47000000000E+01 0.  1.
         13    1    6    6    0    0 -0.44917141763E+02 -0.22220172555E+02 -0.91142955530E+02  0.10401117265E+03  0.00000000000E+00 0. -1.
        -14    1    6    6    0    0 -0.12828839394E+03  0.29868898497E+02 -0.92479294728E+02  0.16094248373E+03  0.00000000000E+00 0.  1.
</event>
<event>
12    1  0.2576962E-002  0.1880362E+03  0.7818608E-02  0.1160245E+00
         -2   -1    0    0    0  501 -0.00000000000E+00  0.00000000000E+00  0.65164477918E+02  0.65164477918E+02  0.00000000000E+00 0. -1.
          2   -1    0    0  502    0  0.00000000000E+00 -0.00000000000E+00 -0.87763176961E+03  0.87763176961E+03  0.00000000000E+00 0.  1.
          6    2    1    2  502    0 -0.49103537198E+02  0.56648647081E+02 -0.69772953482E+03  0.72266912988E+03  0.17263817929E+03 0.  0.
         24    2    3    3    0    0  0.78737298974E-01  0.47079091773E+02 -0.63782400980E+03  0.64443081164E+03  0.79089546936E+02 0.  0.
         -6    2    1    2    0  501  0.49103537198E+02 -0.56648647081E+02 -0.11473775688E+03  0.22012711765E+03  0.17225262985E+03 0.  0.
        -24    2    5    5    0    0  0.67779439566E+02  0.11459244927E+02 -0.30971428033E+02  0.11046234604E+03  0.80730005677E+02 0.  0.
          5    1    3    3  502    0 -0.49182274497E+02  0.95695553081E+01 -0.59905525017E+02  0.78238318240E+02  0.47000000000E+01 0. -1.
        -13    1    4    4    0    0 -0.31968878348E+02  0.38667581263E+02 -0.50699589182E+03  0.50947230086E+03  0.00000000000E+00 0.  1.
         14    1    4    4    0    0  0.32047615647E+02  0.84115105105E+01 -0.13082811798E+03  0.13495851078E+03  0.00000000000E+00 0. -1.
         -5    1    5    5    0  501 -0.18675902368E+02 -0.68107892008E+02 -0.83766328845E+02  0.10966477161E+03  0.47000000000E+01 0.  1.
         11    1    6    6    0    0 -0.10978330686E+02 -0.57690209843E+01  0.13547728131E+02  0.18366989010E+02  0.00000000000E+00 0. -1.
        -12    1    6    6    0    0  0.78757770252E+02  0.17228265911E+02 -0.44519156164E+02  0.92095357033E+02  0.00000000000E+00 0.  1.
</event>
<event>
12    1  0.2576962E-002  0.1776012E+03  0.7818608E-02  0.1170145E+00
          2   -1    0    0  502    0  0.00000000000E+00  0.00000000000E+00  0.86555660193E+02  0.86555660193E+02  0.00000000000E+00 0.  1.
         -2   -1    0    0    0  501 -0.00000000000E+00 -0.00000000000E+00 -0.42961651944E+03  0.42961651944E+03  0.00000000000E+00 0. -1.
          6    2    1    2  502    0  0.31234371093E+02  0.40702453916E+02 -0.71523967457E+02  0.19206645882E+03  0.17070902434E+03 0.  0.
         24    2    3    3    0    0  0.33553538373E+02 -0.24146701437E+02  0.88610748880E+01  0.88651583105E+02  0.77920994675E+02 0.  0.
         -6    2    1    2    0  501 -0.31234371093E+02 -0.40702453916E+02 -0.27153689179E+03  0.32410572081E+03  0.16935158389E+03 0.  0.
        -24    2    5    5    0    0 -0.70993013896E+02 -0.46660022392E+02 -0.19097177419E+03  0.23394436282E+03  0.10508368403E+03 0.  0.
          5    1    3    3  502    0 -0.23191672792E+01  0.64849155353E+02 -0.80385042345E+02  0.10341487572E+03  0.47000000000E+01 0. -1.
        -11    1    4    4    0    0  0.59028031619E+02 -0.14198980055E+02  0.37279022889E+01  0.60826119446E+02  0.00000000000E+00 0.  1.
         12    1    4    4    0    0 -0.25474493247E+02 -0.99477213819E+01  0.51331725991E+01  0.27825463658E+02  0.00000000000E+00 0. -1.
         -5    1    5    5    0  501  0.39758642803E+02  0.59575684751E+01 -0.80565117604E+02  0.90161357988E+02  0.47000000000E+01 0.  1.
         11    1    6    6    0    0 -0.53523558980E+02 -0.57977416835E+02 -0.19704896207E+03  0.21226032527E+03  0.00000000000E+00 0. -1.
        -12    1    6    6    0    0 -0.17469454916E+02  0.11317394443E+02  0.60771878872E+01  0.21684037555E+02  0.00000000000E+00 0.  1.
</event>
<event>
12    1  0.2576962E-002  0.1837526E+03  0.7818608E-02  0.1164220E+00
          3   -1    0    0  502    0  0.00000000000E+00  0.00000000000E+00  0.20676397206E+03  0.20676397206E+03  0.00000000000E+00 0. -1.
         -3   -1    0    0    0  501 -0.00000000000E+00 -0.00000000000E+00 -0.17009904618E+03  0.17009904618E+03  0.00000000000E+00 0.  1.
          6    2    1    2  502    0 -0.45588437831E+02 -0.51830784347E+02  0.56092136107E+02  0.19324664656E+03  0.17156107601E+03 0.  0.
         24    2    3    3    0    0 -0.81050432859E+02 -0.65262843421E+02  0.16565019826E+02  0.13826977666E+03  0.89530552646E+02 0.  0.
         -6    2    1    2    0  501  0.45588437831E+02  0.51830784347E+02 -0.19427210229E+02  0.18361637169E+03  0.16903496557E+03 0.  0.
        -24    2    5    5    0    0  0.28936661389E+02 -0.14547098441E+02  0.43295249580E+02  0.90667450519E+02  0.72781587658E+02 0.  0.
          5    1    3    3  502    0  0.35461995028E+02  0.13432059074E+02  0.39527116281E+02  0.54976869898E+02  0.47000000000E+01 0. -1.
        -11    1    4    4    0    0 -0.22653456418E+02  0.10016327335E+02 -0.24211167345E+02  0.34636491236E+02  0.00000000000E+00 0.  1.
         12    1    4    4    0    0 -0.58396976441E+02 -0.75279170756E+02  0.40776187171E+02  0.10363328542E+03  0.00000000000E+00 0. -1.
         -5    1    5    5    0  501  0.16651776441E+02  0.66377882789E+02 -0.62722459809E+02  0.92948921170E+02  0.47000000000E+01 0.  1.
         11    1    6    6    0    0 -0.15943629845E+02 -0.86709286497E+01 -0.10018773808E+02  0.20730657609E+02  0.00000000000E+00 0. -1.
        -12    1    6    6    0    0  0.44880291235E+02 -0.58761697917E+01  0.53314023388E+02  0.69936792910E+02  0.00000000000E+00 0.  1.
</event>
<event>
12    1  0.2576962E-002  0.1800811E+03  0.7818608E-02  0.1167725E+00
         -2   -1    0    0    0  501 -0.00000000000E+00  0.00000000000E+00  0.32542005728E+02  0.32542005728E+02  0.00000000000E+00 0. -1.
          2   -1    0    0  502    0  0.00000000000E+00 -0.00000000000E+00 -0.11618487889E+04  0.11618487889E+04  0.00000000000E+00 0.  1.
          6    2    1    2  502    0  0.12337172452E+02 -0.56323801175E+02 -0.34346504791E+03  0.38851125294E+03  0.17218646324E+03 0.  0.
         24    2    3    3    0    0 -0.49358443806E+02  0.13321786525E+02 -0.14122214030E+03  0.16584302299E+03  0.70331283169E+02 0.  0.
         -6    2    1    2    0  501 -0.12337172452E+02  0.56323801175E+02 -0.78584173524E+03  0.80587954166E+03  0.16902670329E+03 0.  0.
        -24    2    5    5    0    0  0.54102968210E+02  0.89276199750E+01 -0.41278202263E+03  0.42396812595E+03  0.79706587206E+02 0.  0.
          5    1    3    3  502    0  0.61695616257E+02 -0.69645587700E+02 -0.20224290760E+03  0.22266822995E+03  0.47000000000E+01 0. -1.
        -11    1    4    4    0    0 -0.61967282150E+02 -0.62070220650E+01 -0.88421391460E+02  0.10815180834E+03  0.00000000000E+00 0.  1.
         12    1    4    4    0    0  0.12608838344E+02  0.19528808590E+02 -0.52800748844E+02  0.57691214650E+02  0.00000000000E+00 0. -1.
         -5    1    5    5    0  501 -0.66440140662E+02  0.47396181200E+02 -0.37305971261E+03  0.38191141571E+03  0.47000000000E+01 0.  1.
         11    1    6    6    0    0  0.66309157657E+02  0.29383872937E+02 -0.32646144027E+03  0.33442097476E+03  0.00000000000E+00 0. -1.
        -12    1    6    6    0    0 -0.12206189447E+02 -0.20456252962E+02 -0.86320582364E+02  0.89547151187E+02  0.00000000000E+00 0.  1.
</event>
<event>
12    1  0.2576962E-002  0.1991850E+03  0.7818608E-02  0.1150428E+00
          2   -1    0    0  502    0  0.00000000000E+00  0.00000000000E+00  0.51555419542E+03  0.51555419542E+03  0.00000000000E+00 0. -1.
         -2   -1    0    0    0  501 -0.00000000000E+00 -0.00000000000E+00 -0.86893769434E+02  0.86893769434E+02  0.00000000000E+00 0.  1.
          6    2    1    2  502    0  0.21079673362E+02 -0.98060008339E+02  0.31563406984E+03  0.37291346512E+03  0.17140440064E+03 0.  0.
         24    2    3    3    0    0  0.10761062397E+02 -0.13636367508E+03  0.27006143221E+03  0.31231148563E+03  0.76775220882E+02 0.  0.
         -6    2    1    2    0  501 -0.21079673362E+02  0.98060008339E+02  0.11302635615E+03  0.22953449973E+03  0.17277445274E+03 0.  0.
        -24    2    5    5    0    0 -0.72531487826E+02  0.29959021712E+02  0.83610206693E+02  0.13913298736E+03  0.78796965675E+02 0.  0.
          5    1    3    3  502    0  0.10318610966E+02  0.38303666741E+02  0.45572637626E+02  0.60601979491E+02  0.47000000000E+01 0. -1.
        -13    1    4    4    0    0 -0.23973428393E+02 -0.82123792299E+02  0.10704093766E+03  0.13702848195E+03  0.00000000000E+00 0.  1.
         14    1    4    4    0    0  0.34734490789E+02 -0.54239882781E+02  0.16302049455E+03  0.17528300368E+03  0.00000000000E+00 0. -1.
         -5    1    5    5    0  501  0.51451814463E+02  0.68100986628E+02  0.29416149453E+02  0.90401512376E+02  0.47000000000E+01 0.  1.
         13    1    6    6    0    0 -0.85476425241E+01 -0.25096444211E+02  0.24356220109E+02  0.36001655000E+02  0.00000000000E+00 0. -1.
        -14    1    6    6    0    0 -0.63983845302E+02  0.55055465923E+02  0.59253986584E+02  0.10313133236E+03  0.00000000000E+00 0.  1.
</event>
<event>
12    1  0.2576962E-002  0.1987358E+03  0.7818608E-02  0.1150810E+00
          1   -1    0    0  502    0  0.00000000000E+00  0.00000000000E+00  0.44418671491E+02  0.44418671491E+02  0.00000000000E+00 0. -1.
         -1   -1    0    0    0  501 -0.00000000000E+00 -0.00000000000E+00 -0.89216663825E+03  0.89216663825E+03  0.00000000000E+00 0.  1.
          6    2    1    2  502    0  0.48747103228E+02 -0.82892770004E+02 -0.40105005670E+03  0.44842111801E+03  0.17604789039E+03 0.  0.
         24    2    3    3    0    0  0.82241133508E+02 -0.67563905542E+01 -0.27702187093E+03  0.29901000998E+03  0.76528532176E+02 0.  0.
         -6    2    1    2    0  501 -0.48747103228E+02  0.82892770004E+02 -0.44669791006E+03  0.48816419173E+03  0.17180734513E+03 0.  0.
        -24    2    5    5    0    0 -0.72067208338E+02  0.11445795640E+03 -0.37697458724E+03  0.40801670244E+03  0.77932558918E+02 0.  0.
          5    1    3    3  502    0 -0.33494030279E+02 -0.76136379450E+02 -0.12402818577E+03  0.14941110804E+03  0.47000000000E+01 0. -1.
        -13    1    4    4    0    0  0.55674210670E+02 -0.21155615581E+01 -0.26256366696E+03  0.26840971023E+03  0.00000000000E+00 0.  1.
         14    1    4    4    0    0  0.26566922838E+02 -0.46408289961E+01 -0.14458203971E+02  0.30600299752E+02  0.00000000000E+00 0. -1.
         -5    1    5    5    0  501  0.23320105110E+02 -0.31565186400E+02 -0.69723322817E+02  0.80147489289E+02  0.47000000000E+01 0.  1.
         11    1    6    6    0    0 -0.33296989781E+02  0.99830675206E+02 -0.32459408059E+03  0.34122744672E+03  0.00000000000E+00 0. -1.
        -12    1    6    6    0    0 -0.38770218557E+02  0.14627281199E+02 -0.52380506652E+02  0.66789255717E+02  0.00000000000E+00 0.  1.
</event>
<event>
12    1  0.2576962E-002  0.2015512E+03  0.7818608E-02  0.1148437E+00
          1   -1    0    0  502    0  0.00000000000E+00  0.00000000000E+00  0.12275978957E+04  0.12275978957E+04  0.00000000000E+00 0.  1.
         -1   -1    0    0    0  501 -0.00000000000E+00 -0.00000000000E+00 -0.52168068668E+02  0.52168068668E+02  0.00000000000E+00 0. -1.
          6    2    1    2  502    0 -0.17474006318E+00  0.10017349360E+03  0.19953674212E+03  0.28314123025E+03  0.17412433907E+03 0.  0.
         24    2    3    3    0    0  0.12220310213E+02  0.10978647967E+03  0.21900190978E+03  0.25770445521E+03  0.79040133149E+02 0.  0.
         -6    2    1    2    0  501  0.17474006318E+00 -0.10017349360E+03  0.97589308487E+03  0.99662473407E+03  0.17566669611E+03 0.  0.
        -24    2    5    5    0    0 -0.62321002323E+02 -0.51846868982E+02  0.73626152919E+03  0.74426278579E+03  0.72622653484E+02 0.  0.
          5    1    3    3  502    0 -0.12395050277E+02 -0.96129860688E+01 -0.19465167658E+02  0.25436775040E+02  0.47000000000E+01 0. -1.
        -11    1    4    4    0    0  0.22230708798E+02  0.10535943199E+03  0.13354333644E+03  0.17154776894E+03  0.00000000000E+00 0.  1.
         12    1    4    4    0    0 -0.10010398585E+02  0.44270476825E+01  0.85458573342E+02  0.86156686268E+02  0.00000000000E+00 0. -1.
         -5    1    5    5    0  501  0.62495742386E+02 -0.48326624619E+02  0.23963155568E+03  0.25236194828E+03  0.47000000000E+01 0.  1.
         11    1    6    6    0    0  0.66219038073E+01 -0.29049513495E+02  0.11600265180E+03  0.11976785491E+03  0.00000000000E+00 0. -1.
        -12    1    6    6    0    0 -0.68942906130E+02 -0.22797355487E+02  0.62025887739E+03  0.62449493089E+03  0.00000000000E+00 0.  1.
</event>
<event>
12    1  0.2576962E-002  0.2081742E+03  0.7818608E-02  0.1143020E+00
          1   -1    0    0  502    0  0.00000000000E+00  0.00000000000E+00  0.67335123587E+03  0.67335123587E+03  0.00000000000E+00 0. -1.
         -1   -1    0    0    0  501 -0.00000000000E+00 -0.00000000000E+00 -0.83623212043E+02  0.83623212043E+02  0.00000000000E+00 0.  1.
          6    2    1    2  502    0  0.11649484773E+03 -0.34731578605E+01  0.47665097451E+03  0.52017424749E+03  0.17263251108E+03 0.  0.
         24    2    3    3    0    0  0.60415068904E+02  0.47938059312E+01  0.11158253860E+03  0.15070119410E+03  0.81161726556E+02 0.  0.
         -6    2    1    2    0  501 -0.11649484773E+03  0.34731578605E+01  0.11307704932E+03  0.23680020042E+03  0.17235081509E+03 0.  0.
        -24    2    5    5    0    0 -0.89080218757E+02  0.59242106778E+02  0.37749543955E+02  0.13903486603E+03  0.80378811342E+02 0.  0.
          5    1    3    3  502    0  0.56079778826E+02 -0.82669637917E+01  0.36506843591E+03  0.36947305339E+03  0.47000000000E+01 0. -1.
        -13    1    4    4    0    0  0.76782380483E+02 -0.11986080123E+02  0.82300291211E+02  0.11319248210E+03  0.00000000000E+00 0.  1.
         14    1    4    4    0    0 -0.16367311579E+02  0.16779886055E+02  0.29282247386E+02  0.37508712006E+02  0.00000000000E+00 0. -1.
         -5    1    5    5    0  501 -0.27414628972E+02 -0.55768948918E+02  0.75327505361E+02  0.97765334393E+02  0.47000000000E+01 0.  1.
         11    1    6    6    0    0 -0.29135788691E+02 -0.84957803826E+01  0.37935482683E+02  0.48581614972E+02  0.00000000000E+00 0. -1.
        -12    1    6    6    0    0 -0.59944430066E+02  0.67737887161E+02 -0.18593872728E+00  0.90453251054E+02  0.00000000000E+00 0.  1.
</event>
<event>
12    1  0.2576962E-002  0.1821534E+03  0.7818608E-02  0.1165735E+00
         -2   -1    0    0    0  501 -0.00000000000E+00  0.00000000000E+00  0.82004248669E+02  0.82004248669E+02  0.00000000000E+00 0.  1.
          2   -1    0    0  502    0  0.00000000000E+00 -0.00000000000E+00 -0.41084349179E+03  0.41084349179E+03  0.00000000000E+00 0. -1.
          6    2    1    2  502    0  0.48561067488E+02  0.34525562508E+02 -0.19466886470E+03  0.26652323606E+03  0.17201301326E+03 0.  0.
         24    2    3    3    0    0 -0.19230253648E+02  0.52628685493E+02 -0.59802997531E+02  0.11442366863E+03  0.79854844794E+02 0.  0.
         -6    2    1    2    0  501 -0.48561067488E+02 -0.34525562508E+02 -0.13417037842E+03  0.22632450440E+03  0.17225242845E+03 0.  0.
        -24    2    5    5    0    0  0.28015876302E+01 -0.77220086390E+02 -0.64878685140E+02  0.12996905065E+03  0.81926306560E+02 0.  0.
          5    1    3    3  502    0  0.67791321136E+02 -0.18103122985E+02 -0.13486586717E+03  0.15209956743E+03  0.47000000000E+01 0. -1.
        -11    1    4    4    0    0  0.25191344793E+02  0.37643564649E+02 -0.10714603319E+02  0.46545080688E+02  0.00000000000E+00 0.  1.
         12    1    4    4    0    0 -0.44421598441E+02  0.14985120844E+02 -0.49088394211E+02  0.67878587942E+02  0.00000000000E+00 0. -1.
         -5    1    5    5    0  501 -0.51362655118E+02  0.42694523882E+02 -0.69291693276E+02  0.96355453750E+02  0.47000000000E+01 0.  1.
         11    1    6    6    0    0  0.41098931684E+02 -0.30991465297E+02 -0.39081712930E+02  0.64629508681E+02  0.00000000000E+00 0. -1.
        -12    1    6    6    0    0 -0.38297344054E+02 -0.46228621092E+02 -0.25796972210E+02  0.65339541970E+02  0.00000000000E+00 0.  1.
</event>
<event>
12    1  0.2576962E-002  0.2012555E+03  0.7818608E-02  0.1148684E+00
         -2   -1    0    0    0  501 -0.00000000000E+00  0.00000000000E+00  0.30592046141E+02  0.30592046141E+02  0.00000000000E+00 0.  1.
          2   -1    0    0  502    0  0.00000000000E+00 -0.00000000000E+00 -0.13275763872E+04  0.13275763872E+04  0.00000000000E+00 0. -1.
          6    2    1    2  502    0  0.70620789800E+02  0.71622377426E+02 -0.68985266255E+03  0.71921192126E+03  0.17678243904E+03 0.  0.
         24    2    3    3    0    0  0.11037978222E+03  0.83142440227E+02 -0.58777945346E+03  0.60896438460E+03  0.79098508892E+02 0.  0.
         -6    2    1    2    0  501 -0.70620789800E+02 -0.71622377426E+02 -0.60713167850E+03  0.63895651208E+03  0.17187055706E+03 0.  0.
        -24    2    5    5    0    0 -0.10238510913E+03 -0.88659859542E+02 -0.54487291871E+03  0.56686288580E+03  0.78126515885E+02 0.  0.
          5    1    3    3  502    0 -0.39758992424E+02 -0.11520062801E+02 -0.10207320909E+03  0.11024753666E+03  0.47000000000E+01 0. -1.
        -11    1    4    4    0    0  0.68242470103E+02  0.87190141483E+02 -0.33940079878E+03  0.35700428248E+03  0.00000000000E+00 0.  1.
         12    1    4    4    0    0  0.42137312121E+02 -0.40477012558E+01 -0.24837865468E+03  0.25196010211E+03  0.00000000000E+00 0. -1.
         -5    1    5    5    0  501  0.31764319330E+02  0.17037482116E+02 -0.62258759791E+02  0.72093626279E+02  0.47000000000E+01 0.  1.
         11    1    6    6    0    0 -0.18069979009E+02 -0.61863473742E+02 -0.17310743045E+03  0.18471544603E+03  0.00000000000E+00 0. -1.
        -12    1    6    6    0    0 -0.84315130121E+02 -0.26796385800E+02 -0.37176548827E+03  0.38214743977E+03  0.00000000000E+00 0.  1.
</event>
<event>
12    1  0.2576962E-002  0.2975450E+03  0.7818608E-02  0.1086474E+00
         -2   -1    0    0    0  501 -0.00000000000E+00  0.00000000000E+00  0.64763549300E+02  0.64763549300E+02  0.00000000000E+00 0.  1.
          2   -1    0    0  502    0  0.00000000000E+00 -0.00000000000E+00 -0.13705860802E+04  0.13705860802E+04  0.00000000000E+00 0. -1.
          6    2    1    2  502    0  0.21976419397E+03 -0.10343973956E+03 -0.68971207413E+03  0.75119078382E+03  0.17201385937E+03 0.  0.
         24    2    3    3    0    0  0.12407306838E+03 -0.10826819725E+03 -0.56543859097E+03  0.59420003843E+03  0.78973138967E+02 0.  0.
         -6    2    1    2    0  501 -0.21976419397E+03  0.10343973956E+03 -0.61611045676E+03  0.68415884567E+03  0.17171240640E+03 0.  0.
        -24    2    5    5    0    0 -0.14050360311E+03 -0.67350760016E+01 -0.31562118647E+03  0.35440647979E+03  0.78743862178E+02 0.  0.
          5    1    3    3  502    0  0.95691125590E+02  0.48284576851E+01 -0.12427348316E+03  0.15699074538E+03  0.47000000000E+01 0. -1.
        -13    1    4    4    0    0  0.18355536966E+02 -0.21643471824E+02 -0.23359563407E+03  0.23531316552E+03  0.00000000000E+00 0.  1.
         14    1    4    4    0    0  0.10571753142E+03 -0.86624725422E+02 -0.33184295690E+03  0.35888687291E+03  0.00000000000E+00 0. -1.
         -5    1    5    5    0  501 -0.79260590861E+02  0.11017481556E+03 -0.30048927028E+03  0.32975236588E+03  0.47000000000E+01 0.  1.
         13    1    6    6    0    0 -0.19352437201E+02 -0.18222150280E+02 -0.16026242542E+02  0.31038750562E+02  0.00000000000E+00 0. -1.
        -14    1    6    6    0    0 -0.12115116591E+03  0.11487074279E+02 -0.29959494393E+03  0.32336772923E+03  0.00000000000E+00 0.  1.
</event>
<event>
12    1  0.2576962E-002  0.1764126E+03  0.7818608E-02  0.1171321E+00
         -2   -1    0    0    0  501 -0.00000000000E+00  0.00000000000E+00  0.20300223144E+03  0.20300223144E+03  0.00000000000E+00 0. -1.
          2   -1    0    0  502    0  0.00000000000E+00 -0.00000000000E+00 -0.15691343456E+03  0.15691343456E+03  0.00000000000E+00 0.  1.
          6    2    1    2  502    0  0.15241321492E+02 -0.20508993188E+02  0.49861026453E+02  0.18080179098E+03  0.17190185857E+03 0.  0.
         24    2    3    3    0    0 -0.42237236032E+02 -0.34788352403E+02  0.68272843935E+02  0.11860235611E+03  0.80069495355E+02 0.  0.
         -6    2    1    2    0  501 -0.15241321492E+02  0.20508993188E+02 -0.37722295692E+01  0.17911387502E+03  0.17724173839E+03 0.  0.
        -24    2    5    5    0    0  0.30845421446E+02 -0.38015669940E+02  0.30411715287E+02  0.97017857123E+02  0.78044608967E+02 0.  0.
          5    1    3    3  502    0  0.57478557524E+02  0.14279359216E+02 -0.18411817481E+02  0.62199434866E+02  0.47000000000E+01 0. -1.
        -13    1    4    4    0    0 -0.39186424375E+02 -0.59724438020E+02  0.45483107999E+02  0.84683513539E+02  0.00000000000E+00 0.  1.
         14    1    4    4    0    0 -0.30508116573E+01  0.24936085617E+02  0.22789735936E+02  0.33918842576E+02  0.00000000000E+00 0. -1.
         -5    1    5    5    0  501 -0.46086742938E+02  0.58524663127E+02 -0.34183944857E+02  0.82096017898E+02  0.47000000000E+01 0.  1.
         13    1    6    6    0    0  0.28897791418E+02 -0.61022531580E+02  0.14731035957E+02  0.69107417328E+02  0.00000000000E+00 0. -1.
        -14    1    6    6    0    0  0.19476300281E+01  0.23006861641E+02  0.15680679331E+02  0.27910439795E+02  0.00000000000E+00 0.  1.
</event>
<event>
12    1  0.2576962E-002  0.1936134E+03  0.7818608E-02  0.1155242E+00
          2   -1    0    0  502    0  0.00000000000E+00  0.00000000000E+00  0.99898027749E+03  0.99898027749E+03  0.00000000000E+00 0. -1.
         -2   -1    0    0    0  501 -0.00000000000E+00 -0.00000000000E+00 -0.58032052204E+02  0.58032052204E+02  0.00000000000E+00 0.  1.
          6    2    1    2  502    0  0.84841695781E+02  0.27933777875E+02  0.78409323267E+03  0.80755896061E+03  0.17137931047E+03 0.  0.
         24    2    3    3    0    0  0.38483374982E+01 -0.30189025881E+02  0.48933643934E+03  0.49636474213E+03  0.77470119260E+02 0.  0.
         -6    2    1    2    0  501 -0.84841695781E+02 -0.27933777875E+02  0.15685499261E+03  0.24945336908E+03  0.17217748212E+03 0.  0.
        -24    2    5    5    0    0 -0.10665319639E+03 -0.69047918674E+02  0.13469672327E+03  0.19769244721E+03  0.69257324888E+02 0.  0.
          5    1    3    3  502    0  0.80993358283E+02  0.58122803756E+02  0.29475679333E+03  0.31119421848E+03  0.47000000000E+01 0. -1.
        -13    1    4    4    0    0  0.20950436782E+02 -0.14467951866E+01  0.35128356494E+02  0.40926952582E+02  0.00000000000E+00 0.  1.
         14    1    4    4    0    0 -0.17102099284E+02 -0.28742230694E+02  0.45420808285E+03  0.45543778955E+03  0.00000000000E+00 0. -1.
         -5    1    5    5    0  501  0.21811500610E+02  0.41114140798E+02  0.22158269344E+02  0.51760921869E+02  0.47000000000E+01 0.  1.
         13    1    6    6    0    0 -0.69160454418E+02 -0.96825196209E+01  0.92047301427E+02  0.11554057877E+03  0.00000000000E+00 0. -1.
        -14    1    6    6    0    0 -0.37492741974E+02 -0.59365399053E+02  0.42649421842E+02  0.82151868444E+02  0.00000000000E+00 0.  1.
</event>
<event>
12    1  0.2576962E-002  0.1890290E+03  0.7818608E-02  0.1159340E+00
          1   -1    0    0  502    0  0.00000000000E+00  0.00000000000E+00  0.32244119411E+03  0.32244119411E+03  0.00000000000E+00 0. -1.
         -1   -1    0    0    0  501 -0.00000000000E+00 -0.00000000000E+00 -0.11887441141E+03  0.11887441141E+03  0.00000000000E+00 0.  1.
          6    2    1    2  502    0  0.52333299354E+02  0.53967502008E+02  0.16000970154E+03  0.24889686673E+03  0.17520068547E+03 0.  0.
         24    2    3    3    0    0  0.65277194277E+02  0.60887619510E+02  0.18441789065E+03  0.22003024002E+03  0.80218039277E+02 0.  0.
         -6    2    1    2    0  501 -0.52333299354E+02 -0.53967502008E+02  0.43557081167E+02  0.19241873879E+03  0.17168717547E+03 0.  0.
        -24    2    5    5    0    0  0.33341036507E+02 -0.46380160118E+02  0.42188154763E+02  0.10626989352E+03  0.79061405866E+02 0.  0.
          5    1    3    3  502    0 -0.12943894924E+02 -0.69201175020E+01 -0.24408189117E+02  0.28866626717E+02  0.47000000000E+01 0. -1.
        -11    1    4    4    0    0  0.28188557598E+02  0.43609398577E+02  0.29333313132E+02  0.59639061721E+02  0.00000000000E+00 0.  1.
         12    1    4    4    0    0  0.37088636680E+02  0.17278220934E+02  0.15508457752E+03  0.16039117829E+03  0.00000000000E+00 0. -1.
         -5    1    5    5    0  501 -0.85674335861E+02 -0.75873418901E+01  0.13689264044E+01  0.86148845272E+02  0.47000000000E+01 0.  1.
         11    1    6    6    0    0  0.11097251913E+02  0.12514624392E+02  0.39910065542E+02  0.43273296099E+02  0.00000000000E+00 0. -1.
        -12    1    6    6    0    0  0.22243784594E+02 -0.58894784510E+02  0.22780892204E+01  0.62996597416E+02  0.00000000000E+00 0.  1.
</event>
<event>
12    1  0.2576962E-002  0.1810534E+03  0.7818608E-02  0.1166787E+00
         -1   -1    0    0    0  501 -0.00000000000E+00  0.00000000000E+00  0.15664425072E+03  0.15664425072E+03  0.00000000000E+00 0. -1.
          1   -1    0    0  502    0  0.00000000000E+00 -0.00000000000E+00 -0.20951723659E+03  0.20951723659E+03  0.00000000000E+00 0.  1.
          6    2    1    2  502    0 -0.68224492960E+01  0.53261381670E+02 -0.20053698655E+02  0.18176733516E+03  0.17249316714E+03 0.  0.
         24    2    3    3    0    0  0.30981381550E+01  0.91330022902E+02 -0.52187966471E+02  0.13075419305E+03  0.77603502571E+02 0.  0.
         -6    2    1    2    0  501  0.68224492960E+01 -0.53261381670E+02 -0.32819287210E+02  0.18439415214E+03  0.17332275425E+03 0.  0.
        -24    2    5    5    0    0  0.59070910171E+02 -0.22857743373E+02  0.21144326311E+02  0.10322491863E+03  0.78717548422E+02 0.  0.
          5    1    3    3  502    0 -0.99205874511E+01 -0.38068641231E+02  0.32134267815E+02  0.51013142117E+02  0.47000000000E+01 0. -1.
        -11    1    4    4    0    0 -0.15039968734E+02  0.43782446878E+02 -0.63538004256E+02  0.78614129131E+02  0.00000000000E+00 0.  1.
         12    1    4    4    0    0  0.18138106889E+02  0.47547576024E+02  0.11350037786E+02  0.52140063914E+02  0.00000000000E+00 0. -1.
         -5    1    5    5    0  501 -0.52248460875E+02 -0.30403638297E+02 -0.53963613522E+02  0.81169233518E+02  0.47000000000E+01 0.  1.
         11    1    6    6    0    0 -0.18791143453E+02 -0.12296934695E+02  0.50839167443E+01  0.23025374799E+02  0.00000000000E+00 0. -1.
        -12    1    6    6    0    0  0.77862053625E+02 -0.10560808678E+02  0.16060409567E+02  0.80199543827E+02  0.00000000000E+00 0.  1.
</event>
<event>
12    1  0.2576962E-002  0.1772643E+03  0.7818608E-02  0.1170477E+00
          2   -1    0    0  502    0  0.00000000000E+00  0.00000000000E+00  0.58054591251E+03  0.58054591251E+03  0.00000000000E+00 0.  1.
         -2   -1    0    0    0  501 -0.00000000000E+00 -0.00000000000E+00 -0.58470829886E+02  0.58470829886E+02  0.00000000000E+00 0. -1.
          6    2    1    2  502    0  0.87338354373E+01  0.54266065703E+02  0.17804214718E+03  0.25330705197E+03  0.17159362062E+03 0.  0.
         24    2    3    3    0    0  0.67394652189E+02  0.69919569334E+01  0.10170698217E+03  0.14595212568E+03  0.79792143488E+02 0.  0.
         -6    2    1    2    0  501 -0.87338354373E+01 -0.54266065703E+02  0.34403293545E+03  0.38570969043E+03  0.16550594808E+03 0.  0.
        -24    2    5    5    0    0 -0.48489026388E+02  0.21858728263E+01  0.12315517261E+03  0.15424398522E+03  0.79170996685E+02 0.  0.
          5    1    3    3  502    0 -0.58660816752E+02  0.47274108770E+02  0.76335165003E+02  0.10735492629E+03  0.47000000000E+01 0. -1.
        -11    1    4    4    0    0  0.51133499856E+02  0.30461436064E+02  0.25832909812E+02  0.64883535076E+02  0.00000000000E+00 0.  1.
         12    1    4    4    0    0  0.16261152333E+02 -0.23469479131E+02  0.75874072361E+02  0.81068590604E+02  0.00000000000E+00 0. -1.
         -5    1    5    5    0  501  0.39755190950E+02 -0.56451938530E+02  0.22087776284E+03  0.23146570521E+03  0.47000000000E+01 0.  1.
         13    1    6    6    0    0 -0.42356510670E+02  0.36203145480E+02  0.92792115942E+02  0.10823640108E+03  0.00000000000E+00 0. -1.
        -14    1    6    6    0    0 -0.61325157177E+01 -0.34017272653E+02  0.30363056666E+02  0.46007584135E+02  0.00000000000E+00 0.  1.
</event>
<event>
12    1  0.2576962E-002  0.3007561E+03  0.7818608E-02  0.1084863E+00
          1   -1    0    0  502    0  0.00000000000E+00  0.00000000000E+00  0.51918972550E+03  0.51918972550E+03  0.00000000000E+00 0.  1.
         -1   -1    0    0    0  501 -0.00000000000E+00 -0.00000000000E+00 -0.38345552068E+03  0.38345552068E+03  0.00000000000E+00 0. -1.
          6    2    1    2  502    0  0.16008195392E+03 -0.18757449319E+03  0.40125276833E+03  0.50146308815E+03  0.17219472183E+03 0.  0.
         24    2    3    3    0    0  0.84739212647E+02 -0.18579749932E+03  0.34520214537E+03  0.40742347574E+03  0.71609514023E+02 0.  0.
         -6    2    1    2    0  501 -0.16008195392E+03  0.18757449319E+03 -0.26551856351E+03  0.40118215803E+03  0.17215282133E+03 0.  0.
        -24    2    5    5    0    0 -0.46123860751E+02  0.15745802577E+03 -0.16958693138E+03  0.24913474224E+03  0.79924665054E+02 0.  0.
          5    1    3    3  502    0  0.75342741270E+02 -0.17769938616E+01  0.56050622951E+02  0.94039612411E+02  0.47000000000E+01 0. -1.
        -13    1    4    4    0    0  0.59311199799E+02 -0.51505891107E+02  0.14686485624E+03  0.16655317841E+03  0.00000000000E+00 0.  1.
         14    1    4    4    0    0  0.25428012848E+02 -0.13429160822E+03  0.19833728914E+03  0.24087029733E+03  0.00000000000E+00 0. -1.
         -5    1    5    5    0  501 -0.11395809317E+03  0.30116467413E+02 -0.95931632129E+02  0.15204741580E+03  0.47000000000E+01 0.  1.
         11    1    6    6    0    0 -0.49757751729E+02  0.11643495294E+03 -0.78008561396E+02  0.14872211595E+03  0.00000000000E+00 0. -1.
        -12    1    6    6    0    0  0.36338909778E+01  0.41023072836E+02 -0.91578369981E+02  0.10041262628E+03  0.00000000000E+00 0.  1.
</event>
<event>
12    1  0.2576962E-002  0.1841741E+03  0.7818608E-02  0.1163823E+00
         -2   -1    0    0    0  501 -0.00000000000E+00  0.00000000000E+00  0.13909291541E+03  0.13909291541E+03  0.00000000000E+00 0.  1.
          2   -1    0    0  502    0  0.00000000000E+00 -0.00000000000E+00 -0.47983015550E+03  0.47983015550E+03  0.00000000000E+00 0. -1.
          6    2    1    2  502    0  0.60062989924E+02 -0.43797602341E+02  0.45270894998E+02  0.19243320505E+03  0.17162544025E+03 0.  0.
         24    2    3    3    0    0  0.39344124851E+01 -0.62436561150E+02  0.75350240120E+02  0.12591489934E+03  0.79139746148E+02 0.  0.
         -6    2    1    2    0  501 -0.60062989924E+02  0.43797602341E+02 -0.38600813509E+03  0.42648986586E+03  0.16542530822E+03 0.  0.
        -24    2    5    5    0    0 -0.48406267844E+02  0.89444896500E+02 -0.32428165097E+03  0.34869652762E+03  0.78020016276E+02 0.  0.
          5    1    3    3  502    0  0.56128577439E+02  0.18638958809E+02 -0.30079345122E+02  0.66518305705E+02  0.47000000000E+01 0. -1.
        -13    1    4    4    0    0  0.29154248310E+02  0.27768136496E+01  0.12296657515E+02  0.31763007959E+02  0.00000000000E+00 0.  1.
         14    1    4    4    0    0 -0.25219835824E+02 -0.65213374800E+02  0.63053582606E+02  0.94151891384E+02  0.00000000000E+00 0. -1.
         -5    1    5    5    0  501 -0.11656722080E+02 -0.45647294159E+02 -0.61726484116E+02  0.77793338243E+02  0.47000000000E+01 0.  1.
         13    1    6    6    0    0 -0.29406189601E+02  0.79899416909E+01 -0.17452498686E+03  0.17716527367E+03  0.00000000000E+00 0. -1.
        -14    1    6    6    0    0 -0.19000078243E+02  0.81454954809E+02 -0.14975666411E+03  0.17153125395E+03  0.00000000000E+00 0.  1.
</event>
<event>
12    1  0.2576962E-002  0.2022966E+03  0.7818608E-02  0.1147816E+00
         -2   -1    0    0    0  501 -0.00000000000E+00  0.00000000000E+00  0.94335329494E+02  0.94335329494E+02  0.00000000000E+00 0. -1.
          2   -1    0    0  502    0  0.00000000000E+00 -0.00000000000E+00 -0.45613197045E+03  0.45613197045E+03  0.00000000000E+00 0.  1.
          6    2    1    2  502    0  0.69727078364E+02  0.67373542365E+02 -0.11667691649E+03  0.22990094870E+03  0.17274224644E+03 0.  0.
         24    2    3    3    0    0  0.62356743292E+01  0.53142758127E+02 -0.43701190135E+00  0.96606241285E+02  0.80433441429E+02 0.  0.
         -6    2    1    2    0  501 -0.69727078364E+02 -0.67373542365E+02 -0.24511972446E+03  0.32056635124E+03  0.18242271393E+03 0.  0.
        -24    2    5    5    0    0  0.74078998802E+01 -0.93534441452E+02 -0.12846210671E+03  0.17821015261E+03  0.80329178471E+02 0.  0.
          5    1    3    3  502    0  0.63491404034E+02  0.14230784238E+02 -0.11623990459E+03  0.13329470742E+03  0.47000000000E+01 0. -1.
        -13    1    4    4    0    0 -0.36502858108E+02  0.26652468624E+02 -0.75483896443E+01  0.45823475643E+02  0.00000000000E+00 0.  1.
         14    1    4    4    0    0  0.42738532437E+02  0.26490289503E+02  0.71113777430E+01  0.50782765642E+02  0.00000000000E+00 0. -1.
         -5    1    5    5    0  501 -0.77134978244E+02  0.26160899087E+02 -0.11665761775E+03  0.14235619863E+03  0.47000000000E+01 0.  1.
         13    1    6    6    0    0 -0.22233451421E+02  0.29906227413E+01 -0.20534272358E+02  0.30412604751E+02  0.00000000000E+00 0. -1.
        -14    1    6    6    0    0  0.29641351301E+02 -0.96525064193E+02 -0.10792783435E+03  0.14779754786E+03  0.00000000000E+00 0.  1.
</event>
<event>
12    1  0.2576962E-002  0.2147352E+03  0.7818608E-02  0.1137870E+00
          1   -1    0    0  502    0  0.00000000000E+00  0.00000000000E+00  0.25829494809E+03  0.25829494809E+03  0.00000000000E+00 0. -1.
         -1   -1    0    0    0  501 -0.00000000000E+00 -0.00000000000E+00 -0.19715785873E+03  0.19715785873E+03  0.00000000000E+00 0.  1.
          6    2    1    2  502    0 -0.66332313187E+02 -0.11017172679E+03 -0.39482296340E+02  0.21805209903E+03  0.17161025905E+03 0.  0.
         24    2    3    3    0    0 -0.96360137143E+01 -0.10314767751E+03 -0.76184063002E+02  0.14998656210E+03  0.77198842080E+02 0.  0.
         -6    2    1    2    0  501  0.66332313187E+02  0.11017172679E+03  0.10061938570E+03  0.23740070778E+03  0.17232832071E+03 0.  0.
        -24    2    5    5    0    0 -0.12949099785E+02  0.77823251188E+02  0.10149545236E+03  0.15164043837E+03  0.80432319924E+02 0.  0.
          5    1    3    3  502    0 -0.56696299473E+02 -0.70240492852E+01  0.36701766663E+02  0.68065536936E+02  0.47000000000E+01 0. -1.
        -11    1    4    4    0    0 -0.91735575255E+00 -0.10257156702E+02 -0.52809562462E+02  0.53804281359E+02  0.00000000000E+00 0.  1.
         12    1    4    4    0    0 -0.87186579617E+01 -0.92890520808E+02 -0.23374500541E+02  0.96182280739E+02  0.00000000000E+00 0. -1.
         -5    1    5    5    0  501  0.79281412972E+02  0.32348475607E+02 -0.87606666458E+00  0.85760269412E+02  0.47000000000E+01 0.  1.
         13    1    6    6    0    0 -0.14193437008E+02 -0.37358742196E+01  0.56724986856E+02  0.58592956438E+02  0.00000000000E+00 0. -1.
        -14    1    6    6    0    0  0.12443372238E+01  0.81559125408E+02  0.44770465505E+02  0.93047481932E+02  0.00000000000E+00 0.  1.
</event>
<event>
12    1  0.2576962E-002  0.1822338E+03  0.7818608E-02  0.1165659E+00
          2   -1    0    0  502    0  0.00000000000E+00  0.00000000000E+00  0.21312523749E+04  0.21312523749E+04  0.00000000000E+00 0. -1.
         -2   -1    0    0    0  501 -0.00000000000E+00 -0.00000000000E+00 -0.15902915561E+02  0.15902915561E+02  0.00000000000E+00 0.  1.
          6    2    1    2  502    0  0.57133884627E+02 -0.18516399299E+02  0.12132308723E+04  0.12269214772E+04  0.17262683378E+03 0.  0.
         24    2    3    3    0    0  0.22798785185E+02  0.54159543438E+02  0.59402546062E+03  0.60250324906E+03  0.81797778121E+02 0.  0.
         -6    2    1    2    0  501 -0.57133884627E+02  0.18516399299E+02  0.90211858699E+03  0.92023381328E+03  0.17147941068E+03 0.  0.
        -24    2    5    5    0    0  0.25935767313E+02  0.21421413766E+02  0.29438831874E+03  0.30682760599E+03  0.79669044157E+02 0.  0.
          5    1    3    3  502    0  0.34335099442E+02 -0.72675942737E+02  0.61920541173E+03  0.62441822813E+03  0.47000000000E+01 0. -1.
        -11    1    4    4    0    0 -0.27569316035E+02  0.38764753264E+02  0.31138855504E+03  0.31500096110E+03  0.00000000000E+00 0.  1.
         12    1    4    4    0    0  0.50368101220E+02  0.15394790174E+02  0.28263690558E+03  0.28750228796E+03  0.00000000000E+00 0. -1.
         -5    1    5    5    0  501 -0.83069651940E+02 -0.29050144671E+01  0.60773026825E+03  0.61340620728E+03  0.47000000000E+01 0.  1.
         13    1    6    6    0    0 -0.13680560467E+02 -0.39104886636E+01  0.20787006735E+03  0.20835646032E+03  0.00000000000E+00 0. -1.
        -14    1    6    6    0    0  0.39616327780E+02  0.25331902429E+02  0.86518251387E+02  0.98471145675E+02  0.00000000000E+00 0.  1.
</event>
<event>
12    1  0.2576962E-002  0.1935445E+03  0.7818608E-02  0.1155303E+00
          2   -1    0    0  502    0  0.00000000000E+00  0.00000000000E+00  0.61343038959E+03  0.61343038959E+03  0.00000000000E+00 0.  1.
         -2   -1    0    0    0  501 -0.00000000000E+00 -0.00000000000E+00 -0.61690963397E+02  0.61690963397E+02  0.00000000000E+00 0. -1.
          6    2    1    2  502    0  0.67503624895E+02  0.61215621877E+02  0.24256557772E+03  0.31061678744E+03  0.17129108969E+03 0.  0.
         24    2    3    3    0    0  0.59936467676E+02  0.44505910252E+02  0.55106152978E+02  0.12220340613E+03  0.79522501024E+02 0.  0.
         -6    2    1    2    0  501 -0.67503624895E+02 -0.61215621877E+02  0.30917384847E+03  0.36450456555E+03  0.17020874828E+03 0.  0.
        -24    2    5    5    0    0 -0.10306846519E+03 -0.30444752943E+02  0.13660230316E+03  0.18557795352E+03  0.65030732002E+02 0.  0.
          5    1    3    3  502    0  0.75671572189E+01  0.16709711625E+02  0.18745942474E+03  0.18841338131E+03  0.47000000000E+01 0. -1.
        -13    1    4    4    0    0  0.11635298597E+02 -0.21722262892E+02  0.24376848432E+02  0.34662192921E+02  0.00000000000E+00 0.  1.
         14    1    4    4    0    0  0.48301169079E+02  0.66228173144E+02  0.30729304546E+02  0.87541213210E+02  0.00000000000E+00 0. -1.
         -5    1    5    5    0  501  0.35564840300E+02 -0.30770868934E+02  0.17257154531E+03  0.17892661203E+03  0.47000000000E+01 0.  1.
         13    1    6    6    0    0 -0.63941031011E+02  0.33243727194E+01  0.38547953155E+02  0.74735878888E+02  0.00000000000E+00 0. -1.
        -14    1    6    6    0    0 -0.39127434184E+02 -0.33769125662E+02  0.98054350007E+02  0.11084207463E+03  0.00000000000E+00 0.  1.
</event>
<event>
12    1  0.2576962E-002  0.1726348E+03  0.7818608E-02  0.1175128E+00
          2   -1    0    0  502    0  0.00000000000E+00  0.00000000000E+00  0.89007569762E+02  0.89007569762E+02  0.00000000000E+00 0. -1.
         -2   -1    0    0    0  501 -0.00000000000E+00 -0.00000000000E+00 -0.33488790935E+03  0.33488790935E+03  0.00000000000E+00 0.  1.
          6    2    1    2  502    0  0.56663609087E+01 -0.76009901535E+00 -0.12574640084E+03  0.21373040606E+03  0.17273055247E+03 0.  0.
         24    2    3    3    0    0 -0.45926718837E+02 -0.15810588476E+02 -0.12526303047E+03  0.15977962519E+03  0.86483892197E+02 0.  0.
         -6    2    1    2    0  501 -0.56663609087E+01  0.76009901535E+00 -0.12013393874E+03  0.21016507304E+03  0.17234996169E+03 0.  0.
        -24    2    5    5    0    0 -0.12725847075E+02 -0.15724908595E+02 -0.15267057798E+03  0.17271758029E+03  0.78191030352E+02 0.  0.
          5    1    3    3  502    0  0.51593079745E+02  0.15050489461E+02 -0.48337036917E+00  0.53950780880E+02  0.47000000000E+01 0. -1.
        -13    1    4    4    0    0  0.15958949625E+02  0.20779114407E+02 -0.23584030841E+02  0.35251470599E+02  0.00000000000E+00 0.  1.
         14    1    4    4    0    0 -0.61885668462E+02 -0.36589702883E+02 -0.10167899963E+03  0.12452815459E+03  0.00000000000E+00 0. -1.
         -5    1    5    5    0  501  0.70594861662E+01  0.16485007610E+02  0.32536639236E+02  0.37447492754E+02  0.47000000000E+01 0.  1.
         11    1    6    6    0    0  0.18036678836E+02 -0.31357349470E+02 -0.35937851399E+02  0.50991512160E+02  0.00000000000E+00 0. -1.
        -12    1    6    6    0    0 -0.30762525911E+02  0.15632440875E+02 -0.11673272658E+03  0.12172606813E+03  0.00000000000E+00 0.  1.
</event>
<event>
12    1  0.2576962E-002  0.1902631E+03  0.7818608E-02  0.1158224E+00
          2   -1    0    0  502    0  0.00000000000E+00  0.00000000000E+00  0.15641550774E+04  0.15641550774E+04  0.00000000000E+00 0. -1.
         -2   -1    0    0    0  501 -0.00000000000E+00 -0.00000000000E+00 -0.24435127965E+02  0.24435127965E+02  0.00000000000E+00 0.  1.
          6    2    1    2  502    0  0.40294694164E+02 -0.63087176879E+02  0.96083778674E+03  0.97993539690E+03  0.17737101063E+03 0.  0.
         24    2    3    3    0    0  0.81595105303E+01 -0.85485241523E+02  0.37490249277E+03  0.39267344338E+03  0.79159648344E+02 0.  0.
         -6    2    1    2    0  501 -0.40294694164E+02  0.63087176879E+02  0.57888216266E+03  0.60865480843E+03  0.17248902375E+03 0.  0.
        -24    2    5    5    0    0 -0.52270629168E+02  0.86912776478E+02  0.56173078143E+03  0.57660263076E+03  0.81505052600E+02 0.  0.
          5    1    3    3  502    0  0.32135183633E+02  0.22398064644E+02  0.58593529397E+03  0.58726195351E+03  0.47000000000E+01 0. -1.
        -11    1    4    4    0    0  0.10199078915E+02 -0.89402826988E+02  0.21976705382E+03  0.23747514528E+03  0.00000000000E+00 0.  1.
         12    1    4    4    0    0 -0.20395683845E+01  0.39175854652E+01  0.15513543895E+03  0.15519829810E+03  0.00000000000E+00 0. -1.
         -5    1    5    5    0  501  0.11975935004E+02 -0.23825599599E+02  0.17151381230E+02  0.32052177673E+02  0.47000000000E+01 0.  1.
         13    1    6    6    0    0 -0.15633780610E+02 -0.13411073383E+02  0.14249513087E+03  0.14397615882E+03  0.00000000000E+00 0. -1.
        -14    1    6    6    0    0 -0.36636848558E+02  0.10032384986E+03  0.41923565056E+03  0.43262647194E+03  0.00000000000E+00 0.  1.
</event>
<event>
12    1  0.2576962E-002  0.1741198E+03  0.7818608E-02  0.1173618E+00
         -2   -1    0    0    0  501 -0.00000000000E+00  0.00000000000E+00  0.34105459523E+02  0.34105459523E+02  0.00000000000E+00 0. -1.
          2   -1    0    0  502    0  0.00000000000E+00 -0.00000000000E+00 -0.97962866449E+03  0.97962866449E+03  0.00000000000E+00 0.  1.
          6    2    1    2  502    0 -0.47094288884E+02 -0.38912604973E+01 -0.63672297881E+03  0.66121949225E+03  0.17193618359E+03 0.  0.
         24    2    3    3    0    0 -0.81171100100E+01  0.76258458834E+01 -0.12917426063E+03  0.15202438667E+03  0.79381254300E+02 0.  0.
         -6    2    1    2    0  501  0.47094288884E+02  0.38912604973E+01 -0.30880022616E+03  0.35251463177E+03  0.16332780529E+03 0.  0.
        -24    2    5    5    0    0  0.81281103466E+02  0.40008454136E+02 -0.23949100092E+03  0.26708016173E+03  0.75951162493E+02 0.  0.
          5    1    3    3  502    0 -0.38977178874E+02 -0.11517106381E+02 -0.50754871818E+03  0.50919510557E+03  0.47000000000E+01 0. -1.
        -13    1    4    4    0    0  0.50058619222E+01 -0.12490896672E+02 -0.12721633753E+03  0.12792606337E+03  0.00000000000E+00 0.  1.
         14    1    4    4    0    0 -0.13122971932E+02  0.20116742556E+02 -0.19579230964E+01  0.24098323308E+02  0.00000000000E+00 0. -1.
         -5    1    5    5    0  501 -0.34186814583E+02 -0.36117193639E+02 -0.69309225239E+02  0.85434470039E+02  0.47000000000E+01 0.  1.
         11    1    6    6    0    0  0.46329638815E+02  0.87659052810E+01 -0.39027356390E+02  0.61207933104E+02  0.00000000000E+00 0. -1.
        -12    1    6    6    0    0  0.34951464651E+02  0.31242548855E+02 -0.20046364453E+03  0.20587222862E+03  0.00000000000E+00 0.  1.
</event>
<event>
12    1  0.2576962E-002  0.1750240E+03  0.7818608E-02  0.1172708E+00
          1   -1    0    0  502    0  0.00000000000E+00  0.00000000000E+00  0.11385837872E+03  0.11385837872E+03  0.00000000000E+00 0.  1.
         -1   -1    0    0    0  501 -0.00000000000E+00 -0.00000000000E+00 -0.29308442307E+03  0.29308442307E+03  0.00000000000E+00 0. -1.
          6    2    1    2  502    0  0.11651973272E+02  0.30431955513E+02 -0.14810149788E+03  0.22963651092E+03  0.17244419699E+03 0.  0.
         24    2    3    3    0    0 -0.20057160953E+02  0.68383096268E+01 -0.16676782633E+03  0.18567458265E+03  0.78832040187E+02 0.  0.
         -6    2    1    2    0  501 -0.11651973272E+02 -0.30431955513E+02 -0.31124546466E+02  0.17730629087E+03  0.17148443367E+03 0.  0.
        -24    2    5    5    0    0 -0.10139875941E+02 -0.79416965162E+02 -0.45904615996E+02  0.12590241880E+03  0.85640608647E+02 0.  0.
          5    1    3    3  502    0  0.31709134225E+02  0.23593645886E+02  0.18666328449E+02  0.43961928270E+02  0.47000000000E+01 0. -1.
        -13    1    4    4    0    0  0.23557004985E+02  0.11167842453E+02 -0.21048188790E+02  0.33506408944E+02  0.00000000000E+00 0.  1.
         14    1    4    4    0    0 -0.43614165938E+02 -0.43295328265E+01 -0.14571963754E+03  0.15216817371E+03  0.00000000000E+00 0. -1.
         -5    1    5    5    0  501 -0.15120973307E+01  0.48985009649E+02  0.14780069529E+02  0.51403872071E+02  0.47000000000E+01 0.  1.
         13    1    6    6    0    0 -0.47069003309E+02 -0.44555225675E+02 -0.15248455541E+02  0.66582089212E+02  0.00000000000E+00 0. -1.
        -14    1    6    6    0    0  0.36929127368E+02 -0.34861739487E+02 -0.30656160454E+02  0.59320329584E+02  0.00000000000E+00 0.  1.
</event>
